Title
82263
    1SAPS     N    1   0.202   1.155  10.907  0.0788 -0.1249 -0.8981
    1SAPS   HN1    2   0.253   1.082  10.853  0.9107 -0.4816  0.3373
    1SAPS   HN2    3   0.134   1.107  10.969  2.6805 -0.3138  2.0404
    1SAPS   HN3    4   0.152   1.214  10.837 -0.5770  0.0738 -0.2695
    1SAPS   C12    5   0.303   1.229  10.991 -0.3928  0.1235 -0.1011
    1SAPS  H12A    6   0.351   1.307  10.934  0.0916  1.1027  1.5901
    1SAPS   C13    7   0.241   1.302  11.108 -0.0218  1.6866 -0.0291
    1SAPS  O13A    8   0.119   1.307  11.135  0.0123 -0.6419 -0.0199
    1SAPS  O13B    9   0.322   1.348  11.195 -0.6596  0.0478  0.0626
    1SAPS   C11   10   0.414   1.129  11.050 -0.7862  0.1547  0.1563
    1SAPS  H11A   11   0.365   1.083  11.138  0.2945  1.5517  1.5506
    1SAPS  H11B   12   0.501   1.188  11.086 -0.1166 -0.4280 -0.4772
    1SAPS     P   13   0.586   1.050  10.867 -0.2290  0.3710 -0.0669
    1SAPS   O13   14   0.627   1.194  10.872 -0.1409  0.7590  0.2421
    1SAPS   O14   15   0.682   0.952  10.921 -0.1644  0.7464 -0.2656
    1SAPS   O12   16   0.451   1.032  10.951  0.0035 -0.0913  0.0434
    1SAPS   O11   17   0.540   1.000  10.726 -0.8030  0.3878  0.7591
    1SAPS    C1   18   0.646   0.946  10.640  0.6500 -0.1301  0.5508
    1SAPS    HA   19   0.735   1.010  10.626  1.1481 -1.1610 -1.1803
    1SAPS    HB   20   0.688   0.849  10.675  1.8435 -0.5459 -1.8329
    1SAPS    C2   21   0.600   0.904  10.496  0.5617 -0.5221 -0.5247
    1SAPS    HS   22   0.509   0.842  10.515 -0.3514  0.9748  0.1724
    1SAPS   O21   23   0.703   0.829  10.427  0.5121  0.0271  0.6389
    1SAPS   C21   24   0.719   0.705  10.473 -0.4168 -0.5031 -0.1757
    1SAPS   O22   25   0.657   0.647  10.558  0.9147 -0.4718 -0.4801
    1SAPS   C22   26   0.836   0.637  10.399  0.1884 -0.5917  0.1592
    1SAPS   H2R   27   0.825   0.663  10.291  1.2554 -0.6413  0.0346
    1SAPS   H2S   28   0.926   0.692  10.432  0.4985 -0.7617 -0.3974
    1SAPS    C3   29   0.556   1.035  10.417 -0.5557 -0.2426 -0.1010
    1SAPS    HX   30   0.624   1.120  10.434 -2.0354  0.9882 -0.1111
    1SAPS    HY   31   0.456   1.068  10.453  0.0197  1.1011  0.2986
    1SAPS   O31   32   0.551   1.021  10.277 -0.5343  0.5968 -0.3359
    1SAPS   C31   33   0.449   0.955  10.227  0.3043 -0.1502 -0.3642
    1SAPS   O32   34   0.354   0.919  10.294 -0.5783  0.2032 -0.3993
    1SAPS   C32   35   0.468   0.928  10.075 -0.1848 -0.5995 -0.4547
    1SAPS   H2X   36   0.538   0.999  10.026 -0.2849  0.2909  0.6285
    1SAPS   H2Y   37   0.361   0.942  10.049  0.0171 -0.9832 -1.4995
    1SAPS   C23   38   0.858   0.487  10.415  0.0751  0.6200 -0.3774
    1SAPS   H3R   39   0.767   0.425  10.398  1.2955 -0.5029 -3.4363
    1SAPS   H3S   40   0.885   0.472  10.522 -1.2792 -2.7836 -0.4032
    1SAPS   C24   41   0.968   0.442  10.322  0.3209  0.6209 -0.2979
    1SAPS   H4R   42   0.978   0.339  10.362 -0.1282  0.3937 -0.7713
    1SAPS   H4S   43   1.063   0.499  10.334  0.8709  0.3854 -2.9934
    1SAPS   C25   44   0.929   0.431  10.177 -0.3012 -0.2250  0.9660
    1SAPS   H5R   45   0.840   0.368  10.160 -0.7711  0.8006 -0.5530
    1SAPS   C26   46   0.981   0.492  10.064 -0.0821  0.1215 -0.1557
    1SAPS   H6R   47   0.946   0.464   9.963  0.5088  1.0247 -0.6255
    1SAPS   C27   48   1.091   0.589  10.068  0.6877  0.4171 -0.3749
    1SAPS   H7R   49   1.162   0.559  10.149  0.8836  2.1729  0.1473
    1SAPS   H7S   50   1.048   0.687  10.098  0.3192  0.1602 -0.0513
    1SAPS   C28   51   1.171   0.608   9.946  1.3438 -0.7296 -0.2796
    1SAPS   H8R   52   1.274   0.570   9.955  1.7170  0.5160  1.2527
    1SAPS   C29   53   1.135   0.657   9.824  0.0928  1.0293 -0.5671
    1SAPS   H9R   54   1.215   0.675   9.751  2.3908  0.2899  1.6386
    1SAPS  C210   55   0.996   0.714   9.786  0.2189 -0.2163  0.4730
    1SAPS  H10R   56   1.016   0.816   9.747  4.1093  0.3808  3.4052
    1SAPS  H10S   57   0.938   0.711   9.881  0.0048  0.8274  0.3859
    1SAPS  C211   58   0.923   0.616   9.693 -0.0344 -0.4057  0.0532
    1SAPS  H11R   59   0.917   0.519   9.744 -2.3714  1.5409  3.9418
    1SAPS  C212   60   0.890   0.636   9.564  0.1950  0.0417  0.3815
    1SAPS  H12R   61   0.836   0.551   9.520  0.0568  0.0070  0.6158
    1SAPS  C213   62   0.902   0.765   9.485 -0.1421 -0.0037 -0.2428
    1SAPS  H13R   63   0.990   0.763   9.417  0.6450  2.2595  0.6078
    1SAPS  H13S   64   0.906   0.860   9.543  1.9362 -0.7349  0.8892
    1SAPS  C214   65   0.768   0.768   9.416  0.1958 -0.1790  0.0131
    1SAPS  H14R   66   0.692   0.784   9.494  0.2659  0.8070 -0.1183
    1SAPS  C215   67   0.739   0.794   9.286  0.0472  0.5852 -0.5604
    1SAPS  H15R   68   0.632   0.801   9.261  0.0624  1.6844 -0.3704
    1SAPS  C216   69   0.847   0.805   9.175  0.3896  0.1146  0.4182
    1SAPS  H16R   70   0.945   0.845   9.209  1.0433  0.4121 -1.6792
    1SAPS  H16S   71   0.814   0.881   9.100  0.6761 -0.3928 -0.2251
    1SAPS  C217   72   0.850   0.682   9.082 -0.1736  0.6536 -0.7576
    1SAPS  H17R   73   0.755   0.665   9.028  0.0561 -2.2627 -0.3927
    1SAPS  H17S   74   0.871   0.591   9.142 -1.8479  0.8792  0.2291
    1SAPS  C218   75   0.964   0.699   8.977  0.2123 -0.3967  0.0480
    1SAPS  H18R   76   1.054   0.723   9.038  0.6141  0.8359 -0.9875
    1SAPS  H18S   77   0.947   0.792   8.919  2.4434 -0.1890 -0.3847
    1SAPS  C219   78   0.975   0.573   8.889  0.4589 -0.1200  0.4448
    1SAPS  H19R   79   1.001   0.482   8.947  1.1406 -2.3775 -3.0750
    1SAPS  H19S   80   1.058   0.592   8.818  0.5397  2.3778  1.1187
    1SAPS  C220   81   0.850   0.540   8.809  0.5556 -0.8215  0.4282
    1SAPS  H20R   82   0.871   0.478   8.718 -1.1636  0.4227 -0.8675
    1SAPS  H20S   83   0.783   0.622   8.776  1.2633 -0.7835 -1.0093
    1SAPS  H20T   84   0.784   0.487   8.881 -0.8300  1.7374  1.1636
    1SAPS   C33   85   0.516   0.789  10.032 -0.0157 -0.2185 -0.0404
    1SAPS   H3X   86   0.447   0.705  10.055 -0.5783  0.4046  0.5795
    1SAPS   H3Y   87   0.598   0.773  10.106  1.4238  0.0343 -1.5023
    1SAPS   C34   88   0.556   0.790   9.883  0.8022 -1.1534 -0.5062
    1SAPS   H4X   89   0.650   0.731   9.888  0.3543 -1.7745  1.3282
    1SAPS   H4Y   90   0.590   0.889   9.847  0.8663 -0.2374  1.8621
    1SAPS   C35   91   0.451   0.727   9.794  1.1088  0.4077  0.8047
    1SAPS   H5X   92   0.358   0.784   9.811  1.1914  0.2960  1.6502
    1SAPS   H5Y   93   0.430   0.626   9.835 -0.4039  1.2179  2.1220
    1SAPS   C36   94   0.487   0.719   9.650  0.3300 -0.0189  0.3742
    1SAPS   H6X   95   0.588   0.677   9.631 -0.0938 -1.1541  0.5222
    1SAPS   H6Y   96   0.481   0.818   9.599 -3.2091 -0.3543 -0.1233
    1SAPS   C37   97   0.386   0.637   9.563 -0.4085 -0.2502  0.0996
    1SAPS   H7X   98   0.278   0.665   9.571 -0.2751 -0.1952  3.9958
    1SAPS   H7Y   99   0.388   0.542   9.621 -1.5820  1.5306  3.3881
    1SAPS   C38  100   0.438   0.619   9.416  0.3480  0.2506  0.0108
    1SAPS   H8X  101   0.541   0.581   9.432  0.8572  0.4560 -2.4426
    1SAPS   H8Y  102   0.447   0.716   9.362  0.0426  1.5234  2.1174
    1SAPS   C39  103   0.378   0.509   9.330 -0.2709 -0.6783 -0.3707
    1SAPS   H9X  104   0.269   0.530   9.320  0.2533  2.1255 -1.1052
    1SAPS   H9Y  105   0.398   0.410   9.377 -1.2688 -0.7587 -0.0817
    1SAPS  C310  106   0.430   0.520   9.192  0.1235  0.1835  0.2861
    1SAPS  H10X  107   0.539   0.502   9.186  0.0479  0.2237 -2.3703
    1SAPS  H10Y  108   0.421   0.626   9.159 -1.9867 -0.5919 -1.9269
    1SAPS  C311  109   0.354   0.427   9.103 -0.1446 -0.2962 -0.1504
    1SAPS  H11X  110   0.246   0.427   9.132 -1.7073  0.7634 -5.0169
    1SAPS  H11Y  111   0.402   0.333   9.139  2.1287  1.3476  1.4114
    1SAPS  C312  112   0.377   0.448   8.958 -0.1204 -0.0435 -0.2231
    1SAPS  H12X  113   0.484   0.433   8.933 -0.0611 -1.8450  0.9089
    1SAPS  H12Y  114   0.357   0.554   8.933 -1.1579 -0.6252 -2.0607
    1SAPS  C313  115   0.290   0.358   8.868 -0.0929  0.0589  0.5500
    1SAPS  H13X  116   0.188   0.352   8.911 -1.2480  2.6995 -1.5797
    1SAPS  H13Y  117   0.327   0.255   8.889  1.2472  0.3727 -0.1732
    1SAPS  C314  118   0.301   0.387   8.718 -0.3455 -0.4558 -0.4868
    1SAPS  H14X  119   0.409   0.383   8.696  0.2608  1.5499  1.7517
    1SAPS  H14Y  120   0.262   0.487   8.691 -2.3542 -0.9766  0.2834
    1SAPS  C315  121   0.218   0.291   8.632 -0.4808 -0.4170 -0.0994
    1SAPS  H15X  122   0.116   0.276   8.675 -0.3341 -2.4811 -0.3382
    1SAPS  H15Y  123   0.266   0.191   8.642  0.2017 -0.0205  0.6372
    1SAPS  C316  124   0.219   0.324   8.482  0.0563  0.2720 -0.0743
    1SAPS  H16X  125   0.312   0.286   8.434  0.3671  0.7602  0.1406
    1SAPS  H16Y  126   0.211   0.432   8.461  4.6872  0.8681  0.0480
    1SAPS  C317  127   0.111   0.252   8.395  0.1043  0.0213  0.0447
    1SAPS  H17X  128   0.013   0.265   8.445  0.3937 -1.0684  0.9269
    1SAPS  H17Y  129   0.142   0.146   8.383 -0.5225 -0.2074  0.4025
    1SAPS  C318  130   0.088   0.318   8.264  0.0901  0.3131  0.0183
    1SAPS  H18X  131   0.177   0.324   8.199 -0.1139 -0.9044 -0.3992
    1SAPS  H18Y  132   0.054   0.422   8.280  0.0734  0.1999  0.7791
    1SAPS  H18Z  133   0.007   0.271   8.203 -1.0232  0.7567  1.1117
    2SAPS     N  134   6.669   1.208  11.173  0.1295  0.1432 -0.1068
    2SAPS   HN1  135   6.685   1.124  11.233  2.7386 -0.8246 -1.9707
    2SAPS   HN2  136   6.756   1.254  11.141 -0.2459  0.8792 -0.0780
    2SAPS   HN3  137   6.615   1.275  11.230  0.8163  0.0353  0.6996
    2SAPS   C12  138   6.582   1.185  11.055  0.0272  0.1924 -0.5630
    2SAPS  H12A  139   6.611   1.088  11.018  1.4807  0.7773 -1.0377
    2SAPS   C13  140   6.435   1.200  11.088  0.2807 -0.2756  0.7926
    2SAPS  O13A  141   6.399   1.234  11.201 -0.1233 -0.4563 -0.1413
    2SAPS  O13B  142   6.352   1.171  10.997 -0.1978 -0.8805 -0.2672
    2SAPS   C11  143   6.598   1.300  10.952  0.1319 -0.7758  0.1885
    2SAPS  H11A  144   6.577   1.399  10.998  0.7824 -0.4416 -0.2179
    2SAPS  H11B  145   6.531   1.264  10.871 -2.9826  0.3472  2.0651
    2SAPS     P  146   6.764   1.360  10.753 -0.4015 -0.0630  0.1459
    2SAPS   O13  147   6.727   1.502  10.741  0.0290 -0.1639  0.0698
    2SAPS   O14  148   6.905   1.324  10.723 -0.4712  0.3330 -0.3868
    2SAPS   O12  149   6.735   1.296  10.902 -0.3382 -0.2544 -0.3560
    2SAPS   O11  150   6.672   1.280  10.658  0.2935 -0.0417 -0.7118
    2SAPS    C1  151   6.699   1.141  10.624  0.2516  0.1478 -0.1180
    2SAPS    HA  152   6.779   1.102  10.691  0.9597  0.8928 -0.5162
    2SAPS    HB  153   6.613   1.075  10.648  1.4557 -0.7576  2.0269
    2SAPS    C2  154   6.752   1.123  10.481  0.7433 -0.5428  0.1769
    2SAPS    HS  155   6.858   1.156  10.477  0.4412  0.4562  0.1153
    2SAPS   O21  156   6.668   1.189  10.391  0.3687 -0.1368  0.3694
    2SAPS   C21  157   6.702   1.308  10.358 -0.3277  0.4243  0.2266
    2SAPS   O22  158   6.811   1.365  10.378  0.2318 -0.1343  0.1009
    2SAPS   C22  159   6.579   1.371  10.278 -0.2650 -0.0394  0.4401
    2SAPS   H2R  160   6.556   1.308  10.189  3.2866  0.8893 -1.3361
    2SAPS   H2S  161   6.489   1.370  10.343 -0.6673 -1.4262 -0.1084
    2SAPS    C3  162   6.751   0.970  10.448  0.4009  0.6400  0.3916
    2SAPS    HX  163   6.647   0.932  10.453  1.5809 -3.0097  0.6253
    2SAPS    HY  164   6.808   0.917  10.528 -0.0787  0.4547  0.6125
    2SAPS   O31  165   6.818   0.938  10.325  0.0945  1.2743  0.1785
    2SAPS   C31  166   6.765   0.830  10.268 -0.1106 -0.1876  0.2242
    2SAPS   O32  167   6.674   0.760  10.307 -0.7306  0.5945 -0.5340
    2SAPS   C32  168   6.843   0.802  10.131  0.3281 -0.6743  0.1306
    2SAPS   H2X  169   6.952   0.822  10.131  0.3363 -0.6638  0.9285
    2SAPS   H2Y  170   6.798   0.874  10.059  1.2983 -1.3679 -1.2149
    2SAPS   C23  171   6.611   1.510  10.215 -0.6168 -0.3632 -0.0520
    2SAPS   H3R  172   6.654   1.586  10.284  0.4744 -1.0117  0.0038
    2SAPS   H3S  173   6.514   1.549  10.178  0.1072  0.0216 -1.6431
    2SAPS   C24  174   6.698   1.522  10.094 -0.4420  0.4544  0.4167
    2SAPS   H4R  175   6.806   1.515  10.118 -0.6816  0.4955  1.5652
    2SAPS   H4S  176   6.693   1.630  10.068  0.9815  1.0388  2.3517
    2SAPS   C25  177   6.676   1.433   9.978 -0.5494 -0.5106 -0.5359
    2SAPS   H5R  178   6.583   1.460   9.927 -0.7023  3.3613  1.4167
    2SAPS   C26  179   6.758   1.334   9.935 -0.0913  0.3969 -0.3708
    2SAPS   H6R  180   6.720   1.284   9.844 -1.1037  1.0599 -0.3279
    2SAPS   C27  181   6.879   1.283  10.005  0.3951  0.4655  0.0488
    2SAPS   H7R  182   6.881   1.295  10.116 -0.3823 -0.8263  0.2222
    2SAPS   H7S  183   6.966   1.341   9.966  0.9343  0.5047  1.2408
    2SAPS   C28  184   6.916   1.146   9.964  0.3768  0.3865 -0.2191
    2SAPS   H8R  185   6.896   1.076  10.047 -2.5998  2.1459  0.6946
    2SAPS   C29  186   6.960   1.104   9.847 -0.3925  0.6389 -0.2737
    2SAPS   H9R  187   6.985   0.997   9.842  1.1486  1.0179 -2.0894
    2SAPS  C210  188   6.984   1.189   9.726 -0.1647  0.3073  0.2558
    2SAPS  H10R  189   6.969   1.299   9.732 -0.9813  0.1789  0.9576
    2SAPS  H10S  190   6.908   1.168   9.648 -0.9195 -0.1294  1.0809
    2SAPS  C211  191   7.125   1.163   9.668 -0.2181 -0.2686 -0.6729
    2SAPS  H11R  192   7.207   1.194   9.734 -1.3163 -0.2601  0.7367
    2SAPS  C212  193   7.159   1.092   9.556 -0.1102 -0.7851 -0.4599
    2SAPS  H12R  194   7.266   1.087   9.529  0.8234  0.7881  2.5512
    2SAPS  C213  195   7.065   1.043   9.449  0.0254 -0.7198  0.0133
    2SAPS  H13R  196   6.963   1.017   9.484 -0.5275 -1.1442 -1.8112
    2SAPS  H13S  197   7.101   0.952   9.396  0.5383  0.8638 -2.5350
    2SAPS  C214  198   7.054   1.156   9.346  0.9310  0.3465  0.5947
    2SAPS  H14R  199   6.998   1.244   9.381  1.1937  0.6253  0.3196
    2SAPS  C215  200   7.098   1.145   9.217 -0.4144  0.0287 -0.3760
    2SAPS  H15R  201   7.081   1.231   9.151  0.0489  1.5086  1.3636
    2SAPS  C216  202   7.171   1.019   9.160  0.2679  0.1505  0.3485
    2SAPS  H16R  203   7.133   0.920   9.196 -1.0916 -0.2106 -1.8933
    2SAPS  H16S  204   7.280   1.025   9.179  0.3056  0.3775  0.0552
    2SAPS  C217  205   7.144   1.010   9.004 -0.6265 -0.0796  0.2379
    2SAPS  H17R  206   7.192   1.096   8.952 -1.0750 -1.3960 -2.5363
    2SAPS  H17S  207   7.036   1.008   8.979 -0.9801 -0.9797  1.7492
    2SAPS  C218  208   7.206   0.875   8.955  0.1181 -0.3803 -0.5101
    2SAPS  H18R  209   7.175   0.858   8.849 -0.1423 -2.3516 -0.1477
    2SAPS  H18S  210   7.174   0.785   9.010  0.5640  0.1338  0.6236
    2SAPS  C219  211   7.360   0.865   8.958 -0.2965 -0.0330 -0.0614
    2SAPS  H19R  212   7.381   0.757   8.945  0.0815  0.0911 -0.5173
    2SAPS  H19S  213   7.401   0.896   9.057  1.4104 -1.4095 -0.2999
    2SAPS  C220  214   7.431   0.947   8.850 -0.0279  0.3459 -0.1056
    2SAPS  H20R  215   7.403   0.895   8.755  1.1839 -1.3071  0.4008
    2SAPS  H20S  216   7.541   0.935   8.846  0.3806  3.1553  0.6585
    2SAPS  H20T  217   7.412   1.056   8.854  1.1200  0.5200  1.5309
    2SAPS   C33  218   6.815   0.656  10.075  0.4593 -0.6521  0.3700
    2SAPS   H3X  219   6.708   0.627  10.076 -0.4003  1.9538 -2.1237
    2SAPS   H3Y  220   6.870   0.581  10.135  0.6799 -0.7481  0.0557
    2SAPS   C34  221   6.873   0.643   9.933  0.2437 -0.0970  0.1736
    2SAPS   H4X  222   6.841   0.541   9.906  1.3062 -0.3558 -0.1530
    2SAPS   H4Y  223   6.983   0.638   9.916 -0.0735 -3.3147 -1.5746
    2SAPS   C35  224   6.782   0.727   9.833 -0.0937 -0.0137  0.0101
    2SAPS   H5X  225   6.820   0.831   9.833 -0.8448  0.2656  0.7377
    2SAPS   H5Y  226   6.681   0.726   9.879  0.3228  0.5431  0.9467
    2SAPS   C36  227   6.783   0.658   9.701  0.6220 -0.1322  0.1220
    2SAPS   H6X  228   6.693   0.594   9.687  0.2981  0.8810 -3.3487
    2SAPS   H6Y  229   6.867   0.587   9.690  0.7264 -0.6013  2.9863
    2SAPS   C37  230   6.801   0.767   9.593 -0.6404 -0.0019 -0.1532
    2SAPS   H7X  231   6.901   0.815   9.601 -1.3774  2.0550 -2.0969
    2SAPS   H7Y  232   6.714   0.837   9.596 -0.0539  0.7401 -0.0135
    2SAPS   C38  233   6.810   0.687   9.460  0.1944  0.2953 -0.0608
    2SAPS   H8X  234   6.716   0.629   9.447 -0.9024  1.8583  0.5902
    2SAPS   H8Y  235   6.892   0.612   9.469 -0.8621 -1.0268 -1.0321
    2SAPS   C39  236   6.841   0.774   9.339  0.8577  0.1680 -0.1148
    2SAPS   H9X  237   6.950   0.785   9.319  0.3661 -0.5057 -4.1522
    2SAPS   H9Y  238   6.800   0.876   9.351  2.7295  1.3133 -2.5280
    2SAPS  C310  239   6.792   0.713   9.207 -0.1732  0.0991  0.0855
    2SAPS  H10X  240   6.708   0.780   9.179  0.6100  1.5771  1.1542
    2SAPS  H10Y  241   6.754   0.609   9.213 -1.9696  0.7736  0.9520
    2SAPS  C311  242   6.904   0.721   9.096  0.7285 -0.3785  0.2421
    2SAPS  H11X  243   7.002   0.676   9.122 -0.5043 -2.0251  2.2987
    2SAPS  H11Y  244   6.926   0.829   9.085 -0.3047 -0.0334  1.3713
    2SAPS  C312  245   6.850   0.651   8.960  0.0679 -0.1707  0.3563
    2SAPS  H12X  246   6.742   0.675   8.948  0.1057  0.3994  1.0556
    2SAPS  H12Y  247   6.882   0.545   8.963 -1.0134 -0.4975  0.5789
    2SAPS  C313  248   6.914   0.720   8.839 -0.0000  0.9084 -0.4709
    2SAPS  H13X  249   7.020   0.689   8.826 -0.4191 -0.1996 -1.4170
    2SAPS  H13Y  250   6.915   0.831   8.853 -0.2344  0.6536  1.9426
    2SAPS  C314  251   6.838   0.689   8.704 -0.7695  0.1741 -0.3550
    2SAPS  H14X  252   6.730   0.706   8.724  0.0803  3.5158  2.4361
    2SAPS  H14Y  253   6.838   0.581   8.678 -3.6088  0.1815 -0.7359
    2SAPS  C315  254   6.900   0.767   8.591 -0.5818  0.1318  0.0699
    2SAPS  H15X  255   6.991   0.718   8.551 -0.5878 -1.1963  1.5904
    2SAPS  H15Y  256   6.929   0.873   8.610 -0.3917  0.4939 -1.9947
    2SAPS  C316  257   6.815   0.746   8.468 -0.0622  0.7821 -0.3675
    2SAPS  H16X  258   6.793   0.639   8.446 -0.2495  0.0417  2.9022
    2SAPS  H16Y  259   6.876   0.791   8.386  1.5410  0.4873  0.6267
    2SAPS  C317  260   6.690   0.835   8.469  0.3702 -0.3991 -0.5937
    2SAPS  H17X  261   6.712   0.935   8.513  0.0391 -1.1441  1.3737
    2SAPS  H17Y  262   6.617   0.782   8.534 -1.1930  1.8870 -0.4000
    2SAPS  C318  263   6.618   0.843   8.340 -0.6053 -1.3035 -0.3614
    2SAPS  H18X  264   6.581   0.746   8.301  1.2732 -1.6919 -1.2697
    2SAPS  H18Y  265   6.674   0.889   8.256 -0.9308  1.6468  0.9041
    2SAPS  H18Z  266   6.535   0.917   8.340 -1.1741 -1.9153 -1.3128
    3SAPS     N  267   6.715   3.396  10.732  0.1132  0.3580  0.5176
    3SAPS   HN1  268   6.814   3.362  10.730 -0.5104 -1.5959 -1.1976
    3SAPS   HN2  269   6.664   3.310  10.703  0.7882 -0.3783  1.4503
    3SAPS   HN3  270   6.702   3.472  10.662  1.6936  0.9416  0.8116
    3SAPS   C12  271   6.686   3.447  10.863  0.5757 -0.4182  0.4330
    3SAPS  H12A  272   6.584   3.482  10.865  1.1832  1.6648 -1.2003
    3SAPS   C13  273   6.691   3.346  10.973 -0.3142 -0.3383 -0.5277
    3SAPS  O13A  274   6.665   3.224  10.959  0.1807 -0.5133  0.3575
    3SAPS  O13B  275   6.674   3.399  11.087  0.4879 -0.0388 -0.2448
    3SAPS   C11  276   6.795   3.554  10.876 -0.5571 -0.2181 -0.3435
    3SAPS  H11A  277   6.767   3.614  10.965 -0.1640 -0.5038 -0.0197
    3SAPS  H11B  278   6.800   3.630  10.795 -0.7209 -1.3548 -1.4564
    3SAPS     P  279   7.057   3.560  10.949 -0.1043 -0.1989 -0.0004
    3SAPS   O13  280   7.021   3.591  11.089 -0.6807 -0.6011 -0.4009
    3SAPS   O14  281   7.170   3.459  10.936 -0.2630 -0.6715 -0.7523
    3SAPS   O12  282   6.927   3.495  10.889 -0.1305  0.7187  0.4829
    3SAPS   O11  283   7.087   3.703  10.885 -0.5799  0.7240  0.5489
    3SAPS    C1  284   7.110   3.739  10.747 -0.1167  0.7429 -0.9994
    3SAPS    HA  285   7.216   3.765  10.725  0.2735  0.5566  0.5557
    3SAPS    HB  286   7.075   3.653  10.686  0.4335  0.9446 -1.6150
    3SAPS    C2  287   7.024   3.856  10.705 -0.0498  0.1136  0.3395
    3SAPS    HS  288   6.915   3.831  10.707 -0.1785  0.6254 -0.0016
    3SAPS   O21  289   7.056   3.899  10.570 -0.2673  0.0928 -0.0860
    3SAPS   C21  290   7.032   3.813  10.470 -0.0692 -0.6384 -0.4905
    3SAPS   O22  291   6.967   3.712  10.478 -0.3992 -0.3303  0.1692
    3SAPS   C22  292   7.090   3.865  10.339  0.0353  0.0319 -0.4332
    3SAPS   H2R  293   7.150   3.954  10.367  0.0722 -0.4246  1.0360
    3SAPS   H2S  294   7.168   3.793  10.303  1.2664  0.6813  0.8396
    3SAPS    C3  295   7.030   3.976  10.796 -0.4009 -0.1757 -0.2043
    3SAPS    HX  296   7.136   3.981  10.827 -0.1438 -2.9259 -0.4566
    3SAPS    HY  297   6.966   3.950  10.884 -0.8402 -0.8088 -0.6986
    3SAPS   O31  298   6.974   4.100  10.738 -0.4766  0.0489  0.2758
    3SAPS   C31  299   6.841   4.100  10.742 -0.6391 -0.1948  0.9883
    3SAPS   O32  300   6.769   4.035  10.813 -0.3697  0.4628  0.7026
    3SAPS   C32  301   6.782   4.204  10.640 -0.2205 -0.0893 -0.0535
    3SAPS   H2X  302   6.849   4.292  10.650 -1.1607  0.6941 -0.5125
    3SAPS   H2Y  303   6.680   4.230  10.673  0.0201 -1.1951  1.7119
    3SAPS   C23  304   6.989   3.900  10.232 -0.3061  0.3193  0.4163
    3SAPS   H3R  305   6.912   3.968  10.274  2.1073  3.7921 -0.2666
    3SAPS   H3S  306   6.937   3.807  10.203  1.6389 -0.5174 -0.5886
    3SAPS   C24  307   7.055   3.976  10.110  0.3744 -0.2927  0.1933
    3SAPS   H4R  308   7.114   4.067  10.132  0.8390 -1.0433  2.2628
    3SAPS   H4S  309   6.971   4.018  10.051 -1.5082  0.6140  3.2921
    3SAPS   C25  310   7.124   3.883  10.020  0.6443 -0.2973 -0.9296
    3SAPS   H5R  311   7.097   3.780  10.051 -1.3749  0.2786 -0.6309
    3SAPS   C26  312   7.201   3.916   9.917 -0.5174  0.0832 -0.4124
    3SAPS   H6R  313   7.235   3.826   9.863 -0.4883 -1.8043  2.5312
    3SAPS   C27  314   7.253   4.047   9.867  0.6189  0.1104 -0.2683
    3SAPS   H7R  315   7.362   4.029   9.863  0.5850 -0.9573  2.0669
    3SAPS   H7S  316   7.223   4.132   9.932  0.7208 -0.2381  0.2496
    3SAPS   C28  317   7.208   4.069   9.719  0.9301  0.5096 -1.1026
    3SAPS   H8R  318   7.099   4.079   9.709  0.4617 -2.1946  0.2674
    3SAPS   C29  319   7.281   4.077   9.609 -0.2168  0.0843  0.1217
    3SAPS   H9R  320   7.232   4.093   9.512  1.2568  1.0140 -0.5061
    3SAPS  C210  321   7.429   4.068   9.591  0.4359  0.3924  0.2540
    3SAPS  H10R  322   7.455   3.975   9.536 -0.8006  0.7212 -0.9562
    3SAPS  H10S  323   7.486   4.048   9.684  1.1150 -0.8504 -0.4068
    3SAPS  C211  324   7.482   4.191   9.529  0.3216  0.6147  0.1491
    3SAPS  H11R  325   7.493   4.280   9.593  0.1284  2.7037 -2.5490
    3SAPS  C212  326   7.519   4.207   9.401  0.0571  0.1000 -0.1141
    3SAPS  H12R  327   7.549   4.309   9.370 -0.8527  0.5548  0.4710
    3SAPS  C213  328   7.504   4.107   9.286  0.2229 -0.0004 -0.6664
    3SAPS  H13R  329   7.528   4.007   9.328  0.2813  0.3956  0.2686
    3SAPS  H13S  330   7.594   4.099   9.221  1.7572 -2.7314  1.5787
    3SAPS  C214  331   7.367   4.110   9.218 -0.4396 -0.0503  1.3031
    3SAPS  H14R  332   7.331   4.201   9.167 -0.8309 -1.3804 -0.8887
    3SAPS  C215  333   7.287   4.007   9.195  0.0817  0.6665 -0.2208
    3SAPS  H15R  334   7.185   4.020   9.156 -0.8890 -1.1300  1.5243
    3SAPS  C216  335   7.324   3.872   9.252  0.6597  0.4198 -0.1664
    3SAPS  H16R  336   7.296   3.871   9.359  0.9612 -0.0593 -0.0874
    3SAPS  H16S  337   7.432   3.847   9.246  0.8300  1.3132 -1.1356
    3SAPS  C217  338   7.228   3.770   9.196  0.8688  0.1510  0.4977
    3SAPS  H17R  339   7.125   3.794   9.231  0.2207 -3.0510  1.0530
    3SAPS  H17S  340   7.256   3.666   9.224 -0.0595 -0.4003 -0.5078
    3SAPS  C218  341   7.231   3.756   9.036  0.0224  0.4481  0.3383
    3SAPS  H18R  342   7.340   3.756   9.013  0.7038 -0.2427  3.1091
    3SAPS  H18S  343   7.185   3.838   8.978 -0.2659 -0.4697 -0.7754
    3SAPS  C219  344   7.161   3.637   8.982  0.2151  0.2984 -0.5871
    3SAPS  H19R  345   7.055   3.630   9.014  0.1296 -0.4206 -1.0113
    3SAPS  H19S  346   7.214   3.553   9.030  1.4070  2.2425  1.7024
    3SAPS  C220  347   7.168   3.620   8.830  0.1309 -0.1171  0.5300
    3SAPS  H20R  348   7.272   3.637   8.797 -0.3057  2.9856  0.4323
    3SAPS  H20S  349   7.106   3.696   8.776  3.0970  1.0062 -1.5492
    3SAPS  H20T  350   7.116   3.528   8.796 -0.2260 -0.2239  1.3467
    3SAPS   C33  351   6.787   4.147  10.491 -0.3909  0.3103  0.0113
    3SAPS   H3X  352   6.714   4.064  10.485 -0.8745  0.6758  0.6598
    3SAPS   H3Y  353   6.893   4.118  10.471  0.1933 -1.0927  4.1739
    3SAPS   C34  354   6.752   4.244  10.379 -0.1597  0.1227 -0.1346
    3SAPS   H4X  355   6.814   4.334  10.393 -0.1676  0.1948 -0.5433
    3SAPS   H4Y  356   6.645   4.273  10.379 -0.5809 -0.9902  3.4155
    3SAPS   C35  357   6.785   4.195  10.240 -0.7038  0.7965 -0.3175
    3SAPS   H5X  358   6.728   4.103  10.214  1.5739 -0.3844 -1.5381
    3SAPS   H5Y  359   6.895   4.179  10.230 -0.4216  1.8887  0.8522
    3SAPS   C36  360   6.743   4.291  10.126  0.0536 -0.5179 -0.2818
    3SAPS   H6X  361   6.778   4.395  10.144  1.0464 -0.8792 -0.0696
    3SAPS   H6Y  362   6.632   4.283  10.123  0.0339  0.0941 -1.9328
    3SAPS   C37  363   6.808   4.244   9.994  0.3097  0.3125  0.3856
    3SAPS   H7X  364   6.766   4.151   9.949  0.6398  0.2024  0.3032
    3SAPS   H7Y  365   6.913   4.222  10.023 -0.2887 -2.5005  0.6716
    3SAPS   C38  366   6.806   4.345   9.885 -0.1820 -0.5472  0.3466
    3SAPS   H8X  367   6.848   4.442   9.920 -1.8593  0.3241  0.0893
    3SAPS   H8Y  368   6.705   4.375   9.847 -0.4970 -0.7662  0.9959
    3SAPS   C39  369   6.879   4.300   9.759 -0.3422  0.3184  0.4428
    3SAPS   H9X  370   6.818   4.212   9.730  0.3026  0.7766 -2.5812
    3SAPS   H9Y  371   6.977   4.258   9.792  0.1164 -0.6571 -1.9796
    3SAPS  C310  372   6.896   4.400   9.643  0.5482 -0.4291 -0.0506
    3SAPS  H10X  373   6.956   4.486   9.679  1.1227 -1.4231  1.4403
    3SAPS  H10Y  374   6.795   4.429   9.606  0.9573 -1.2896 -1.9507
    3SAPS  C311  375   6.969   4.341   9.523  0.6604  0.0655 -0.6594
    3SAPS  H11X  376   6.896   4.292   9.455  0.4930 -1.2314  0.4393
    3SAPS  H11Y  377   7.038   4.260   9.553 -0.0474  0.0938  1.1488
    3SAPS  C312  378   7.056   4.441   9.459  0.5831  0.1980 -0.3145
    3SAPS  H12X  379   7.124   4.481   9.537 -0.3158 -1.5167  1.4287
    3SAPS  H12Y  380   6.991   4.528   9.433 -0.5582  0.9985  4.2798
    3SAPS  C313  381   7.114   4.384   9.331  0.4965  0.4152  0.1185
    3SAPS  H13X  382   7.025   4.362   9.269 -0.7239 -1.4328  2.3896
    3SAPS  H13Y  383   7.170   4.296   9.367  0.4458 -0.6369 -2.2188
    3SAPS  C314  384   7.222   4.476   9.270  0.5008 -0.0670 -0.2906
    3SAPS  H14X  385   7.263   4.417   9.184 -2.1264 -0.3039 -1.4855
    3SAPS  H14Y  386   7.302   4.504   9.341  0.8446 -0.4216 -0.5300
    3SAPS  C315  387   7.151   4.593   9.203 -0.4487  0.0717 -0.6347
    3SAPS  H15X  388   7.228   4.668   9.176 -0.9838  1.3442  1.2181
    3SAPS  H15Y  389   7.087   4.638   9.282 -1.9120 -0.9107 -1.2121
    3SAPS  C316  390   7.069   4.554   9.077  0.1523  0.6414  0.7417
    3SAPS  H16X  391   6.972   4.519   9.119 -0.1254 -1.4708 -1.4277
    3SAPS  H16Y  392   7.114   4.474   9.015  0.0236  1.6139 -0.6516
    3SAPS  C317  393   7.030   4.661   8.974  0.1193 -0.2319 -0.4307
    3SAPS  H17X  394   6.973   4.743   9.022  0.4350  0.3301 -0.9900
    3SAPS  H17Y  395   6.966   4.628   8.889  1.5824  1.6537 -2.3877
    3SAPS  C318  396   7.150   4.715   8.897 -0.0115 -0.0363 -0.4053
    3SAPS  H18X  397   7.139   4.815   8.850  1.3112  0.5252  0.4026
    3SAPS  H18Y  398   7.180   4.650   8.811 -1.7113 -1.3085 -0.0794
    3SAPS  H18Z  399   7.238   4.725   8.965  0.6064 -1.0320 -1.0382
    4SAPS     N  400   1.310   2.217  10.974  0.6419  0.2480 -0.2827
    4SAPS   HN1  401   1.281   2.244  11.070  1.9111  0.8753 -0.0550
    4SAPS   HN2  402   1.315   2.298  10.909  0.3019  0.0861 -0.5106
    4SAPS   HN3  403   1.230   2.166  10.931 -2.1570  1.1290  3.3745
    4SAPS   C12  404   1.440   2.142  10.981  0.7865  0.4349  0.2898
    4SAPS  H12A  405   1.514   2.204  11.028 -0.3567 -0.4970  3.5869
    4SAPS   C13  406   1.432   2.008  11.067  0.0130 -0.6396  0.0538
    4SAPS  O13A  407   1.330   1.989  11.137  0.0352 -0.6157 -0.6081
    4SAPS  O13B  408   1.534   1.936  11.083 -0.5219  0.2544 -0.2832
    4SAPS   C11  409   1.483   2.103  10.839  0.3384  0.5782  0.3863
    4SAPS  H11A  410   1.418   2.030  10.786  2.0174 -0.4122 -0.3780
    4SAPS  H11B  411   1.589   2.070  10.838 -0.1998 -1.3193  1.3616
    4SAPS     P  412   1.490   2.228  10.611 -0.2159  0.0911 -0.2071
    4SAPS   O13  413   1.540   2.361  10.563 -0.2589 -0.2864  0.2915
    4SAPS   O14  414   1.573   2.110  10.559  0.2648 -0.0690  0.2166
    4SAPS   O12  415   1.484   2.228  10.762  0.4684 -0.6925 -0.2539
    4SAPS   O11  416   1.332   2.224  10.593 -0.3085  0.7345 -0.4071
    4SAPS    C1  417   1.275   2.111  10.531  0.6313 -0.2339  0.4232
    4SAPS    HA  418   1.310   2.012  10.567 -0.9270 -0.7608  0.5551
    4SAPS    HB  419   1.169   2.108  10.566  0.1676  0.0428 -0.9089
    4SAPS    C2  420   1.287   2.116  10.376  0.4525  0.4987  0.4467
    4SAPS    HS  421   1.210   2.044  10.339  0.0997 -0.0644  2.1634
    4SAPS   O21  422   1.418   2.070  10.331  0.0686  0.6614  0.1382
    4SAPS   C21  423   1.430   1.936  10.337 -0.7408 -0.2260  0.5602
    4SAPS   O22  424   1.349   1.862  10.384  0.1569  0.5937  0.7880
    4SAPS   C22  425   1.561   1.890  10.270 -0.9206 -0.7426  0.1108
    4SAPS   H2R  426   1.611   1.985  10.241 -0.2107 -0.7234  1.3263
    4SAPS   H2S  427   1.633   1.844  10.341 -1.3060  0.1186  1.0882
    4SAPS    C3  428   1.258   2.257  10.309  0.3153 -0.4623 -0.2110
    4SAPS    HX  429   1.322   2.337  10.354 -0.3023 -0.5324  0.8249
    4SAPS    HY  430   1.156   2.288  10.342  0.8487  0.3612  0.7511
    4SAPS   O31  431   1.265   2.256  10.163 -0.2884  0.0351  0.0602
    4SAPS   C31  432   1.377   2.303  10.112  0.5953  0.0074 -0.1191
    4SAPS   O32  433   1.477   2.338  10.177  0.6253 -0.1415  0.3540
    4SAPS   C32  434   1.347   2.312   9.962 -0.3180  0.4072 -0.1426
    4SAPS   H2X  435   1.244   2.350   9.943 -1.3138 -1.4903  1.1745
    4SAPS   H2Y  436   1.330   2.209   9.923 -1.9188  0.9001 -0.8280
    4SAPS   C23  437   1.539   1.790  10.148 -0.7060  0.4763 -0.1231
    4SAPS   H3R  438   1.482   1.702  10.184  0.8889 -0.0220  1.3203
    4SAPS   H3S  439   1.637   1.742  10.130 -0.5208  1.2712 -1.3019
    4SAPS   C24  440   1.476   1.860  10.027 -0.3389 -0.3457  0.3438
    4SAPS   H4R  441   1.528   1.957  10.010 -0.1444 -0.1654  1.7896
    4SAPS   H4S  442   1.374   1.904  10.042  0.8663  2.0841  2.2762
    4SAPS   C25  443   1.474   1.773   9.904  0.1391 -0.0455  1.4885
    4SAPS   H5R  444   1.482   1.669   9.940  1.8178 -0.1404  0.9275
    4SAPS   C26  445   1.481   1.804   9.768 -0.4266 -0.3538 -0.5038
    4SAPS   H6R  446   1.469   1.720   9.697 -3.8960 -0.0342 -0.4532
    4SAPS   C27  447   1.472   1.941   9.702 -0.2033 -0.1262 -0.4064
    4SAPS   H7R  448   1.539   1.948   9.614  0.6745  1.1549  0.3407
    4SAPS   H7S  449   1.512   2.020   9.768 -0.6231 -0.4627  0.2652
    4SAPS   C28  450   1.329   1.961   9.674  0.0215 -0.2243 -0.2723
    4SAPS   H8R  451   1.258   1.955   9.758 -0.1539  0.0140 -0.3988
    4SAPS   C29  452   1.271   1.973   9.554  0.1328  0.2646  0.0932
    4SAPS   H9R  453   1.162   1.982   9.547  0.2309  0.4837 -1.5111
    4SAPS  C210  454   1.341   1.975   9.413 -0.4549 -0.0579 -0.2688
    4SAPS  H10R  455   1.302   1.895   9.346  0.0190  1.2609 -2.1842
    4SAPS  H10S  456   1.447   1.950   9.433 -0.9964 -1.9070  0.5315
    4SAPS  C211  457   1.342   2.108   9.345 -0.0722  0.3287  0.5921
    4SAPS  H11R  458   1.295   2.196   9.391 -0.4661  0.4731 -0.0671
    4SAPS  C212  459   1.374   2.129   9.216 -0.5663  0.0370 -0.0313
    4SAPS  H12R  460   1.362   2.234   9.185 -0.4903  0.3331  0.8833
    4SAPS  C213  461   1.398   2.026   9.105 -0.3208 -0.0589  0.8443
    4SAPS  H13R  462   1.413   1.924   9.147  4.2369 -0.4223 -1.0836
    4SAPS  H13S  463   1.492   2.060   9.056 -1.6908  1.1633 -1.0560
    4SAPS  C214  464   1.276   2.042   9.012 -0.1564  0.2115  0.1722
    4SAPS  H14R  465   1.183   1.995   9.047  0.6496 -0.3992  1.5590
    4SAPS  C215  466   1.277   2.096   8.887  0.5937 -0.3858  0.9046
    4SAPS  H15R  467   1.182   2.097   8.830  2.3315 -1.1651 -2.2706
    4SAPS  C216  468   1.389   2.168   8.809 -0.0780  0.3644  0.6818
    4SAPS  H16R  469   1.477   2.185   8.875 -1.4796  2.5883  2.1280
    4SAPS  H16S  470   1.358   2.273   8.788  1.0924  1.2789  3.0376
    4SAPS  C217  471   1.436   2.099   8.682  0.5076  0.3344 -0.5604
    4SAPS  H17R  472   1.453   1.992   8.706  0.4960  1.0113  2.9779
    4SAPS  H17S  473   1.534   2.138   8.647  1.4827 -0.6094  1.0169
    4SAPS  C218  474   1.336   2.090   8.566 -0.3248 -0.3229  0.3354
    4SAPS  H18R  475   1.316   2.185   8.512 -2.3530 -1.4523 -1.0341
    4SAPS  H18S  476   1.242   2.048   8.606  0.1344 -1.6969  0.0111
    4SAPS  C219  477   1.394   1.993   8.469 -0.3556  0.4754 -0.1726
    4SAPS  H19R  478   1.417   1.902   8.529  2.6064  0.1759 -1.5801
    4SAPS  H19S  479   1.492   2.032   8.434  0.1886 -0.4933  0.2434
    4SAPS  C220  480   1.303   1.952   8.354 -0.1442  0.7924 -0.4141
    4SAPS  H20R  481   1.352   1.876   8.290 -2.0090  1.1748 -2.4327
    4SAPS  H20S  482   1.270   2.032   8.284 -0.9005  0.8269 -0.0280
    4SAPS  H20T  483   1.219   1.894   8.397  0.5879 -0.2108 -0.3105
    4SAPS   C33  484   1.456   2.394   9.887  0.0398 -0.8263  0.4077
    4SAPS   H3X  485   1.556   2.363   9.926  0.1105 -0.6332  0.3813
    4SAPS   H3Y  486   1.448   2.503   9.906  0.2484 -0.8457  0.6102
    4SAPS   C34  487   1.435   2.365   9.740 -0.2976 -0.1109  0.5466
    4SAPS   H4X  488   1.329   2.362   9.707 -0.5279  0.1201  1.2516
    4SAPS   H4Y  489   1.452   2.256   9.732  0.6548  0.0341  0.4819
    4SAPS   C35  490   1.498   2.468   9.646 -0.4094 -0.1178 -0.4749
    4SAPS   H5X  491   1.603   2.433   9.636  0.1453  1.4478 -0.2241
    4SAPS   H5Y  492   1.511   2.566   9.695 -2.8618  0.4138 -0.7520
    4SAPS   C36  493   1.442   2.472   9.503 -0.1100 -0.3202  0.3338
    4SAPS   H6X  494   1.343   2.523   9.503 -0.9809 -1.9495 -0.2603
    4SAPS   H6Y  495   1.428   2.371   9.459 -1.0810  0.3568 -1.0178
    4SAPS   C37  496   1.534   2.549   9.405 -0.1421 -1.0916 -0.3195
    4SAPS   H7X  497   1.635   2.505   9.418  1.1337  2.1079  2.1636
    4SAPS   H7Y  498   1.548   2.649   9.451  0.3240 -0.5749 -1.5605
    4SAPS   C38  499   1.472   2.557   9.266  0.1340 -0.5794 -0.6636
    4SAPS   H8X  500   1.387   2.627   9.285  2.5988  1.9789  2.1261
    4SAPS   H8Y  501   1.430   2.456   9.251  1.1532 -0.5780 -4.4646
    4SAPS   C39  502   1.569   2.587   9.149  0.5371  0.0142  0.2346
    4SAPS   H9X  503   1.616   2.486   9.145 -2.5682 -1.5909  0.8592
    4SAPS   H9Y  504   1.639   2.667   9.181  0.1356  0.3014  0.4046
    4SAPS  C310  505   1.491   2.620   9.029  0.1974 -0.0910 -0.1878
    4SAPS  H10X  506   1.435   2.714   9.049  0.9776  0.3152  0.1073
    4SAPS  H10Y  507   1.414   2.541   9.014 -1.1980  1.3177 -0.7998
    4SAPS  C311  508   1.578   2.643   8.904 -0.6721  0.1973 -0.0617
    4SAPS  H11X  509   1.643   2.554   8.897  2.1706  2.2293 -1.3127
    4SAPS  H11Y  510   1.642   2.733   8.918 -0.3858 -0.3567  2.8429
    4SAPS  C312  511   1.480   2.647   8.779 -0.5507  0.1784  0.2994
    4SAPS  H12X  512   1.406   2.565   8.795  0.4488 -0.3747  2.6634
    4SAPS  H12Y  513   1.532   2.616   8.687 -1.5233 -2.6747  0.6136
    4SAPS  C313  514   1.429   2.791   8.767 -0.0289 -0.4178 -0.2154
    4SAPS  H13X  515   1.502   2.859   8.813 -1.1620 -1.1257  2.8682
    4SAPS  H13Y  516   1.336   2.809   8.825  0.9253 -0.1379  1.2583
    4SAPS  C314  517   1.399   2.820   8.617 -0.1270  0.6059  0.1005
    4SAPS  H14X  518   1.312   2.763   8.578  0.1430  1.3865 -1.7404
    4SAPS  H14Y  519   1.494   2.801   8.563 -0.7457 -2.2041 -0.1311
    4SAPS  C315  520   1.346   2.964   8.602 -0.5357 -0.0099 -0.3450
    4SAPS  H15X  521   1.436   3.029   8.595 -0.0478 -0.8767 -3.1534
    4SAPS  H15Y  522   1.313   3.003   8.701  1.7288  0.1646  0.4089
    4SAPS  C316  523   1.254   2.994   8.487  0.3124  0.1875  0.0773
    4SAPS  H16X  524   1.161   2.934   8.493 -0.0431  0.6346 -0.6893
    4SAPS  H16Y  525   1.302   2.968   8.390 -0.8551 -0.2633 -0.3952
    4SAPS  C317  526   1.197   3.137   8.485  0.0657 -0.6037 -0.4246
    4SAPS  H17X  527   1.289   3.197   8.505  0.3213 -0.8461 -0.8537
    4SAPS  H17Y  528   1.136   3.152   8.576  2.3121  1.5063  0.8466
    4SAPS  C318  529   1.130   3.177   8.361  0.3842  0.6354  0.6095
    4SAPS  H18X  530   1.022   3.151   8.358  1.2973 -3.7271 -1.2532
    4SAPS  H18Y  531   1.173   3.127   8.272  2.3319 -0.3682  2.0357
    4SAPS  H18Z  532   1.131   3.288   8.359 -0.4586  0.6458 -0.4205
    5SAPS     N  533   4.925   4.141  10.804 -0.2168  0.6745 -0.2334
    5SAPS   HN1  534   5.023   4.173  10.811  0.7191 -1.9841 -0.0774
    5SAPS   HN2  535   4.902   4.094  10.714 -0.2203 -0.5478  0.3822
    5SAPS   HN3  536   4.852   4.212  10.825 -1.5869 -0.5750 -0.5621
    5SAPS   C12  537   4.897   4.044  10.911  0.2774 -0.1990  0.1214
    5SAPS  H12A  538   4.927   4.084  11.007 -0.2256 -0.9611  0.6087
    5SAPS   C13  539   4.737   4.020  10.921  0.1600 -0.8032  0.2802
    5SAPS  O13A  540   4.656   4.090  10.850 -0.5241  0.4486  0.4420
    5SAPS  O13B  541   4.701   3.945  11.012 -0.4186  0.2049 -0.3568
    5SAPS   C11  542   4.973   3.915  10.881 -0.7027 -0.3253 -0.7975
    5SAPS  H11A  543   4.932   3.851  10.800  2.0588  0.0430 -2.6040
    5SAPS  H11B  544   4.978   3.858  10.977 -0.6344  1.9802  0.6559
    5SAPS     P  545   5.237   3.872  10.869 -0.3439  0.0940 -0.1736
    5SAPS   O13  546   5.352   3.959  10.836  0.4941  0.2354 -0.0604
    5SAPS   O14  547   5.231   3.821  11.010  0.3125 -0.0959  0.0309
    5SAPS   O12  548   5.108   3.964  10.852  0.5045  0.2859  0.4151
    5SAPS   O11  549   5.212   3.765  10.766 -0.2359  0.1908 -0.8812
    5SAPS    C1  550   5.283   3.639  10.767  0.3267 -0.0894 -0.5945
    5SAPS    HA  551   5.285   3.599  10.871 -1.7969  2.2894  0.4612
    5SAPS    HB  552   5.236   3.562  10.702 -0.6232  0.8099 -0.9959
    5SAPS    C2  553   5.430   3.644  10.712 -0.5601  1.1332 -0.2270
    5SAPS    HS  554   5.489   3.677  10.800 -3.9925 -0.0151  2.7536
    5SAPS   O21  555   5.443   3.735  10.602 -0.0187  0.1020 -0.3843
    5SAPS   C21  556   5.574   3.766  10.570  0.1624 -0.1631 -0.2012
    5SAPS   O22  557   5.676   3.721  10.622  0.6870 -0.6892  0.1104
    5SAPS   C22  558   5.581   3.881  10.469 -0.2998  0.1025 -0.0991
    5SAPS   H2R  559   5.521   3.968  10.501  0.3768  1.1072 -1.4721
    5SAPS   H2S  560   5.687   3.915  10.461 -0.2182 -0.3062 -0.8613
    5SAPS    C3  561   5.479   3.500  10.676 -0.0700  0.1501 -0.8172
    5SAPS    HX  562   5.482   3.440  10.770  0.9370  0.7838 -0.4383
    5SAPS    HY  563   5.586   3.494  10.647  1.1624  1.7865  2.8671
    5SAPS   O31  564   5.391   3.437  10.578 -0.8733  0.4946 -0.5611
    5SAPS   C31  565   5.430   3.437  10.447 -0.3056 -0.2074 -0.2775
    5SAPS   O32  566   5.529   3.502  10.411 -0.8089  0.3926 -0.0838
    5SAPS   C32  567   5.341   3.350  10.360 -0.6128 -0.2028 -0.4895
    5SAPS   H2X  568   5.237   3.368  10.394  0.0007  0.2751  1.2623
    5SAPS   H2Y  569   5.366   3.244  10.385 -0.4266  0.2438  1.3553
    5SAPS   C23  570   5.530   3.838  10.331 -0.3286  0.3302 -0.5907
    5SAPS   H3R  571   5.419   3.836  10.324 -0.2479 -1.5909 -2.4353
    5SAPS   H3S  572   5.564   3.734  10.311 -1.2120  0.0714 -0.7907
    5SAPS   C24  573   5.586   3.928  10.221  0.5248 -0.4716 -0.6757
    5SAPS   H4R  574   5.565   3.886  10.120 -2.1879  0.4459 -0.5782
    5SAPS   H4S  575   5.697   3.935  10.224  0.5755 -0.7344 -1.5653
    5SAPS   C25  576   5.537   4.067  10.236 -0.7408  0.6667 -0.2331
    5SAPS   H5R  577   5.596   4.122  10.312 -2.3384  1.3113  0.5767
    5SAPS   C26  578   5.429   4.128  10.176 -0.2832  0.2453 -1.0815
    5SAPS   H6R  579   5.416   4.235  10.196 -0.4565  0.4006 -1.9824
    5SAPS   C27  580   5.342   4.058  10.076 -0.1063  0.4353  0.2852
    5SAPS   H7R  581   5.389   3.968  10.030  2.7312  1.4257  1.0464
    5SAPS   H7S  582   5.331   4.123   9.987  1.6781 -0.8328 -0.9325
    5SAPS   C28  583   5.220   4.027  10.158 -0.3794  0.2164 -0.1601
    5SAPS   H8R  584   5.161   4.100  10.217 -0.5146 -0.5033  0.6202
    5SAPS   C29  585   5.159   3.906  10.155 -0.1367 -0.3891 -0.4970
    5SAPS   H9R  586   5.070   3.899  10.220 -0.4935 -1.9710 -1.1106
    5SAPS  C210  587   5.205   3.784  10.074 -0.0315 -0.7194  0.3513
    5SAPS  H10R  588   5.157   3.696  10.123  0.4783 -1.7178 -0.8763
    5SAPS  H10S  589   5.312   3.757  10.086  0.4746  0.5166 -1.0141
    5SAPS  C211  590   5.179   3.802   9.926 -0.4418  0.9546 -0.5872
    5SAPS  H11R  591   5.093   3.863   9.895  1.5590  3.0713 -2.4197
    5SAPS  C212  592   5.258   3.748   9.829  0.2819  0.2908  0.5229
    5SAPS  H12R  593   5.244   3.764   9.721  0.9871 -2.5831 -0.0824
    5SAPS  C213  594   5.387   3.670   9.849  0.2942 -0.2395  0.0871
    5SAPS  H13R  595   5.366   3.564   9.822  1.3411 -0.4043 -0.1184
    5SAPS  H13S  596   5.422   3.681   9.954  2.8247  0.0221 -0.7267
    5SAPS  C214  597   5.494   3.735   9.764  0.1545  0.4490  0.6073
    5SAPS  H14R  598   5.541   3.823   9.810 -0.6430  0.8169  0.7389
    5SAPS  C215  599   5.536   3.684   9.641  0.2960  0.2586 -0.7192
    5SAPS  H15R  600   5.611   3.743   9.587  0.4150  1.1993  0.4468
    5SAPS  C216  601   5.484   3.556   9.567  0.1141 -0.6828 -0.1246
    5SAPS  H16R  602   5.392   3.516   9.615  0.3811  0.1434  1.1119
    5SAPS  H16S  603   5.561   3.476   9.563  1.2469  0.4085 -1.5825
    5SAPS  C217  604   5.443   3.601   9.425  0.1604  0.2013 -0.6462
    5SAPS  H17R  605   5.357   3.671   9.429  0.0090  0.0135 -0.5906
    5SAPS  H17S  606   5.407   3.502   9.388 -0.3092 -1.5916  3.9540
    5SAPS  C218  607   5.553   3.665   9.334 -0.0606  0.6918 -0.2150
    5SAPS  H18R  608   5.585   3.769   9.359  1.1863  0.5777 -1.2246
    5SAPS  H18S  609   5.650   3.612   9.326  1.9657  4.1539 -0.7667
    5SAPS  C219  610   5.507   3.669   9.184  0.0101  0.1889 -0.4424
    5SAPS  H19R  611   5.401   3.702   9.184  0.1252  0.7583  2.4502
    5SAPS  H19S  612   5.501   3.563   9.150  1.7639  0.1714 -0.7515
    5SAPS  C220  613   5.597   3.741   9.085 -0.2109  0.3153 -0.4384
    5SAPS  H20R  614   5.572   3.724   8.979 -0.5520  0.5508 -0.3980
    5SAPS  H20S  615   5.704   3.730   9.111 -0.3009  0.4749  0.0136
    5SAPS  H20T  616   5.579   3.851   9.086 -2.0450  0.0677 -1.3926
    5SAPS   C33  617   5.360   3.374  10.212  0.0048  0.0105 -0.3417
    5SAPS   H3X  618   5.339   3.478  10.178  0.5004  0.5145  0.8188
    5SAPS   H3Y  619   5.281   3.311  10.165 -0.0470  1.4045 -2.2562
    5SAPS   C34  620   5.499   3.334  10.156  0.2466 -0.1397 -0.1549
    5SAPS   H4X  621   5.525   3.232  10.192  0.2233 -1.2748 -3.1090
    5SAPS   H4Y  622   5.584   3.397  10.192  0.3999  0.4785 -1.5513
    5SAPS   C35  623   5.508   3.340   9.998 -0.3021 -0.1632  0.1301
    5SAPS   H5X  624   5.613   3.351   9.966 -0.1981  1.1888  0.8538
    5SAPS   H5Y  625   5.453   3.430   9.963 -1.1263 -0.8005 -0.2508
    5SAPS   C36  626   5.439   3.227   9.916 -0.5334  0.3440 -0.5187
    5SAPS   H6X  627   5.334   3.236   9.948 -0.3445  2.7845 -0.3658
    5SAPS   H6Y  628   5.470   3.127   9.952 -1.3614  0.7394  1.3774
    5SAPS   C37  629   5.451   3.247   9.764 -0.8765  0.9655 -0.2440
    5SAPS   H7X  630   5.491   3.349   9.745 -0.4384  0.9852  0.7197
    5SAPS   H7Y  631   5.348   3.234   9.726 -0.7134  0.5163 -0.5452
    5SAPS   C38  632   5.539   3.147   9.684 -0.3167 -0.5693  0.6410
    5SAPS   H8X  633   5.504   3.048   9.722 -1.0900 -0.1193  1.1412
    5SAPS   H8Y  634   5.648   3.152   9.702 -0.2068  0.8389 -0.2545
    5SAPS   C39  635   5.514   3.172   9.544 -0.1228 -0.0645  0.1622
    5SAPS   H9X  636   5.531   3.280   9.522 -0.1770  0.5201  2.7076
    5SAPS   H9Y  637   5.407   3.152   9.522  0.2235 -1.1463 -0.5962
    5SAPS  C310  638   5.601   3.096   9.450  0.0102  0.3929  0.1666
    5SAPS  H10X  639   5.573   2.989   9.441  1.3642  0.1132 -0.9198
    5SAPS  H10Y  640   5.704   3.088   9.489  0.8615 -2.3360 -2.3426
    5SAPS  C311  641   5.626   3.162   9.307  0.6197  0.8818 -0.3757
    5SAPS  H11X  642   5.691   3.101   9.241 -1.3746  0.8197 -2.3816
    5SAPS  H11Y  643   5.681   3.256   9.325 -1.2515  1.5334  2.8173
    5SAPS  C312  644   5.492   3.175   9.236 -0.3998  0.0326 -0.7861
    5SAPS  H12X  645   5.421   3.228   9.303  1.0401  0.0445  0.8055
    5SAPS  H12Y  646   5.454   3.071   9.227  1.3486 -0.5780 -1.6493
    5SAPS  C313  647   5.516   3.224   9.095  0.4593 -0.4532 -0.3402
    5SAPS  H13X  648   5.569   3.147   9.035 -0.5567  0.2611 -2.2557
    5SAPS  H13Y  649   5.578   3.316   9.092 -0.9490  0.6067  1.4895
    5SAPS  C314  650   5.388   3.256   9.009 -0.4102  1.3456 -0.4074
    5SAPS  H14X  651   5.305   3.202   9.060 -1.3417  2.4270 -0.7391
    5SAPS  H14Y  652   5.417   3.214   8.911 -0.9088 -1.1202  0.4221
    5SAPS  C315  653   5.349   3.402   9.007 -0.1883  0.0258 -0.3278
    5SAPS  H15X  654   5.433   3.472   8.988  0.1984 -0.6143 -1.0445
    5SAPS  H15Y  655   5.313   3.415   9.111 -2.9681 -1.8675 -0.9201
    5SAPS  C316  656   5.224   3.428   8.911  0.4105  0.3755 -0.7151
    5SAPS  H16X  657   5.167   3.514   8.954 -0.7596 -1.5338  1.8100
    5SAPS  H16Y  658   5.154   3.343   8.902  0.1670  0.2944  1.3776
    5SAPS  C317  659   5.272   3.477   8.774 -0.2114  0.8366 -0.8818
    5SAPS  H17X  660   5.176   3.481   8.718 -1.4295  3.8944  1.1557
    5SAPS  H17Y  661   5.327   3.406   8.710 -0.3011 -1.6132  1.5653
    5SAPS  C318  662   5.331   3.620   8.771 -0.5399  0.3450  0.7621
    5SAPS  H18X  663   5.386   3.644   8.864  2.2562 -1.8720 -0.1823
    5SAPS  H18Y  664   5.251   3.697   8.764  0.7107  1.6861  0.6800
    5SAPS  H18Z  665   5.402   3.630   8.686  0.4515 -1.5154  1.3264
    6SAPS     N  666   6.523   2.461  10.713 -0.3676  0.4352  0.7861
    6SAPS   HN1  667   6.469   2.474  10.625  1.1279 -1.1256 -0.4383
    6SAPS   HN2  668   6.618   2.501  10.698 -0.1126 -0.6452 -0.7874
    6SAPS   HN3  669   6.523   2.357  10.719  2.8853 -0.0046 -2.7503
    6SAPS   C12  670   6.436   2.503  10.825  0.0681  0.0700  0.6221
    6SAPS  H12A  671   6.340   2.458  10.811  0.2687  0.3814 -2.4192
    6SAPS   C13  672   6.492   2.453  10.960 -0.8549  0.2860  0.3377
    6SAPS  O13A  673   6.614   2.407  10.962  0.0970 -0.7682 -0.4516
    6SAPS  O13B  674   6.428   2.463  11.065  0.2862 -0.0824 -0.2483
    6SAPS   C11  675   6.419   2.652  10.827 -0.2735 -0.2181 -0.2814
    6SAPS  H11A  676   6.517   2.705  10.834 -0.3716 -0.0872  0.0937
    6SAPS  H11B  677   6.360   2.675  10.918 -0.2599  0.3409 -0.4105
    6SAPS     P  678   6.208   2.716  10.689 -0.1811 -0.1771 -0.2482
    6SAPS   O13  679   6.140   2.600  10.755 -0.2977  0.1698 -0.0727
    6SAPS   O14  680   6.167   2.847  10.743  0.4234 -0.3091  0.2632
    6SAPS   O12  681   6.364   2.706  10.711 -0.6675  0.4642 -0.1267
    6SAPS   O11  682   6.184   2.721  10.542  0.0387  0.5902  0.0234
    6SAPS    C1  683   6.276   2.799  10.461 -0.0763 -0.3699  0.0239
    6SAPS    HA  684   6.293   2.902  10.499  0.0907  0.0471 -1.1244
    6SAPS    HB  685   6.378   2.756  10.457  0.2389  0.3180  0.5585
    6SAPS    C2  686   6.234   2.822  10.313 -0.4744  1.0512  0.5681
    6SAPS    HS  687   6.315   2.878  10.261  0.2917 -1.3891 -1.0522
    6SAPS   O21  688   6.116   2.906  10.297  0.3536  0.1935  0.1275
    6SAPS   C21  689   6.129   3.038  10.341 -0.7103 -0.2272  0.0340
    6SAPS   O22  690   6.241   3.094  10.350  0.7228  0.1868 -0.4756
    6SAPS   C22  691   5.990   3.107  10.363 -0.8402 -0.2956 -0.3227
    6SAPS   H2R  692   5.934   3.033  10.423  0.4115 -1.1842 -0.2061
    6SAPS   H2S  693   6.009   3.202  10.417  0.1070 -1.4517  1.4976
    6SAPS    C3  694   6.225   2.688  10.237  0.0122  0.3966 -0.5344
    6SAPS    HX  695   6.154   2.617  10.282  0.7454  1.5909  2.7642
    6SAPS    HY  696   6.322   2.634  10.249 -0.8117 -0.6487  1.7875
    6SAPS   O31  697   6.193   2.721  10.100  0.1037  0.1801  0.3941
    6SAPS   C31  698   6.287   2.719  10.005  0.3522 -0.1178  0.4082
    6SAPS   O32  699   6.406   2.697  10.015  0.3229 -0.3545 -0.4013
    6SAPS   C32  700   6.207   2.726   9.875  0.4695 -0.0422  0.2681
    6SAPS   H2X  701   6.126   2.801   9.889 -0.5397 -0.9941 -0.3057
    6SAPS   H2Y  702   6.152   2.630   9.870 -0.4605  0.4370  0.9998
    6SAPS   C23  703   5.926   3.140  10.225  0.7278  0.2075  0.5682
    6SAPS   H3R  704   5.822   3.165  10.254  0.2565  1.9457 -2.2498
    6SAPS   H3S  705   5.915   3.044  10.171  1.8686  0.3813 -0.0190
    6SAPS   C24  706   5.990   3.245  10.135 -0.0385 -0.0408 -0.0559
    6SAPS   H4R  707   6.100   3.228  10.133 -0.1977 -1.7839  2.0193
    6SAPS   H4S  708   5.959   3.345  10.174 -0.6712 -0.2062 -0.1320
    6SAPS   C25  709   5.927   3.222  10.003  0.0859 -0.1795  0.7363
    6SAPS   H5R  710   5.818   3.210  10.009  0.1188 -0.2210  1.2860
    6SAPS   C26  711   5.995   3.212   9.887  0.1690 -0.2768  0.1281
    6SAPS   H6R  712   5.941   3.189   9.794  0.2729 -0.7395  0.1809
    6SAPS   C27  713   6.146   3.228   9.868 -0.0935  0.0851 -0.5126
    6SAPS   H7R  714   6.188   3.125   9.870 -0.1709 -0.0053 -2.0409
    6SAPS   H7S  715   6.206   3.288   9.941  1.1197 -0.3649 -1.1122
    6SAPS   C28  716   6.171   3.303   9.736 -0.4012  0.6756  0.4022
    6SAPS   H8R  717   6.213   3.405   9.744  1.9428 -0.0470 -1.6825
    6SAPS   C29  718   6.172   3.247   9.611  0.0424 -0.1729 -0.1803
    6SAPS   H9R  719   6.199   3.315   9.529 -1.4601  2.5302  1.4073
    6SAPS  C210  720   6.138   3.107   9.571  0.0087 -0.3305 -1.1185
    6SAPS  H10R  721   6.135   3.052   9.667 -0.1447 -0.9355 -1.4676
    6SAPS  H10S  722   6.229   3.067   9.521  0.4229 -0.2936 -0.4138
    6SAPS  C211  723   6.009   3.077   9.500 -0.3245 -0.2984  1.0719
    6SAPS  H11R  724   5.922   3.063   9.565  0.3648  0.0226  2.0847
    6SAPS  C212  725   6.004   3.061   9.366 -0.0932 -0.3948  0.3892
    6SAPS  H12R  726   5.906   3.053   9.316 -0.9804 -0.4095  2.0535
    6SAPS  C213  727   6.127   3.080   9.274 -0.0423 -0.5253  0.1423
    6SAPS  H13R  728   6.216   3.042   9.328  0.4101  0.3882  0.0613
    6SAPS  H13S  729   6.135   3.190   9.258  0.6518 -0.6823 -0.6529
    6SAPS  C214  730   6.125   3.017   9.139 -0.2070  0.2848 -0.9254
    6SAPS  H14R  731   6.125   2.907   9.144  0.2488  0.2863 -0.8067
    6SAPS  C215  732   6.103   3.073   9.020 -0.3143  0.2384  0.1529
    6SAPS  H15R  733   6.097   3.015   8.927  0.7518 -0.4648  0.5005
    6SAPS  C216  734   6.089   3.220   8.996 -0.0622 -0.1455  0.6599
    6SAPS  H16R  735   6.160   3.242   8.913 -2.1245  0.2712 -1.0547
    6SAPS  H16S  736   6.117   3.286   9.082 -0.8483  0.4462  0.4690
    6SAPS  C217  737   5.958   3.279   8.950 -0.5072 -1.0078  0.3164
    6SAPS  H17R  738   5.968   3.389   8.947 -2.6848 -0.7649  0.1865
    6SAPS  H17S  739   5.886   3.250   9.030 -0.2876 -1.1365  0.4683
    6SAPS  C218  740   5.908   3.239   8.811  0.5126  0.0838 -0.1794
    6SAPS  H18R  741   5.869   3.135   8.810 -0.3143  0.3831 -1.4859
    6SAPS  H18S  742   5.992   3.246   8.739  1.9345 -0.4006  1.3950
    6SAPS  C219  743   5.797   3.334   8.757 -0.6568  0.6471 -0.0639
    6SAPS  H19R  744   5.797   3.331   8.646 -0.4984 -1.0605 -0.0379
    6SAPS  H19S  745   5.803   3.440   8.792  1.3908  0.5281  0.0882
    6SAPS  C220  746   5.658   3.290   8.793  0.7297  1.2514 -0.5819
    6SAPS  H20R  747   5.579   3.358   8.757 -0.7255  0.2605  0.6014
    6SAPS  H20S  748   5.651   3.288   8.904  1.2366 -2.6936 -0.4733
    6SAPS  H20T  749   5.628   3.189   8.758  2.4097  1.2131 -2.0530
    6SAPS   C33  750   6.290   2.745   9.746  0.3159 -0.0640  0.5656
    6SAPS   H3X  751   6.388   2.694   9.757 -0.6191 -1.6176  2.1510
    6SAPS   H3Y  752   6.303   2.855   9.741 -1.1586  0.1210 -0.0683
    6SAPS   C34  753   6.224   2.687   9.618 -0.0724  0.4047  0.9317
    6SAPS   H4X  754   6.144   2.764   9.606  0.3184  0.7086  0.1748
    6SAPS   H4Y  755   6.177   2.587   9.628 -1.2585  0.9365  0.9419
    6SAPS   C35  756   6.305   2.694   9.490 -0.3821 -0.1319  0.2550
    6SAPS   H5X  757   6.387   2.623   9.513 -0.2068  0.0310  0.1406
    6SAPS   H5Y  758   6.336   2.801   9.494 -0.7446 -0.0078 -0.1643
    6SAPS   C36  759   6.236   2.654   9.363  0.0568  0.1821  0.3772
    6SAPS   H6X  760   6.152   2.724   9.343 -1.3517 -1.3352  0.7444
    6SAPS   H6Y  761   6.190   2.554   9.369  1.4470 -0.6663 -1.7205
    6SAPS   C37  762   6.308   2.643   9.223 -0.2835 -0.4569 -0.9936
    6SAPS   H7X  763   6.227   2.628   9.149 -0.3634 -0.6626 -0.8678
    6SAPS   H7Y  764   6.377   2.557   9.233 -0.6548 -0.5695  1.1864
    6SAPS   C38  765   6.384   2.769   9.194 -0.5478  0.4769 -0.2284
    6SAPS   H8X  766   6.484   2.772   9.242 -0.4982  3.0960 -0.3461
    6SAPS   H8Y  767   6.336   2.857   9.240  0.0169  0.3931  0.5351
    6SAPS   C39  768   6.393   2.791   9.043 -0.0566  0.0860  0.1562
    6SAPS   H9X  769   6.451   2.884   9.025 -0.5434  0.5442  0.8904
    6SAPS   H9Y  770   6.293   2.819   9.004  0.4617  1.2670 -0.3962
    6SAPS  C310  771   6.443   2.673   8.950 -0.3328 -0.2860  0.1565
    6SAPS  H10X  772   6.451   2.712   8.847 -1.9609  0.1317  0.1538
    6SAPS  H10Y  773   6.374   2.586   8.946  1.7348 -2.0912  1.6643
    6SAPS  C311  774   6.579   2.618   8.986 -0.0840 -0.3357  0.6355
    6SAPS  H11X  775   6.604   2.624   9.094 -1.6646 -2.5717  1.1822
    6SAPS  H11Y  776   6.655   2.667   8.922 -0.3146 -0.1206  0.5234
    6SAPS  C312  777   6.584   2.465   8.967 -0.0596  0.0161  0.1804
    6SAPS  H12X  778   6.496   2.415   9.012 -0.6837  0.7251 -0.2393
    6SAPS  H12Y  779   6.680   2.433   9.014  1.2309  0.6862 -1.8882
    6SAPS  C313  780   6.583   2.433   8.816  0.6465 -0.7989 -0.0661
    6SAPS  H13X  781   6.492   2.474   8.767  0.0960 -2.1241 -0.2048
    6SAPS  H13Y  782   6.585   2.322   8.812  0.2229 -0.9257  1.9159
    6SAPS  C314  783   6.715   2.472   8.741  0.2114 -0.3445 -0.6707
    6SAPS  H14X  784   6.803   2.422   8.788  1.0223  0.7345 -0.9923
    6SAPS  H14Y  785   6.731   2.582   8.736 -0.8926 -0.2239 -1.7669
    6SAPS  C315  786   6.700   2.422   8.592 -0.7009  0.4305 -0.8191
    6SAPS  H15X  787   6.654   2.324   8.616 -1.8573  0.9291 -0.9422
    6SAPS  H15Y  788   6.797   2.394   8.545 -0.5262 -1.1580  0.4054
    6SAPS  C316  789   6.615   2.515   8.510 -0.0163 -0.4322  0.4955
    6SAPS  H16X  790   6.679   2.602   8.486 -0.5742 -0.0196  0.4753
    6SAPS  H16Y  791   6.522   2.552   8.559 -0.3572 -1.1941  0.4476
    6SAPS  C317  792   6.584   2.459   8.366 -1.1765 -0.5555  0.3766
    6SAPS  H17X  793   6.682   2.448   8.315 -0.8870  0.5398  0.6596
    6SAPS  H17Y  794   6.533   2.540   8.309  1.1962  0.5229 -0.3181
    6SAPS  C318  795   6.506   2.327   8.352  0.1632  0.0813  0.4994
    6SAPS  H18X  796   6.405   2.334   8.399  0.7448  1.5359  1.6083
    6SAPS  H18Y  797   6.568   2.248   8.398  0.3704  0.4001  0.7688
    6SAPS  H18Z  798   6.515   2.310   8.243 -1.6513  0.0299  0.3201
    7SAPS     N  799   1.183   3.835  10.969  0.1628 -0.4955 -0.5200
    7SAPS   HN1  800   1.248   3.754  10.965  1.6361  0.6797 -2.1225
    7SAPS   HN2  801   1.233   3.911  11.018  1.5647 -1.0417 -1.0600
    7SAPS   HN3  802   1.093   3.809  11.015  0.2525  0.4988  0.2461
    7SAPS   C12  803   1.163   3.890  10.826 -0.7856  0.0170 -0.4484
    7SAPS  H12A  804   1.070   3.857  10.784 -1.4185  2.8705 -1.5355
    7SAPS   C13  805   1.163   4.040  10.826 -0.0816 -0.1012  0.1366
    7SAPS  O13A  806   1.167   4.109  10.930  0.5434 -0.1236 -0.5257
    7SAPS  O13B  807   1.149   4.099  10.713 -0.5684  0.1588  0.2048
    7SAPS   C11  808   1.292   3.853  10.741 -0.4683 -0.4103 -0.1320
    7SAPS  H11A  809   1.294   3.902  10.642 -1.5319 -1.9474 -0.9696
    7SAPS  H11B  810   1.285   3.744  10.720  0.4072 -0.8450  1.6245
    7SAPS     P  811   1.551   3.919  10.739 -0.0393  0.2403  0.2360
    7SAPS   O13  812   1.554   4.067  10.732 -0.1662  0.3722  0.0962
    7SAPS   O14  813   1.668   3.867  10.817  0.0096  0.2018 -0.0796
    7SAPS   O12  814   1.415   3.867  10.808  0.0491  0.2916 -0.0830
    7SAPS   O11  815   1.551   3.857  10.589  0.5016  0.7090 -0.5448
    7SAPS    C1  816   1.675   3.834  10.515 -0.6482  0.0513  0.1277
    7SAPS    HA  817   1.760   3.792  10.573  1.4317  1.8902 -1.4531
    7SAPS    HB  818   1.670   3.757  10.434  3.6183  1.3853 -1.6798
    7SAPS    C2  819   1.716   3.956  10.427  1.1580  0.5337 -0.8927
    7SAPS    HS  820   1.740   4.040  10.496  3.8477 -2.3153  2.0174
    7SAPS   O21  821   1.611   3.991  10.338  0.1020  0.5133  0.5546
    7SAPS   C21  822   1.613   4.124  10.295 -0.7105 -0.1211 -0.0318
    7SAPS   O22  823   1.701   4.203  10.322 -0.1691  0.0072  0.0459
    7SAPS   C22  824   1.488   4.142  10.212  0.1370 -0.0970 -0.1430
    7SAPS   H2R  825   1.473   4.062  10.137  0.1724  0.3130 -0.5992
    7SAPS   H2S  826   1.394   4.151  10.270 -1.0835 -0.5224 -1.9681
    7SAPS    C3  827   1.853   3.926  10.357  0.6882 -0.2395  0.3930
    7SAPS    HX  828   1.919   3.878  10.432  1.0968 -2.8689 -1.5035
    7SAPS    HY  829   1.892   4.026  10.329  0.3364  0.8999  3.5832
    7SAPS   O31  830   1.832   3.828  10.251  0.8990 -0.3071 -0.1657
    7SAPS   C31  831   1.827   3.878  10.126 -0.2593 -0.4008  0.1590
    7SAPS   O32  832   1.840   3.999  10.102  0.3865  0.3299 -0.3345
    7SAPS   C32  833   1.822   3.761  10.021 -0.6474  0.4684  0.6599
    7SAPS   H2X  834   1.833   3.674  10.089 -2.3780 -0.5343 -0.2739
    7SAPS   H2Y  835   1.906   3.767   9.948 -1.0654  1.9444  0.2534
    7SAPS   C23  836   1.496   4.273  10.125  0.6633  0.4605  0.6869
    7SAPS   H3R  837   1.507   4.355  10.199 -0.8055  0.6832  0.6883
    7SAPS   H3S  838   1.395   4.280  10.082  1.1344 -0.2532 -0.5823
    7SAPS   C24  839   1.597   4.267  10.002 -0.1274 -0.7249  0.1416
    7SAPS   H4R  840   1.562   4.181   9.943 -1.6675 -0.5093  0.6802
    7SAPS   H4S  841   1.695   4.241  10.047 -0.3544 -1.0942  0.4353
    7SAPS   C25  842   1.607   4.394   9.911  0.2643 -0.7883 -0.1323
    7SAPS   H5R  843   1.511   4.449   9.910  0.1192 -1.0401 -0.2000
    7SAPS   C26  844   1.712   4.423   9.832  0.8572  0.6354  0.2257
    7SAPS   H6R  845   1.694   4.514   9.774 -2.9274 -0.8282 -1.1864
    7SAPS   C27  846   1.831   4.336   9.815 -0.0003 -0.8829  0.1653
    7SAPS   H7R  847   1.820   4.269   9.726  1.9624  0.9421 -1.5408
    7SAPS   H7S  848   1.836   4.267   9.902 -0.5752  1.4794  2.1850
    7SAPS   C28  849   1.958   4.411   9.793 -1.3931 -0.6952  0.5575
    7SAPS   H8R  850   2.027   4.406   9.878 -0.9185 -0.2315  0.2061
    7SAPS   C29  851   2.005   4.481   9.685  0.0726  0.0255  0.0364
    7SAPS   H9R  852   2.109   4.516   9.687  0.0917  0.1279 -1.7657
    7SAPS  C210  853   1.935   4.506   9.549 -0.0216  0.5309 -0.0735
    7SAPS  H10R  854   1.832   4.466   9.553  0.0208  0.2831 -1.2552
    7SAPS  H10S  855   1.989   4.460   9.463 -0.4538  0.2005 -0.1724
    7SAPS  C211  856   1.916   4.651   9.516 -0.2906 -0.3527  0.1342
    7SAPS  H11R  857   1.909   4.718   9.603  0.2262 -0.3814  0.2053
    7SAPS  C212  858   1.882   4.693   9.392 -0.2911 -0.2776 -0.0305
    7SAPS  H12R  859   1.877   4.802   9.379 -1.3227 -0.2026  0.9083
    7SAPS  C213  860   1.866   4.618   9.267 -0.6437  0.2195  0.3231
    7SAPS  H13R  861   1.790   4.675   9.210 -0.7556  0.3437  0.5918
    7SAPS  H13S  862   1.831   4.513   9.267 -0.4242  0.1424  0.6935
    7SAPS  C214  863   1.998   4.621   9.182 -0.2332 -0.1431  0.3232
    7SAPS  H14R  864   2.060   4.531   9.178 -0.3350 -0.1718 -1.1362
    7SAPS  C215  865   2.035   4.727   9.108  0.0874 -0.2511  0.5374
    7SAPS  H15R  866   2.129   4.719   9.052 -0.9666  0.3513 -1.4001
    7SAPS  C216  867   1.960   4.855   9.090  0.2176 -0.1051 -0.4360
    7SAPS  H16R  868   2.019   4.930   9.146  1.4337 -1.4177  0.0831
    7SAPS  H16S  869   1.854   4.849   9.122 -0.1825  0.4975 -1.5631
    7SAPS  C217  870   1.951   4.894   8.952  0.0644 -0.0346 -0.5525
    7SAPS  H17R  871   2.051   4.898   8.904 -0.1602  0.6263 -0.9756
    7SAPS  H17S  872   1.919   4.999   8.934 -0.6433 -0.1027  0.2389
    7SAPS  C218  873   1.852   4.815   8.863 -0.3438 -0.1809 -0.0719
    7SAPS  H18R  874   1.753   4.811   8.912 -1.6264 -1.6106 -2.5543
    7SAPS  H18S  875   1.900   4.714   8.865 -0.5535 -0.2841  1.9754
    7SAPS  C219  876   1.837   4.860   8.718  0.0935  0.7435  0.4990
    7SAPS  H19R  877   1.775   4.952   8.707 -1.5826 -0.3404  0.4934
    7SAPS  H19S  878   1.771   4.786   8.670 -1.1891  0.1038  3.0567
    7SAPS  C220  879   1.965   4.895   8.640 -0.1428  0.4711  0.2326
    7SAPS  H20R  880   2.003   4.993   8.676 -0.9958  0.0880  2.2799
    7SAPS  H20S  881   1.949   4.902   8.530  1.7644  2.7224  0.0119
    7SAPS  H20T  882   2.043   4.819   8.661  1.4102  1.5525 -1.2812
    7SAPS   C33  883   1.688   3.758   9.950 -0.4142  0.7106 -0.5823
    7SAPS   H3X  884   1.608   3.767  10.027  1.4489  1.0868  1.4121
    7SAPS   H3Y  885   1.678   3.650   9.923 -0.6333  1.0082 -1.7395
    7SAPS   C34  886   1.663   3.849   9.828  0.7778 -0.0989 -0.6199
    7SAPS   H4X  887   1.647   3.954   9.862 -1.1265 -0.6485  0.3333
    7SAPS   H4Y  888   1.564   3.819   9.787  1.8564 -1.8551 -2.1052
    7SAPS   C35  889   1.773   3.835   9.721  0.0745 -0.3552 -0.3949
    7SAPS   H5X  890   1.776   3.727   9.694 -1.0502 -0.6275  0.5091
    7SAPS   H5Y  891   1.879   3.854   9.748  0.6965 -2.1565 -1.4041
    7SAPS   C36  892   1.739   3.936   9.608 -0.0602  0.7192 -0.3432
    7SAPS   H6X  893   1.748   4.033   9.662 -0.0646  0.9248 -0.7126
    7SAPS   H6Y  894   1.634   3.909   9.585 -0.4661  1.9077  0.0232
    7SAPS   C37  895   1.825   3.929   9.479  0.0787 -0.0683 -0.1529
    7SAPS   H7X  896   1.778   3.988   9.397  1.5771  3.3445  1.2411
    7SAPS   H7Y  897   1.827   3.826   9.438  1.1354  0.3297 -1.1977
    7SAPS   C38  898   1.968   3.994   9.490  0.1332  0.7427  0.2110
    7SAPS   H8X  899   2.038   3.916   9.453 -0.3497 -0.5618  1.9248
    7SAPS   H8Y  900   1.988   3.997   9.599  1.4537 -1.1991  0.0713
    7SAPS   C39  901   1.977   4.136   9.436 -0.5509 -0.0372  0.1054
    7SAPS   H9X  902   2.071   4.174   9.479 -0.6449  1.0802 -0.6461
    7SAPS   H9Y  903   1.890   4.199   9.465 -2.7366 -1.7635 -2.1877
    7SAPS  C310  904   1.978   4.145   9.282 -0.6201  0.3576  0.2971
    7SAPS  H10X  905   1.975   4.252   9.253 -0.9361  0.3039  0.1278
    7SAPS  H10Y  906   1.893   4.100   9.227 -0.5908 -0.7197  1.1021
    7SAPS  C311  907   2.113   4.081   9.228 -0.1325 -0.2255  0.1587
    7SAPS  H11X  908   2.118   3.981   9.278 -0.3161  0.0911  0.8198
    7SAPS  H11Y  909   2.201   4.140   9.263 -0.8622  0.4045  0.9731
    7SAPS  C312  910   2.137   4.067   9.079 -0.2790 -0.3920 -0.8675
    7SAPS  H12X  911   2.172   4.164   9.039 -2.7970  0.7283 -0.5543
    7SAPS  H12Y  912   2.044   4.053   9.019  0.7297  0.9987 -2.8380
    7SAPS  C313  913   2.240   3.955   9.043 -0.4177  0.2681 -0.3715
    7SAPS  H13X  914   2.175   3.870   9.012 -0.3610  0.6696 -1.6817
    7SAPS  H13Y  915   2.302   3.925   9.130 -0.2934  0.6042 -0.3424
    7SAPS  C314  916   2.330   4.009   8.928  0.1600  0.0360 -0.7233
    7SAPS  H14X  917   2.382   4.100   8.966  0.1769 -0.3340  0.1724
    7SAPS  H14Y  918   2.265   4.036   8.842 -0.0699 -0.2054 -0.6269
    7SAPS  C315  919   2.424   3.906   8.864  0.0676 -0.4285  0.3520
    7SAPS  H15X  920   2.366   3.828   8.811 -2.4654  2.7983 -2.0595
    7SAPS  H15Y  921   2.482   3.861   8.947  0.4687 -1.1476 -0.2987
    7SAPS  C316  922   2.531   3.976   8.776 -0.4244 -0.9261 -0.2230
    7SAPS  H16X  923   2.572   4.058   8.838 -0.5719 -0.2478 -0.9951
    7SAPS  H16Y  924   2.482   4.021   8.686 -0.2338 -0.8434 -0.2872
    7SAPS  C317  925   2.658   3.897   8.726 -0.6179 -0.2633 -0.3247
    7SAPS  H17X  926   2.718   3.884   8.819  1.3527 -0.8499 -1.6113
    7SAPS  H17Y  927   2.722   3.959   8.659 -1.0415 -0.6925 -1.1426
    7SAPS  C318  928   2.629   3.762   8.665 -0.6559 -0.2147 -0.0340
    7SAPS  H18X  929   2.729   3.718   8.646  0.1798  0.2753  2.7216
    7SAPS  H18Y  930   2.576   3.757   8.568 -0.3606 -1.6098 -0.1532
    7SAPS  H18Z  931   2.577   3.693   8.735 -0.5794  0.2166  0.4521
    8SAPS     N  932   4.461   6.278  11.304  0.7094  0.6671  0.0065
    8SAPS   HN1  933   4.363   6.282  11.337 -0.5543 -0.7904 -3.1429
    8SAPS   HN2  934   4.508   6.216  11.374 -1.6952 -1.0658  0.1946
    8SAPS   HN3  935   4.503   6.373  11.296  2.4335 -0.1188 -0.8484
    8SAPS   C12  936   4.469   6.210  11.172 -0.2860 -0.0167 -0.8368
    8SAPS  H12A  937   4.442   6.106  11.186 -0.1511 -0.0321 -0.6951
    8SAPS   C13  938   4.362   6.278  11.076 -0.2970  0.6069  0.6551
    8SAPS  O13A  939   4.298   6.382  11.114 -0.4790 -0.2189  0.2923
    8SAPS  O13B  940   4.343   6.216  10.971  0.2031  0.8512  0.1158
    8SAPS   C11  941   4.611   6.227  11.108  0.3997 -0.3120  0.6964
    8SAPS  H11A  942   4.642   6.332  11.093 -0.4740 -0.1280  0.0488
    8SAPS  H11B  943   4.614   6.199  11.000  0.4355  1.1819  0.2843
    8SAPS     P  944   4.852   6.132  11.127  0.1982  0.2561 -0.0759
    8SAPS   O13  945   4.952   6.229  11.176 -0.6201  0.0841 -0.6851
    8SAPS   O14  946   4.870   5.991  11.179  0.4737 -0.0055 -0.1742
    8SAPS   O12  947   4.707   6.167  11.179  0.3111  0.3681 -0.3952
    8SAPS   O11  948   4.855   6.119  10.973 -0.6693  0.3016  0.4840
    8SAPS    C1  949   4.971   6.148  10.890  0.4012 -0.1588  0.9250
    8SAPS    HA  950   5.061   6.175  10.948  0.1380  1.2077  0.7348
    8SAPS    HB  951   4.991   6.063  10.822 -0.1070  0.1463  0.3754
    8SAPS    C2  952   4.940   6.281  10.809 -0.3277  0.1240  0.2571
    8SAPS    HS  953   4.931   6.352  10.894  2.0030 -2.0069  2.4347
    8SAPS   O21  954   4.818   6.261  10.744  0.8157 -0.6724  0.1720
    8SAPS   C21  955   4.753   6.364  10.704 -0.6011 -0.6512 -0.8547
    8SAPS   O22  956   4.786   6.482  10.717  0.2353  0.4757 -0.1015
    8SAPS   C22  957   4.638   6.319  10.620 -0.2658 -0.1597  0.5734
    8SAPS   H2R  958   4.684   6.269  10.531 -2.0797 -0.4163 -0.2713
    8SAPS   H2S  959   4.581   6.240  10.673 -0.2532 -1.0298 -0.6450
    8SAPS    C3  960   5.046   6.328  10.708 -0.1874 -0.0040 -0.4597
    8SAPS    HX  961   5.135   6.354  10.769 -0.8769  1.0844  0.1235
    8SAPS    HY  962   5.005   6.413  10.650 -0.0455  0.3190 -0.0877
    8SAPS   O31  963   5.087   6.214  10.631 -0.2904 -0.2252  0.3361
    8SAPS   C31  964   5.029   6.205  10.514  0.4123 -0.4263 -0.2939
    8SAPS   O32  965   4.942   6.278  10.467  0.5538 -0.2834  0.4956
    8SAPS   C32  966   5.079   6.081  10.445  0.5620 -0.2906 -0.3942
    8SAPS   H2X  967   5.015   6.003  10.491  1.5431 -0.3934  0.8312
    8SAPS   H2Y  968   5.181   6.063  10.483 -0.1484 -1.2916  1.1023
    8SAPS   C23  969   4.549   6.438  10.575  0.1326 -0.1758  0.0849
    8SAPS   H3R  970   4.615   6.504  10.514  2.1316 -2.2383 -0.0927
    8SAPS   H3S  971   4.524   6.482  10.674 -3.2563  0.2706 -0.8664
    8SAPS   C24  972   4.432   6.395  10.483  0.0547 -0.4790 -0.3289
    8SAPS   H4R  973   4.348   6.345  10.536 -0.0286 -0.9298 -0.8669
    8SAPS   H4S  974   4.482   6.322  10.415  3.1328  2.0955 -1.0673
    8SAPS   C25  975   4.380   6.520  10.412 -0.2787 -0.5513 -0.9553
    8SAPS   H5R  976   4.342   6.592  10.486 -2.2040 -0.0685 -2.3466
    8SAPS   C26  977   4.368   6.544  10.282 -0.6531 -0.0276  0.1794
    8SAPS   H6R  978   4.326   6.639  10.247  1.7912  2.0009  2.3229
    8SAPS   C27  979   4.411   6.464  10.160  0.4084 -0.0384 -0.2012
    8SAPS   H7R  980   4.374   6.515  10.068 -1.4630 -0.3771  0.3138
    8SAPS   H7S  981   4.359   6.365  10.165  0.5038 -0.0559  0.4912
    8SAPS   C28  982   4.560   6.433  10.154  0.3221 -0.5108 -0.5494
    8SAPS   H8R  983   4.593   6.336  10.195  2.2812 -1.3675 -3.8237
    8SAPS   C29  984   4.657   6.527  10.129 -0.4879  0.1399 -0.6942
    8SAPS   H9R  985   4.758   6.498  10.161 -1.3775 -1.0567  1.1539
    8SAPS  C210  986   4.636   6.675  10.112  0.0403 -0.3804  0.6817
    8SAPS  H10R  987   4.690   6.724  10.196 -1.8108 -2.0924  3.0344
    8SAPS  H10S  988   4.529   6.704  10.116  0.3391  0.6834  3.9807
    8SAPS  C211  989   4.700   6.709   9.978  0.5447  0.0513 -0.3834
    8SAPS  H11R  990   4.801   6.749   9.990  0.2649  1.3551 -1.9828
    8SAPS  C212  991   4.665   6.695   9.849 -0.5628  0.0027 -0.3727
    8SAPS  H12R  992   4.718   6.749   9.769 -0.9209  0.5323 -0.2556
    8SAPS  C213  993   4.549   6.626   9.801 -0.1852 -0.2973 -0.0156
    8SAPS  H13R  994   4.503   6.561   9.878 -3.8247 -1.3433 -2.8046
    8SAPS  H13S  995   4.568   6.544   9.728 -0.7930 -0.5907  0.1549
    8SAPS  C214  996   4.434   6.720   9.768  0.1032  0.2115 -0.6484
    8SAPS  H14R  997   4.366   6.726   9.855  0.0536  1.0693 -0.7431
    8SAPS  C215  998   4.414   6.785   9.646  0.7090 -0.3163 -0.1551
    8SAPS  H15R  999   4.324   6.848   9.646 -0.6648 -2.1544  0.8753
    8SAPS  C216 1000   4.518   6.776   9.535 -0.2163  0.3240 -0.0660
    8SAPS  H16R 1001   4.615   6.734   9.571  0.4927 -0.3879 -2.6198
    8SAPS  H16S 1002   4.540   6.880   9.503 -0.2989  0.7352  1.1519
    8SAPS  C217 1003   4.467   6.712   9.405  0.0385  0.0870  0.4491
    8SAPS  H17R 1004   4.443   6.606   9.427 -2.4343  0.4710 -0.0501
    8SAPS  H17S 1005   4.556   6.710   9.339  0.2898 -2.4454  0.7695
    8SAPS  C218 1006   4.348   6.779   9.336 -0.8658 -0.1937 -0.2659
    8SAPS  H18R 1007   4.359   6.889   9.329 -0.3757 -0.1849  0.4965
    8SAPS  H18S 1008   4.255   6.765   9.395 -0.7102 -1.8422 -0.3590
    8SAPS  C219 1009   4.321   6.715   9.198  0.6863 -0.1363 -0.4790
    8SAPS  H19R 1010   4.218   6.750   9.179 -0.0887 -3.3486 -3.0819
    8SAPS  H19S 1011   4.311   6.605   9.203  0.9833 -0.1268  0.5347
    8SAPS  C220 1012   4.428   6.747   9.095  0.1816 -0.0062 -0.2731
    8SAPS  H20R 1013   4.527   6.750   9.146 -0.1065  2.2506  0.2593
    8SAPS  H20S 1014   4.404   6.849   9.057 -0.4246  0.1610  0.5240
    8SAPS  H20T 1015   4.426   6.670   9.015 -0.7066  0.0382 -0.3028
    8SAPS   C33 1016   5.064   6.071  10.293 -0.4384  0.1677  0.6294
    8SAPS   H3X 1017   5.127   6.145  10.240 -2.3985  0.0295 -2.1312
    8SAPS   H3Y 1018   4.959   6.071  10.257 -0.6283 -0.3110  1.1698
    8SAPS   C34 1019   5.108   5.933  10.237 -0.1560  0.1300  0.8340
    8SAPS   H4X 1020   5.101   5.924  10.126  2.2332  1.4236  0.5065
    8SAPS   H4Y 1021   5.034   5.858  10.273 -1.4778  1.5582  1.1923
    8SAPS   C35 1022   5.252   5.878  10.285 -0.1022  0.0222  0.9201
    8SAPS   H5X 1023   5.273   5.907  10.390 -0.8455  0.0242  1.0737
    8SAPS   H5Y 1024   5.327   5.927  10.219  1.6480  0.2930  3.0106
    8SAPS   C36 1025   5.261   5.728  10.262 -0.5725 -0.7189  0.0388
    8SAPS   H6X 1026   5.198   5.683  10.342 -1.0011 -0.3791 -0.1025
    8SAPS   H6Y 1027   5.363   5.695  10.291 -0.9654  0.2953  2.9118
    8SAPS   C37 1028   5.229   5.677  10.123 -0.5140 -0.5547 -0.3623
    8SAPS   H7X 1029   5.122   5.689  10.099 -0.6459 -0.6717  0.1572
    8SAPS   H7Y 1030   5.237   5.567  10.134 -0.7876 -0.5332  0.0295
    8SAPS   C38 1031   5.321   5.748  10.019  0.5442  0.2839 -0.8562
    8SAPS   H8X 1032   5.421   5.753  10.068  0.0872 -0.0358  0.1292
    8SAPS   H8Y 1033   5.281   5.850  10.000 -0.2933  0.2426  0.5715
    8SAPS   C39 1034   5.322   5.675   9.876 -0.3478 -0.3637  0.5905
    8SAPS   H9X 1035   5.215   5.650   9.859 -0.5367  0.6968  0.1763
    8SAPS   H9Y 1036   5.380   5.580   9.875 -1.1900 -0.8745 -0.2402
    8SAPS  C310 1037   5.366   5.766   9.755  0.8831 -0.4682 -0.4884
    8SAPS  H10X 1038   5.475   5.790   9.757  0.8029 -0.1264  0.4772
    8SAPS  H10Y 1039   5.308   5.860   9.742 -1.1252 -1.4313  0.9995
    8SAPS  C311 1040   5.357   5.696   9.617 -1.0961 -0.0632  0.1237
    8SAPS  H11X 1041   5.258   5.648   9.601 -1.7143  0.9428  0.8224
    8SAPS  H11Y 1042   5.432   5.615   9.613  0.0316  0.9561 -0.0293
    8SAPS  C312 1043   5.373   5.795   9.498 -0.4755  0.5511  0.7101
    8SAPS  H12X 1044   5.476   5.835   9.507 -0.4249  0.3884  0.8722
    8SAPS  H12Y 1045   5.300   5.878   9.505 -0.4039  0.5465  1.5623
    8SAPS  C313 1046   5.347   5.733   9.361  0.4682  0.0960 -0.4386
    8SAPS  H13X 1047   5.246   5.690   9.345 -1.3909  3.2225  1.7725
    8SAPS  H13Y 1048   5.424   5.653   9.347  1.4403  1.0735 -0.8556
    8SAPS  C314 1049   5.370   5.826   9.241 -0.0022  0.3339 -0.5222
    8SAPS  H14X 1050   5.416   5.757   9.168  0.6244 -1.1466  1.1944
    8SAPS  H14Y 1051   5.452   5.894   9.273  0.8405 -1.1457  0.6056
    8SAPS  C315 1052   5.237   5.889   9.186  0.2154 -0.2716  0.1182
    8SAPS  H15X 1053   5.188   5.953   9.263 -1.0603 -1.5494  0.4109
    8SAPS  H15Y 1054   5.163   5.807   9.177 -0.4771  0.5482 -2.2092
    8SAPS  C316 1055   5.252   5.967   9.052  0.2082  0.5455 -0.7395
    8SAPS  H16X 1056   5.150   5.978   9.008 -0.8829 -0.9038  1.2494
    8SAPS  H16Y 1057   5.300   5.896   8.982  0.5383 -1.8976  1.8084
    8SAPS  C317 1058   5.335   6.087   9.077  0.6706 -0.5951  0.2021
    8SAPS  H17X 1059   5.440   6.051   9.092  0.7317 -1.0429 -1.1496
    8SAPS  H17Y 1060   5.292   6.133   9.168 -0.2335 -0.4185 -0.3104
    8SAPS  C318 1061   5.323   6.183   8.961 -0.3591 -0.0401 -0.1199
    8SAPS  H18X 1062   5.343   6.131   8.865  1.2162  0.2767 -0.0035
    8SAPS  H18Y 1063   5.402   6.261   8.972 -0.2606 -0.1198 -0.2632
    8SAPS  H18Z 1064   5.219   6.222   8.961 -0.6192 -0.1875  4.4846
    9SAPS     N 1065   6.204   6.749   6.259 -0.5589  0.1056 -0.0380
    9SAPS   HN1 1066   6.293   6.695   6.255 -0.4385  0.3293 -0.5215
    9SAPS   HN2 1067   6.217   6.852   6.251 -1.6748  0.1440 -1.9885
    9SAPS   HN3 1068   6.158   6.718   6.347 -0.4815  0.1078  0.0031
    9SAPS   C12 1069   6.117   6.720   6.145 -0.3202  0.2584  0.2579
    9SAPS  H12A 1070   6.038   6.794   6.151 -0.0075  0.6587 -0.4867
    9SAPS   C13 1071   6.180   6.731   5.998 -0.0831 -0.5180 -0.2672
    9SAPS  O13A 1072   6.301   6.775   5.990  0.2354  0.9806 -0.7001
    9SAPS  O13B 1073   6.100   6.756   5.905 -0.5506  0.6757  0.3280
    9SAPS   C11 1074   6.067   6.568   6.159 -0.1281 -0.1551  0.3573
    9SAPS  H11A 1075   6.155   6.499   6.155 -0.5931 -0.8017  1.1219
    9SAPS  H11B 1076   6.003   6.544   6.071  3.3220 -1.0292 -2.1630
    9SAPS     P 1077   5.918   6.420   6.305  0.0798 -0.2450 -0.1961
    9SAPS   O13 1078   5.798   6.430   6.226 -0.0113  0.5108  0.9979
    9SAPS   O14 1079   5.998   6.303   6.265 -0.1311  0.3586 -0.5257
    9SAPS   O12 1080   5.998   6.551   6.282  0.1590  0.0402 -0.1824
    9SAPS   O11 1081   5.878   6.414   6.456  0.3616  0.1252  0.0224
    9SAPS    C1 1082   5.833   6.538   6.510  0.1572  0.5588  0.0254
    9SAPS    HA 1083   5.921   6.604   6.524 -0.6260  1.3985  1.1778
    9SAPS    HB 1084   5.770   6.591   6.436  1.5130  0.9586 -0.8853
    9SAPS    C2 1085   5.774   6.520   6.655 -0.1069 -0.1817 -0.3979
    9SAPS    HS 1086   5.746   6.620   6.695  2.1915  0.0568  0.7607
    9SAPS   O21 1087   5.877   6.451   6.734  0.2360  0.2218  0.8755
    9SAPS   C21 1088   5.970   6.531   6.779 -0.6208 -0.2676 -0.4338
    9SAPS   O22 1089   5.954   6.653   6.799 -0.2128  0.0510  0.3954
    9SAPS   C22 1090   6.100   6.452   6.814  0.1516  0.0999  0.1545
    9SAPS   H2R 1091   6.099   6.372   6.736 -0.0854 -0.5611  0.8160
    9SAPS   H2S 1092   6.185   6.517   6.787  1.3643 -1.2698  0.5249
    9SAPS    C3 1093   5.643   6.443   6.649 -0.8183  0.1849 -0.3285
    9SAPS    HX 1094   5.653   6.340   6.609 -3.0023  0.0979 -0.7654
    9SAPS    HY 1095   5.580   6.501   6.578 -1.0114  2.1216  1.3420
    9SAPS   O31 1096   5.586   6.435   6.783  0.1961 -0.5925 -0.2389
    9SAPS   C31 1097   5.452   6.412   6.775  0.4414  0.0987  0.4833
    9SAPS   O32 1098   5.396   6.364   6.680 -0.0693  0.5346  0.2064
    9SAPS   C32 1099   5.380   6.424   6.909 -0.4731 -0.3495 -0.0120
    9SAPS   H2X 1100   5.433   6.503   6.966 -3.5382  1.2497  0.8259
    9SAPS   H2Y 1101   5.386   6.328   6.965  2.4483 -1.0376 -1.2934
    9SAPS   C23 1102   6.101   6.390   6.957 -0.3615 -0.4228 -0.1259
    9SAPS   H3R 1103   6.188   6.326   6.982 -0.1711 -0.5308 -1.0201
    9SAPS   H3S 1104   6.003   6.340   6.979 -0.5032 -0.3182 -0.5083
    9SAPS   C24 1105   6.117   6.501   7.060  0.9368 -0.7749 -0.6007
    9SAPS   H4R 1106   6.044   6.584   7.045  1.3782  1.0788  5.0470
    9SAPS   H4S 1107   6.220   6.541   7.050  0.0191  1.9811 -0.0260
    9SAPS   C25 1108   6.098   6.456   7.202  0.7657  0.5652 -0.1286
    9SAPS   H5R 1109   6.001   6.409   7.222  0.1354  1.1553 -1.6541
    9SAPS   C26 1110   6.183   6.464   7.312 -0.7963  0.6132  0.4872
    9SAPS   H6R 1111   6.164   6.416   7.409  0.3410  0.0017  0.4170
    9SAPS   C27 1112   6.319   6.532   7.295  0.0259  0.5943  0.5983
    9SAPS   H7R 1113   6.352   6.582   7.389 -0.5104 -1.0948  1.7194
    9SAPS   H7S 1114   6.317   6.617   7.224 -1.2082 -0.7547 -1.0505
    9SAPS   C28 1115   6.435   6.443   7.245  0.3892 -0.3722  0.5146
    9SAPS   H8R 1116   6.464   6.470   7.143 -2.7471 -0.3074 -0.4360
    9SAPS   C29 1117   6.495   6.347   7.317 -0.5469 -0.0801 -0.2637
    9SAPS   H9R 1118   6.567   6.277   7.273  0.3824  1.5044 -1.3525
    9SAPS  C210 1119   6.458   6.310   7.457 -0.0802 -0.8540  0.1747
    9SAPS  H10R 1120   6.440   6.201   7.449  2.3772 -1.2386 -1.1104
    9SAPS  H10S 1121   6.357   6.347   7.487  0.6386  2.9752 -1.5134
    9SAPS  C211 1122   6.564   6.351   7.565 -0.2797  0.2352  0.2946
    9SAPS  H11R 1123   6.658   6.377   7.515 -1.1221 -0.3199 -1.6947
    9SAPS  C212 1124   6.549   6.358   7.698 -0.1765 -0.0373 -0.0164
    9SAPS  H12R 1125   6.642   6.389   7.749  0.0485 -0.6638 -0.0410
    9SAPS  C213 1126   6.429   6.328   7.785  0.5658  0.0402  0.1565
    9SAPS  H13R 1127   6.437   6.229   7.835  1.1166 -0.3018 -0.5862
    9SAPS  H13S 1128   6.333   6.315   7.731  0.3906 -1.4749  0.7589
    9SAPS  C214 1129   6.413   6.433   7.887 -0.2000 -0.0430  0.3463
    9SAPS  H14R 1130   6.374   6.528   7.848  1.7151  0.9844  0.8028
    9SAPS  C215 1131   6.455   6.434   8.017  0.1973 -0.4364  0.2490
    9SAPS  H15R 1132   6.445   6.526   8.077  0.3431  0.1527 -0.5983
    9SAPS  C216 1133   6.517   6.317   8.089  0.6161 -0.0337 -0.2614
    9SAPS  H16R 1134   6.623   6.328   8.060  0.6973 -2.0439 -0.9129
    9SAPS  H16S 1135   6.493   6.219   8.041  0.6366  0.7273 -1.8998
    9SAPS  C217 1136   6.506   6.323   8.238  0.4543  0.5205 -0.5107
    9SAPS  H17R 1137   6.553   6.408   8.291  0.1443  1.0996 -1.1395
    9SAPS  H17S 1138   6.559   6.232   8.272  0.4388  0.3427 -0.9551
    9SAPS  C218 1139   6.355   6.308   8.287 -0.0344  0.1255  0.3467
    9SAPS  H18R 1140   6.325   6.204   8.259  1.3982  0.4412 -2.6395
    9SAPS  H18S 1141   6.290   6.383   8.239  1.0827  2.4343  2.2321
    9SAPS  C219 1142   6.332   6.320   8.441  1.0608  0.1704  0.2153
    9SAPS  H19R 1143   6.381   6.234   8.492 -0.0817  0.2632  1.5342
    9SAPS  H19S 1144   6.223   6.318   8.460  0.7811  0.3990 -1.2298
    9SAPS  C220 1145   6.397   6.443   8.494  0.2732 -0.1757 -0.8737
    9SAPS  H20R 1146   6.403   6.514   8.408  1.3425  0.5971 -0.1863
    9SAPS  H20S 1147   6.498   6.426   8.537  0.0671 -1.3347 -0.8300
    9SAPS  H20T 1148   6.341   6.483   8.580  1.0412  0.4338 -0.6411
    9SAPS   C33 1149   5.235   6.478   6.895  0.0760  0.0840 -0.0446
    9SAPS   H3X 1150   5.165   6.399   6.860  0.0823 -0.2129  0.5954
    9SAPS   H3Y 1151   5.240   6.564   6.825 -4.7016  0.0543 -0.7424
    9SAPS   C34 1152   5.195   6.523   7.034 -0.6095 -0.6523  0.4745
    9SAPS   H4X 1153   5.103   6.585   7.029  1.2946  2.3750  0.4909
    9SAPS   H4Y 1154   5.280   6.582   7.074 -0.2171 -1.1603  0.4056
    9SAPS   C35 1155   5.169   6.409   7.124  0.6511  0.0550 -0.5421
    9SAPS   H5X 1156   5.255   6.339   7.130  0.0101 -0.7492 -0.5922
    9SAPS   H5Y 1157   5.089   6.341   7.089 -0.1002 -0.8734  2.6325
    9SAPS   C36 1158   5.131   6.463   7.266  0.5486 -0.3046  0.1028
    9SAPS   H6X 1159   5.117   6.374   7.332  0.4298 -0.2778  0.1134
    9SAPS   H6Y 1160   5.040   6.526   7.263  0.9841  0.3175 -2.6650
    9SAPS   C37 1161   5.240   6.554   7.330 -0.1633 -0.8938 -0.0809
    9SAPS   H7X 1162   5.215   6.656   7.293 -2.1738 -0.9283  1.0693
    9SAPS   H7Y 1163   5.339   6.540   7.281 -1.0228 -1.6052 -1.6903
    9SAPS   C38 1164   5.235   6.552   7.479 -0.4615  0.9630  0.2953
    9SAPS   H8X 1165   5.335   6.584   7.515 -0.4478  0.3765  0.7954
    9SAPS   H8Y 1166   5.234   6.444   7.507 -0.5530  0.8848 -0.0046
    9SAPS   C39 1167   5.123   6.631   7.541  0.1023 -0.4965 -0.1860
    9SAPS   H9X 1168   5.021   6.597   7.514 -0.4568  0.6406  0.3876
    9SAPS   H9Y 1169   5.111   6.730   7.491  0.0407 -0.2326  0.3426
    9SAPS  C310 1170   5.129   6.656   7.687  0.3467  0.0065  0.3015
    9SAPS  H10X 1171   5.218   6.720   7.705  0.2526 -0.1491  1.3560
    9SAPS  H10Y 1172   5.140   6.555   7.731  0.0403 -0.2877 -0.2848
    9SAPS  C311 1173   5.000   6.729   7.735 -0.4359 -0.1921  0.4486
    9SAPS  H11X 1174   4.913   6.669   7.703  0.2212 -2.6194  2.8087
    9SAPS  H11Y 1175   5.009   6.825   7.680 -1.3712 -1.3851 -1.9102
    9SAPS  C312 1176   5.002   6.764   7.889  0.4025 -0.4194  0.4859
    9SAPS  H12X 1177   5.096   6.823   7.903  1.7658 -2.0284 -1.3800
    9SAPS  H12Y 1178   4.999   6.679   7.960 -0.1252 -1.3685 -0.6467
    9SAPS  C313 1179   4.886   6.859   7.922 -0.2925  0.3526  0.2195
    9SAPS  H13X 1180   4.798   6.792   7.924 -0.6348  0.6667 -2.1649
    9SAPS  H13Y 1181   4.870   6.949   7.859 -0.5368 -0.9444 -1.6519
    9SAPS  C314 1182   4.903   6.905   8.067 -0.1832 -0.0038 -0.2299
    9SAPS  H14X 1183   4.995   6.968   8.070 -0.6408  0.7013 -0.6136
    9SAPS  H14Y 1184   4.916   6.821   8.137 -1.8688  1.4835  2.0074
    9SAPS  C315 1185   4.786   6.996   8.123  0.1537  0.2078 -0.6307
    9SAPS  H15X 1186   4.786   7.090   8.064 -0.1039 -1.1619 -2.9495
    9SAPS  H15Y 1187   4.817   7.030   8.225 -1.0346  3.0311 -1.1175
    9SAPS  C316 1188   4.651   6.932   8.113  0.6627  0.5254  0.7049
    9SAPS  H16X 1189   4.659   6.826   8.147  1.0540 -0.0417 -1.0627
    9SAPS  H16Y 1190   4.631   6.915   8.005 -0.3971  1.3905  0.7493
    9SAPS  C317 1191   4.533   7.010   8.178  0.4936  0.6430 -0.0354
    9SAPS  H17X 1192   4.521   7.106   8.123 -2.6706 -0.3679 -1.3511
    9SAPS  H17Y 1193   4.557   7.043   8.281  2.3528 -1.0836  0.1513
    9SAPS  C318 1194   4.394   6.947   8.171 -0.2278  0.5333 -0.2975
    9SAPS  H18X 1195   4.397   6.873   8.088  0.4280  0.3337 -0.1043
    9SAPS  H18Y 1196   4.311   7.019   8.155 -0.8738 -0.5196 -1.9631
    9SAPS  H18Z 1197   4.377   6.885   8.262 -0.5576 -0.2050 -0.8529
   10SAPS     N 1198   5.784   5.304   6.122  0.5326 -0.4000 -0.0300
   10SAPS   HN1 1199   5.778   5.407   6.109  4.8692  0.3590  2.0069
   10SAPS   HN2 1200   5.807   5.297   6.224 -0.9254  0.1369  0.3593
   10SAPS   HN3 1201   5.863   5.262   6.069  0.9649 -0.4594  0.6411
   10SAPS   C12 1202   5.662   5.234   6.101  0.2534 -0.6063 -0.4612
   10SAPS  H12A 1203   5.625   5.265   6.005 -0.9627 -3.7240 -1.1086
   10SAPS   C13 1204   5.682   5.078   6.096 -0.0271 -0.4536  0.5177
   10SAPS  O13A 1205   5.795   5.027   6.103 -0.4280  0.5445  1.0602
   10SAPS  O13B 1206   5.576   5.017   6.065 -0.0405 -0.1907  0.3794
   10SAPS   C11 1207   5.563   5.275   6.215  0.3168  0.2922  0.1424
   10SAPS  H11A 1208   5.617   5.255   6.310 -1.8007 -2.2277  0.9019
   10SAPS  H11B 1209   5.470   5.215   6.210  0.7324 -0.5839  2.0610
   10SAPS     P 1210   5.423   5.469   6.321 -0.2040  0.1435  0.0950
   10SAPS   O13 1211   5.390   5.611   6.294 -0.5670  0.3956  0.1513
   10SAPS   O14 1212   5.308   5.379   6.337  0.4536 -0.2611 -0.2760
   10SAPS   O12 1213   5.522   5.409   6.210 -0.2351 -0.3537  0.5069
   10SAPS   O11 1214   5.512   5.453   6.449 -0.5675 -0.4733  0.7865
   10SAPS    C1 1215   5.632   5.538   6.456  0.6273  0.1677 -0.2911
   10SAPS    HA 1216   5.708   5.480   6.514 -0.8022 -0.4501  1.0279
   10SAPS    HB 1217   5.662   5.553   6.350  1.4660  0.6032 -0.0021
   10SAPS    C2 1218   5.610   5.683   6.523  0.0925  0.6211  0.1371
   10SAPS    HS 1219   5.554   5.744   6.448 -1.0309 -1.0894 -0.4585
   10SAPS   O21 1220   5.741   5.736   6.559 -0.3839  0.4123 -0.0339
   10SAPS   C21 1221   5.754   5.865   6.560  0.1193  0.0113  0.2418
   10SAPS   O22 1222   5.667   5.944   6.520  0.4971 -0.3429  0.4288
   10SAPS   C22 1223   5.890   5.902   6.599  0.0488 -0.0674 -0.3564
   10SAPS   H2R 1224   5.935   5.828   6.669  0.1830 -0.7759 -1.1772
   10SAPS   H2S 1225   5.952   5.907   6.507  1.3278  0.6880  0.5098
   10SAPS    C3 1226   5.518   5.668   6.647  0.6423  0.1461  0.0768
   10SAPS    HX 1227   5.574   5.596   6.710 -0.0446 -0.3317  0.1518
   10SAPS    HY 1228   5.426   5.622   6.607  1.4752 -0.8117 -0.7855
   10SAPS   O31 1229   5.498   5.787   6.719  0.5320  0.3242  0.7044
   10SAPS   C31 1230   5.395   5.866   6.684  0.2971  0.0100 -0.3743
   10SAPS   O32 1231   5.312   5.846   6.595 -0.5827  0.0189 -0.4173
   10SAPS   C32 1232   5.400   5.989   6.777 -0.6788  0.2403  0.5769
   10SAPS   H2X 1233   5.342   6.069   6.728  1.9781  1.7890 -0.2696
   10SAPS   H2Y 1234   5.501   6.031   6.796 -1.7636  4.3756 -1.7629
   10SAPS   C23 1235   5.884   6.035   6.680 -0.2982 -0.6400  0.4268
   10SAPS   H3R 1236   5.847   6.118   6.617  1.4503  0.6830  1.0389
   10SAPS   H3S 1237   5.985   6.073   6.706  0.6649 -3.2900  0.8369
   10SAPS   C24 1238   5.811   6.018   6.815  0.2906  0.5293 -0.1202
   10SAPS   H4R 1239   5.866   5.944   6.877 -2.1006  1.1147  2.8981
   10SAPS   H4S 1240   5.711   5.974   6.797  0.7067 -0.1742 -0.7590
   10SAPS   C25 1241   5.795   6.149   6.888 -0.3986  0.1162  0.3473
   10SAPS   H5R 1242   5.826   6.235   6.827 -0.1952  1.1205  1.8094
   10SAPS   C26 1243   5.766   6.173   7.014  0.2152 -0.1591  0.1165
   10SAPS   H6R 1244   5.763   6.272   7.061 -2.7762  0.1320 -0.4664
   10SAPS   C27 1245   5.732   6.061   7.111 -0.4867  0.4328  0.2539
   10SAPS   H7R 1246   5.721   5.965   7.056 -0.8672  0.2722  0.6019
   10SAPS   H7S 1247   5.636   6.080   7.163  0.4430  1.4677  1.6550
   10SAPS   C28 1248   5.838   6.040   7.218 -0.0249  0.4227  0.9044
   10SAPS   H8R 1249   5.898   5.948   7.207 -1.2523 -0.2961 -0.1170
   10SAPS   C29 1250   5.850   6.106   7.334  0.2096 -0.7459  0.8619
   10SAPS   H9R 1251   5.932   6.093   7.406  0.3744  0.1671  0.8468
   10SAPS  C210 1252   5.768   6.226   7.372 -0.5969 -0.4323 -1.0062
   10SAPS  H10R 1253   5.718   6.280   7.289  1.3706  2.2247 -0.5716
   10SAPS  H10S 1254   5.832   6.307   7.411 -0.7262 -0.2910 -1.0895
   10SAPS  C211 1255   5.666   6.189   7.477 -0.0095  0.0935 -0.4118
   10SAPS  H11R 1256   5.580   6.147   7.423 -0.1113 -0.3436  0.0830
   10SAPS  C212 1257   5.664   6.179   7.615  0.1897 -0.0665 -0.1908
   10SAPS  H12R 1258   5.574   6.140   7.664  1.1534 -1.5903  0.4147
   10SAPS  C213 1259   5.775   6.229   7.702 -0.4624  0.6115 -0.1228
   10SAPS  H13R 1260   5.729   6.319   7.749 -1.8381 -1.2107  2.2595
   10SAPS  H13S 1261   5.852   6.275   7.637 -1.5822 -1.0639 -2.8085
   10SAPS  C214 1262   5.839   6.125   7.787  0.4387 -0.1631  0.8133
   10SAPS  H14R 1263   5.875   6.029   7.747  0.5578  0.6154 -1.0374
   10SAPS  C215 1264   5.846   6.138   7.920  0.0402  0.7722  0.0856
   10SAPS  H15R 1265   5.904   6.054   7.961  1.4557  0.5418 -2.2086
   10SAPS  C216 1266   5.813   6.252   8.015  0.4135  0.2515  0.3325
   10SAPS  H16R 1267   5.821   6.352   7.969  3.7781 -0.3500 -0.6550
   10SAPS  H16S 1268   5.892   6.254   8.093 -0.3377  1.2569  1.1030
   10SAPS  C217 1269   5.674   6.230   8.088  0.0554  0.2646 -0.4213
   10SAPS  H17R 1270   5.648   6.124   8.109  0.2304  0.6195  1.8556
   10SAPS  H17S 1271   5.594   6.277   8.027 -1.1130  0.4616  1.2242
   10SAPS  C218 1272   5.655   6.289   8.233  0.1980 -0.0514 -0.5349
   10SAPS  H18R 1273   5.666   6.397   8.206  1.7606 -0.4053 -1.5147
   10SAPS  H18S 1274   5.741   6.257   8.295 -1.0215 -1.8987  0.2551
   10SAPS  C219 1275   5.525   6.271   8.310  0.3153 -0.3686  0.4818
   10SAPS  H19R 1276   5.499   6.163   8.298  2.3610 -0.6841 -2.0459
   10SAPS  H19S 1277   5.441   6.326   8.263  0.7915 -0.9190 -1.0775
   10SAPS  C220 1278   5.532   6.309   8.455 -0.5932  0.4084 -1.1494
   10SAPS  H20R 1279   5.435   6.297   8.510  1.1603  0.6737  2.2883
   10SAPS  H20S 1280   5.570   6.412   8.471 -0.2753  0.2218 -0.6793
   10SAPS  H20T 1281   5.607   6.249   8.510 -1.3297  0.5446  0.0567
   10SAPS   C33 1282   5.345   5.932   6.914 -0.4319  0.2455 -0.2508
   10SAPS   H3X 1283   5.421   5.860   6.950 -1.5764  0.5134  2.9998
   10SAPS   H3Y 1284   5.252   5.874   6.895 -0.7330  0.6682 -0.0975
   10SAPS   C34 1285   5.309   6.042   7.015 -0.1217 -0.7612 -0.5033
   10SAPS   H4X 1286   5.219   6.092   6.973  0.3283  0.0928 -0.4800
   10SAPS   H4Y 1287   5.390   6.118   7.019  0.0805 -0.9433 -1.0415
   10SAPS   C35 1288   5.274   5.988   7.159  0.5000  0.4223 -0.1949
   10SAPS   H5X 1289   5.348   5.909   7.184 -0.2781 -1.0487 -2.3231
   10SAPS   H5Y 1290   5.171   5.948   7.149  0.0889  1.3328  0.2454
   10SAPS   C36 1291   5.286   6.091   7.274  0.1780 -0.4070 -0.3531
   10SAPS   H6X 1292   5.198   6.159   7.279  0.6199  0.2066 -0.8150
   10SAPS   H6Y 1293   5.366   6.163   7.248 -0.0996  0.8398  2.0235
   10SAPS   C37 1294   5.309   6.041   7.424 -0.4880 -0.2995 -0.2027
   10SAPS   H7X 1295   5.408   5.996   7.441 -1.1508 -1.0091  2.0567
   10SAPS   H7Y 1296   5.229   5.964   7.435  0.0469 -0.7835  0.3372
   10SAPS   C38 1297   5.295   6.143   7.531  0.1199 -0.2805 -1.1151
   10SAPS   H8X 1298   5.207   6.210   7.537 -0.1778 -0.7887  1.5178
   10SAPS   H8Y 1299   5.382   6.212   7.524 -0.8554  0.9111 -1.7874
   10SAPS   C39 1300   5.289   6.067   7.658 -0.0546  0.3343  0.5702
   10SAPS   H9X 1301   5.381   6.005   7.662  0.2546  0.5741 -1.4408
   10SAPS   H9Y 1302   5.206   5.994   7.652  1.0418 -0.9298  0.2777
   10SAPS  C310 1303   5.309   6.156   7.784  0.2394  0.5009  0.4186
   10SAPS  H10X 1304   5.217   6.217   7.796  0.7525  1.3613  0.0993
   10SAPS  H10Y 1305   5.397   6.222   7.765 -0.3262  1.5788  1.4019
   10SAPS  C311 1306   5.322   6.069   7.909 -0.6169 -0.1156  0.5235
   10SAPS  H11X 1307   5.427   6.056   7.944 -0.4700 -1.1869 -0.2398
   10SAPS  H11Y 1308   5.296   5.964   7.882  1.3821 -0.0467 -1.9879
   10SAPS  C312 1309   5.225   6.106   8.024 -0.6329 -0.5560  0.7263
   10SAPS  H12X 1310   5.130   6.134   7.973 -0.4840  0.9250  1.2085
   10SAPS  H12Y 1311   5.262   6.199   8.072 -1.3101  0.1128 -0.0036
   10SAPS  C313 1312   5.208   5.997   8.132 -0.0731  0.0013 -0.9096
   10SAPS  H13X 1313   5.305   5.981   8.183 -0.9412  1.1730  1.2380
   10SAPS  H13Y 1314   5.180   5.898   8.091  1.2096 -1.7589  2.1084
   10SAPS  C314 1315   5.108   6.038   8.248 -0.1299  0.1817 -0.2652
   10SAPS  H14X 1316   5.087   5.950   8.312 -0.8203 -0.4006 -1.2731
   10SAPS  H14Y 1317   5.014   6.071   8.198  0.6965  0.0551 -1.9886
   10SAPS  C315 1318   5.154   6.148   8.346  0.4143 -0.8930 -0.3197
   10SAPS  H15X 1319   5.161   6.237   8.279 -1.6400 -0.8418 -0.5119
   10SAPS  H15Y 1320   5.255   6.120   8.384  1.0547  0.1827 -1.1446
   10SAPS  C316 1321   5.062   6.178   8.466  0.2966 -0.3738  0.8093
   10SAPS  H16X 1322   5.058   6.086   8.528  0.8137 -0.6363  0.4548
   10SAPS  H16Y 1323   4.968   6.216   8.420  2.0478  3.7789  0.1510
   10SAPS  C317 1324   5.118   6.296   8.550 -0.2477  0.6355  0.5125
   10SAPS  H17X 1325   5.120   6.378   8.475 -1.8327  0.7679  0.5847
   10SAPS  H17Y 1326   5.221   6.263   8.572 -0.3323 -0.9061 -1.2323
   10SAPS  C318 1327   5.050   6.350   8.681  0.2850  0.2070 -0.0843
   10SAPS  H18X 1328   5.039   6.268   8.755 -1.5006 -0.0695 -0.6011
   10SAPS  H18Y 1329   4.950   6.393   8.657  0.1951 -0.4719 -1.0007
   10SAPS  H18Z 1330   5.112   6.429   8.728  2.1059 -1.1284 -0.1336
   11SAPS     N 1331   0.224   2.150   6.208  0.2609  0.6525 -0.3175
   11SAPS   HN1 1332   0.144   2.084   6.211 -1.1849  2.2761 -1.1385
   11SAPS   HN2 1333   0.282   2.152   6.294  1.7588  0.1314 -1.2772
   11SAPS   HN3 1334   0.191   2.248   6.196 -0.9280  0.4378  0.9062
   11SAPS   C12 1335   0.318   2.143   6.087  0.3779 -0.0160 -0.2944
   11SAPS  H12A 1336   0.252   2.154   6.003 -1.7023 -2.3982  0.8792
   11SAPS   C13 1337   0.421   2.259   6.078  0.1662 -0.4699  0.5020
   11SAPS  O13A 1338   0.427   2.352   6.167  0.5344 -0.0575  0.5625
   11SAPS  O13B 1339   0.500   2.262   5.979 -0.3866 -0.2282  0.4421
   11SAPS   C11 1340   0.391   2.013   6.055 -0.6606  0.7520  0.1141
   11SAPS  H11A 1341   0.474   1.992   6.126 -1.2472  1.2526  0.9708
   11SAPS  H11B 1342   0.448   2.030   5.961  0.9202  2.1586  1.2576
   11SAPS     P 1343   0.330   1.756   6.046 -0.5568  0.1391  0.2045
   11SAPS   O13 1344   0.223   1.675   5.985 -0.4104 -0.5739  0.0929
   11SAPS   O14 1345   0.464   1.737   5.986  0.2930  0.4469  0.2351
   11SAPS   O12 1346   0.294   1.908   6.045  0.1052 -0.8230  0.1851
   11SAPS   O11 1347   0.336   1.726   6.201 -0.6404  0.5795  0.3653
   11SAPS    C1 1348   0.236   1.763   6.294  0.8886 -0.2790 -0.1914
   11SAPS    HA 1349   0.248   1.868   6.329 -3.9356 -0.3933  2.5867
   11SAPS    HB 1350   0.133   1.756   6.254  1.1940 -0.9480 -0.8874
   11SAPS    C2 1351   0.240   1.666   6.418 -0.8143  0.1338  0.1338
   11SAPS    HS 1352   0.151   1.700   6.474 -0.9995 -1.3932  0.8442
   11SAPS   O21 1353   0.364   1.690   6.491 -0.0679  0.5221  0.1106
   11SAPS   C21 1354   0.371   1.798   6.571 -0.2162 -0.1552  0.2174
   11SAPS   O22 1355   0.278   1.868   6.604 -0.4113 -0.0302  0.3094
   11SAPS   C22 1356   0.515   1.821   6.621 -0.0544  0.4278 -0.0689
   11SAPS   H2R 1357   0.563   1.874   6.536 -1.0181 -0.9007 -1.4878
   11SAPS   H2S 1358   0.494   1.889   6.706  0.0732  0.7839 -0.3228
   11SAPS    C3 1359   0.230   1.511   6.393 -0.9643 -0.3285  0.2371
   11SAPS    HX 1360   0.297   1.492   6.307  1.6668  1.4951  1.7177
   11SAPS    HY 1361   0.125   1.502   6.360 -0.5810  0.9520 -1.4430
   11SAPS   O31 1362   0.275   1.414   6.498  0.3908 -0.1018 -0.0532
   11SAPS   C31 1363   0.200   1.411   6.610 -0.3171  0.4520 -0.3593
   11SAPS   O32 1364   0.115   1.489   6.639  0.1833 -0.3807  0.8718
   11SAPS   C32 1365   0.242   1.284   6.690 -0.3908 -0.1540  0.3794
   11SAPS   H2X 1366   0.352   1.267   6.687 -0.2406  0.5676  1.2271
   11SAPS   H2Y 1367   0.192   1.206   6.629 -1.5852  1.2304 -0.4912
   11SAPS   C23 1368   0.595   1.686   6.655 -0.2970  0.0741 -0.9964
   11SAPS   H3R 1369   0.692   1.721   6.697  0.8299 -1.3399 -2.2833
   11SAPS   H3S 1370   0.613   1.653   6.550  0.4138  0.0332 -0.8729
   11SAPS   C24 1371   0.539   1.589   6.768  0.3926 -0.8940 -0.4841
   11SAPS   H4R 1372   0.434   1.568   6.739  0.6187 -0.8334 -1.4055
   11SAPS   H4S 1373   0.534   1.648   6.862 -0.1244 -0.9468 -0.4760
   11SAPS   C25 1374   0.630   1.472   6.781  0.7455  0.2527  1.0513
   11SAPS   H5R 1375   0.641   1.404   6.695 -0.2439 -1.5361  2.2742
   11SAPS   C26 1376   0.719   1.438   6.877  0.4043 -0.4780 -0.1312
   11SAPS   H6R 1377   0.789   1.355   6.859 -0.7016 -0.7212 -4.4002
   11SAPS   C27 1378   0.748   1.514   7.007 -0.2414  0.1354 -0.1753
   11SAPS   H7R 1379   0.735   1.623   6.992 -1.4683  0.1118  0.5256
   11SAPS   H7S 1380   0.849   1.492   7.047 -1.1957 -3.5177  0.5858
   11SAPS   C28 1381   0.650   1.472   7.114 -0.3355  0.2703 -0.1659
   11SAPS   H8R 1382   0.562   1.422   7.071 -0.2950  0.3138 -0.2992
   11SAPS   C29 1383   0.670   1.463   7.249  0.3349 -1.0164 -0.0512
   11SAPS   H9R 1384   0.592   1.422   7.313 -1.9882  0.5267 -1.7108
   11SAPS  C210 1385   0.792   1.517   7.324  0.2454  0.3434 -0.1484
   11SAPS  H10R 1386   0.856   1.560   7.245 -1.5620  2.3031 -0.6285
   11SAPS  H10S 1387   0.845   1.448   7.393  0.2118  1.3934  0.9664
   11SAPS  C211 1388   0.754   1.633   7.414  0.1835 -1.0766  0.3046
   11SAPS  H11R 1389   0.762   1.732   7.368 -1.8327 -0.9350  0.1604
   11SAPS  C212 1390   0.710   1.620   7.543 -0.2386 -0.5317 -0.8641
   11SAPS  H12R 1391   0.697   1.705   7.610 -0.8245 -0.5156 -0.9973
   11SAPS  C213 1392   0.689   1.489   7.604  0.8054  0.6719 -0.5084
   11SAPS  H13R 1393   0.768   1.416   7.578  0.2799  0.1999 -0.8040
   11SAPS  H13S 1394   0.600   1.441   7.558  1.4490 -1.7441  0.6112
   11SAPS  C214 1395   0.682   1.505   7.756 -0.0711 -0.9589  0.7854
   11SAPS  H14R 1396   0.781   1.501   7.804 -0.7633 -1.3884  2.2305
   11SAPS  C215 1397   0.574   1.538   7.836 -0.1520 -0.0646 -0.5672
   11SAPS  H15R 1398   0.593   1.534   7.945  1.5480  0.2756 -0.8293
   11SAPS  C216 1399   0.437   1.548   7.792  0.1662  0.2577 -0.3701
   11SAPS  H16R 1400   0.379   1.453   7.796 -0.0742  0.4349  2.1446
   11SAPS  H16S 1401   0.449   1.583   7.687  1.9286 -1.0574 -0.6569
   11SAPS  C217 1402   0.348   1.646   7.869 -0.4403 -0.8886  0.0724
   11SAPS  H17R 1403   0.264   1.680   7.804 -0.2040  0.2922  0.3823
   11SAPS  H17S 1404   0.400   1.740   7.895 -0.1130 -1.0671  0.0628
   11SAPS  C218 1405   0.298   1.584   7.993 -0.0120  0.9082  0.7273
   11SAPS  H18R 1406   0.325   1.476   7.993  0.5976  1.0347  2.1465
   11SAPS  H18S 1407   0.187   1.580   7.990  0.0421 -1.2734 -0.9685
   11SAPS  C219 1408   0.341   1.655   8.116  0.9581 -0.0778 -0.0808
   11SAPS  H19R 1409   0.312   1.762   8.111 -0.0988 -0.3824 -0.9248
   11SAPS  H19S 1410   0.451   1.645   8.132  0.7553 -0.5247  1.1664
   11SAPS  C220 1411   0.295   1.583   8.251  0.2350 -0.8579 -0.0568
   11SAPS  H20R 1412   0.187   1.564   8.234 -0.0743  1.4266 -1.0778
   11SAPS  H20S 1413   0.319   1.641   8.342 -2.3595  0.5991 -0.1831
   11SAPS  H20T 1414   0.331   1.478   8.254 -1.5808 -1.5001  0.3201
   11SAPS   C33 1415   0.193   1.283   6.836 -0.2955  0.2970  0.0235
   11SAPS   H3X 1416   0.199   1.179   6.876 -0.5805  0.7649  1.3332
   11SAPS   H3Y 1417   0.085   1.306   6.848  0.1931  3.9465 -1.4415
   11SAPS   C34 1418   0.280   1.365   6.933  0.6029 -0.0967  0.4341
   11SAPS   H4X 1419   0.281   1.472   6.906  0.6887 -0.2634 -0.2506
   11SAPS   H4Y 1420   0.383   1.325   6.940  1.2841  1.7030  1.1813
   11SAPS   C35 1421   0.215   1.366   7.069  0.8574  0.1942  0.0705
   11SAPS   H5X 1422   0.186   1.265   7.107 -0.3117  0.7393  0.6916
   11SAPS   H5Y 1423   0.119   1.419   7.056  1.5707  1.8503  1.2386
   11SAPS   C36 1424   0.302   1.439   7.174 -0.0423 -0.2462 -0.4800
   11SAPS   H6X 1425   0.336   1.536   7.130  2.4469  0.4517  2.6051
   11SAPS   H6Y 1426   0.385   1.371   7.200 -0.6848 -0.3870  1.3309
   11SAPS   C37 1427   0.229   1.448   7.305  0.1893 -0.3795  0.4432
   11SAPS   H7X 1428   0.119   1.451   7.288  0.5383 -0.5130 -2.2304
   11SAPS   H7Y 1429   0.251   1.548   7.346 -0.0688  0.1076 -0.5846
   11SAPS   C38 1430   0.262   1.341   7.411  1.1988  0.1077 -0.9298
   11SAPS   H8X 1431   0.372   1.322   7.418  1.2832  0.5852 -0.9102
   11SAPS   H8Y 1432   0.220   1.243   7.382  1.1132 -0.6493  1.5479
   11SAPS   C39 1433   0.211   1.394   7.547 -0.2364 -0.5252 -0.7720
   11SAPS   H9X 1434   0.108   1.434   7.532  0.5266  1.1414 -1.7001
   11SAPS   H9Y 1435   0.283   1.466   7.591 -0.0027 -1.4703  0.4548
   11SAPS  C310 1436   0.200   1.274   7.649  0.3219 -0.1740  0.2015
   11SAPS  H10X 1437   0.293   1.243   7.701 -0.2410 -1.8706  0.2720
   11SAPS  H10Y 1438   0.160   1.184   7.598  0.9902  0.3781 -1.3495
   11SAPS  C311 1439   0.123   1.315   7.771  0.2936  0.8537  0.1469
   11SAPS  H11X 1440   0.017   1.329   7.741  0.5051  1.2076 -0.4713
   11SAPS  H11Y 1441   0.155   1.420   7.793 -0.6129  1.2010 -0.1323
   11SAPS  C312 1442   0.143   1.220   7.892 -0.1970  0.1027  0.4574
   11SAPS  H12X 1443   0.253   1.212   7.909 -0.4045 -5.2542  0.7197
   11SAPS  H12Y 1444   0.111   1.117   7.866  0.4191  0.8636 -4.3777
   11SAPS  C313 1445   0.079   1.261   8.021 -0.2455 -0.6771 -0.5529
   11SAPS  H13X 1446  -0.026   1.230   8.042 -0.1453  0.9475  2.9515
   11SAPS  H13Y 1447   0.089   1.371   8.033  0.9237 -1.0590  3.1683
   11SAPS  C314 1448   0.172   1.223   8.138 -0.3429  0.0138 -0.1786
   11SAPS  H14X 1449   0.277   1.255   8.122 -0.1700 -1.1840 -1.6668
   11SAPS  H14Y 1450   0.195   1.115   8.143 -1.6040 -0.5532 -3.5342
   11SAPS  C315 1451   0.118   1.264   8.276 -0.1269 -0.2500 -0.2542
   11SAPS  H15X 1452   0.017   1.219   8.289 -1.3572  2.3581 -0.0668
   11SAPS  H15Y 1453   0.106   1.375   8.271 -1.0590 -0.3458 -0.3638
   11SAPS  C316 1454   0.197   1.222   8.398  0.7727  0.6605  0.0003
   11SAPS  H16X 1455   0.146   1.277   8.480 -1.4648  2.0875 -2.2184
   11SAPS  H16Y 1456   0.301   1.261   8.394  1.3455 -0.7459  0.6781
   11SAPS  C317 1457   0.206   1.073   8.432 -0.7321  0.0004  0.2194
   11SAPS  H17X 1458   0.204   1.012   8.339  0.8885  2.0698 -1.2848
   11SAPS  H17Y 1459   0.111   1.038   8.478 -1.2356  1.6711  0.5350
   11SAPS  C318 1460   0.316   1.044   8.533 -0.0829 -0.2250 -0.3247
   11SAPS  H18X 1461   0.299   1.085   8.635  0.0939 -0.3081 -0.2605
   11SAPS  H18Y 1462   0.418   1.076   8.504  0.0760 -0.0027  0.4461
   11SAPS  H18Z 1463   0.324   0.933   8.544  2.3906 -0.1084 -0.2039
   12SAPS     N 1464   1.138   2.803   5.978 -0.2928 -0.5376  0.0575
   12SAPS   HN1 1465   1.068   2.861   5.927  0.2150  1.5758  1.6293
   12SAPS   HN2 1466   1.104   2.705   5.970 -1.1629 -0.2735  0.4046
   12SAPS   HN3 1467   1.129   2.825   6.080  1.2741 -1.1238  0.3486
   12SAPS   C12 1468   1.278   2.804   5.930 -0.2633 -0.5297  0.1124
   12SAPS  H12A 1469   1.327   2.723   5.982 -0.1244 -1.6224 -1.6561
   12SAPS   C13 1470   1.285   2.752   5.785  0.2338 -0.4611  0.1430
   12SAPS  O13A 1471   1.188   2.722   5.711  0.2156  0.0187  0.0957
   12SAPS  O13B 1472   1.403   2.724   5.749  0.0752 -0.8117  0.0421
   12SAPS   C11 1473   1.343   2.946   5.927  0.0130  0.0941 -0.2352
   12SAPS  H11A 1474   1.293   3.008   5.849 -2.1472  0.0928  1.0595
   12SAPS  H11B 1475   1.446   2.924   5.892 -0.5419 -0.5199 -1.5473
   12SAPS     P 1476   1.475   3.039   6.148 -0.3196  0.0837  0.1295
   12SAPS   O13 1477   1.572   3.085   6.049  0.1072  0.6271 -0.5041
   12SAPS   O14 1478   1.453   3.118   6.272  0.0116 -0.4470 -0.4620
   12SAPS   O12 1479   1.342   3.013   6.060  0.1455  0.7417 -0.7610
   12SAPS   O11 1480   1.517   2.892   6.196 -0.7680 -0.1625 -0.4337
   12SAPS    C1 1481   1.449   2.833   6.308 -0.2804  0.4623 -0.2611
   12SAPS    HA 1482   1.340   2.854   6.315 -0.3047 -0.2450  3.3484
   12SAPS    HB 1483   1.459   2.722   6.301  0.3425  0.4027  1.2190
   12SAPS    C2 1484   1.522   2.875   6.439  0.3786 -0.3629  0.1642
   12SAPS    HS 1485   1.505   2.984   6.439  2.4223  0.1143 -3.3773
   12SAPS   O21 1486   1.656   2.834   6.422  0.0664 -0.1081 -0.5140
   12SAPS   C21 1487   1.754   2.906   6.481  0.8146  0.0739  0.7971
   12SAPS   O22 1488   1.725   3.019   6.516 -0.7957 -0.2624 -0.3418
   12SAPS   C22 1489   1.886   2.834   6.489  0.0981 -0.4156  0.4411
   12SAPS   H2R 1490   1.867   2.737   6.539  1.5667 -0.8774  0.1613
   12SAPS   H2S 1491   1.917   2.825   6.382  2.1824 -0.2323  0.9822
   12SAPS    C3 1492   1.455   2.802   6.563  0.0928  0.0507  0.2340
   12SAPS    HX 1493   1.465   2.692   6.551 -0.1537 -0.1316  1.5908
   12SAPS    HY 1494   1.346   2.824   6.558  0.1960  0.3675 -0.9073
   12SAPS   O31 1495   1.507   2.834   6.690 -0.2230  0.8649  0.1145
   12SAPS   C31 1496   1.444   2.938   6.748  0.3722  0.2679 -0.1627
   12SAPS   O32 1497   1.353   3.000   6.698  0.1175 -0.0469 -0.2599
   12SAPS   C32 1498   1.515   2.979   6.875  0.2201 -0.2795 -0.7097
   12SAPS   H2X 1499   1.619   3.009   6.851  1.0237 -2.0345  0.3652
   12SAPS   H2Y 1500   1.520   2.883   6.931 -0.7350  0.8486  1.4022
   12SAPS   C23 1501   1.987   2.912   6.566 -0.1000  1.1513  0.2607
   12SAPS   H3R 1502   2.010   3.007   6.513 -1.1666  0.5322 -1.4036
   12SAPS   H3S 1503   2.076   2.849   6.546 -0.6110  0.9716 -1.7533
   12SAPS   C24 1504   1.960   2.940   6.707  0.2006 -0.2072 -0.5374
   12SAPS   H4R 1505   1.929   2.851   6.766  0.7363  0.3113  0.5680
   12SAPS   H4S 1506   1.868   3.002   6.708  0.4478  0.1594  0.1898
   12SAPS   C25 1507   2.064   3.016   6.775  0.1234  0.0953 -0.1051
   12SAPS   H5R 1508   2.157   3.025   6.716  0.7401  0.3222  0.8888
   12SAPS   C26 1509   2.064   3.065   6.898  0.6549 -0.3815  0.2557
   12SAPS   H6R 1510   2.148   3.128   6.931  0.4106  1.3033 -2.0527
   12SAPS   C27 1511   1.939   3.053   6.997 -0.8658 -0.2348  0.2127
   12SAPS   H7R 1512   1.950   2.968   7.069  4.3865 -0.0576 -0.0044
   12SAPS   H7S 1513   1.846   3.034   6.940 -0.4858 -1.0417 -0.1515
   12SAPS   C28 1514   1.899   3.187   7.064 -0.6170  0.6609  0.0798
   12SAPS   H8R 1515   1.826   3.243   7.004 -0.5781  1.0748  0.4140
   12SAPS   C29 1516   1.935   3.230   7.190 -0.4571 -0.0739 -0.2199
   12SAPS   H9R 1517   1.916   3.335   7.221  1.7998  0.3993 -0.2617
   12SAPS  C210 1518   2.037   3.174   7.284  0.1709  0.5465  0.3892
   12SAPS  H10R 1519   2.120   3.247   7.296  0.8076  0.0192 -0.6534
   12SAPS  H10S 1520   2.083   3.083   7.241  2.7883  0.8780  2.2775
   12SAPS  C211 1521   1.987   3.144   7.426  0.2633 -0.5753  1.0300
   12SAPS  H11R 1522   1.984   3.234   7.490 -1.2595  1.1389 -1.2926
   12SAPS  C212 1523   1.947   3.029   7.476  0.0567 -0.0861  0.1407
   12SAPS  H12R 1524   1.901   3.024   7.576 -1.0231 -1.0943 -0.3755
   12SAPS  C213 1525   1.957   2.901   7.388 -0.1924 -0.3514 -0.1244
   12SAPS  H13R 1526   2.066   2.884   7.373  0.0275 -0.1803  1.2021
   12SAPS  H13S 1527   1.895   2.916   7.297 -1.2926  2.0272  0.9210
   12SAPS  C214 1528   1.905   2.778   7.456  0.1978 -0.2016 -0.3160
   12SAPS  H14R 1529   1.961   2.748   7.546  0.8211  1.5071 -0.1016
   12SAPS  C215 1530   1.806   2.694   7.413 -0.8141  0.4180  0.4334
   12SAPS  H15R 1531   1.795   2.598   7.467 -0.2238 -0.9504 -1.7495
   12SAPS  C216 1532   1.722   2.707   7.285  0.1751 -0.0601  0.2194
   12SAPS  H16R 1533   1.750   2.802   7.235  0.6005 -0.4753 -0.3423
   12SAPS  H16S 1534   1.613   2.710   7.307  0.3300 -0.6994  1.1438
   12SAPS  C217 1535   1.748   2.584   7.187  0.0339 -0.5498 -0.0035
   12SAPS  H17R 1536   1.709   2.492   7.234 -0.2462  0.3917  1.6766
   12SAPS  H17S 1537   1.855   2.554   7.183 -0.0491 -0.9914  0.8771
   12SAPS  C218 1538   1.710   2.618   7.044  0.4351 -0.1443 -0.2620
   12SAPS  H18R 1539   1.771   2.706   7.014 -0.9615  0.8744 -0.1968
   12SAPS  H18S 1540   1.606   2.655   7.032  1.1579  0.7861 -6.4228
   12SAPS  C219 1541   1.716   2.506   6.935  0.3989 -0.3052  0.0105
   12SAPS  H19R 1542   1.640   2.429   6.961 -1.2952  0.1710 -3.0288
   12SAPS  H19S 1543   1.823   2.478   6.944  0.3520 -0.3067  0.5767
   12SAPS  C220 1544   1.688   2.555   6.793  0.1892  0.6390 -0.3962
   12SAPS  H20R 1545   1.578   2.566   6.780  0.1025  0.3899  0.0914
   12SAPS  H20S 1546   1.697   2.466   6.727 -0.2097 -0.2422  0.7074
   12SAPS  H20T 1547   1.748   2.645   6.769  1.2602  0.1926  0.5051
   12SAPS   C33 1548   1.439   3.090   6.954  0.2036 -0.1182  0.4708
   12SAPS   H3X 1549   1.333   3.062   6.976  0.3353 -1.2397 -0.3050
   12SAPS   H3Y 1550   1.432   3.182   6.892 -2.4079 -0.5027  0.0810
   12SAPS   C34 1551   1.503   3.130   7.090 -0.2406 -0.5075  0.8449
   12SAPS   H4X 1552   1.452   3.218   7.134  1.4663  0.4136  1.0637
   12SAPS   H4Y 1553   1.606   3.166   7.069 -0.8370  1.0237  0.3677
   12SAPS   C35 1554   1.505   3.027   7.197  0.3310  0.2032  0.3649
   12SAPS   H5X 1555   1.553   2.932   7.165 -1.1540 -0.1912 -0.7724
   12SAPS   H5Y 1556   1.400   2.994   7.214  0.1680  0.2918 -0.4386
   12SAPS   C36 1557   1.570   3.070   7.333 -0.7749  0.2876  0.5801
   12SAPS   H6X 1558   1.533   3.169   7.369  1.3430  0.3225  2.9583
   12SAPS   H6Y 1559   1.678   3.092   7.322 -0.7744  0.1714  0.3548
   12SAPS   C37 1560   1.539   2.979   7.455 -0.2904 -0.2578  0.2676
   12SAPS   H7X 1561   1.635   2.974   7.511  0.3316  2.5288 -0.3728
   12SAPS   H7Y 1562   1.507   2.876   7.430  1.2140 -0.3776 -1.3808
   12SAPS   C38 1563   1.420   3.038   7.533  0.3728  0.7340 -0.5697
   12SAPS   H8X 1564   1.338   3.058   7.460 -1.3464  2.5169  1.7131
   12SAPS   H8Y 1565   1.452   3.133   7.580 -0.8478  1.3137 -0.8813
   12SAPS   C39 1566   1.378   2.929   7.633 -0.4809 -0.6167 -0.7859
   12SAPS   H9X 1567   1.464   2.879   7.683 -0.4196  0.9797  0.8136
   12SAPS   H9Y 1568   1.322   2.847   7.583  1.6539 -3.0395  0.5577
   12SAPS  C310 1569   1.295   2.984   7.750  0.2126 -0.2130  0.6895
   12SAPS  H10X 1570   1.196   3.008   7.706  0.0340 -0.3557  1.0055
   12SAPS  H10Y 1571   1.344   3.069   7.804  1.6238 -1.2001  1.0089
   12SAPS  C311 1572   1.253   2.884   7.849 -0.0605 -0.2433  0.1492
   12SAPS  H11X 1573   1.345   2.846   7.899  0.6974  1.8303  0.4333
   12SAPS  H11Y 1574   1.206   2.793   7.806 -4.1592  0.7640  1.9451
   12SAPS  C312 1575   1.157   2.941   7.960  0.1648 -0.3020  0.0493
   12SAPS  H12X 1576   1.049   2.935   7.933 -0.1847 -0.9066  1.4965
   12SAPS  H12Y 1577   1.183   3.049   7.961  2.0792 -0.6605 -2.0977
   12SAPS  C313 1578   1.176   2.885   8.105  0.0829 -0.4733  0.5893
   12SAPS  H13X 1579   1.100   2.926   8.176 -0.0205 -1.0039  0.7907
   12SAPS  H13Y 1580   1.280   2.902   8.138  0.9705 -0.4648 -1.9979
   12SAPS  C314 1581   1.149   2.730   8.114 -0.1761 -0.1747 -0.1893
   12SAPS  H14X 1582   1.208   2.671   8.041  1.9257 -0.5513  1.6819
   12SAPS  H14Y 1583   1.040   2.718   8.100 -0.0655  0.0584 -1.2803
   12SAPS  C315 1584   1.177   2.664   8.250  0.2563  1.0070 -0.2697
   12SAPS  H15X 1585   1.116   2.714   8.329  0.5020  0.4775  0.2605
   12SAPS  H15Y 1586   1.284   2.692   8.261  0.7916 -0.4326 -1.4967
   12SAPS  C316 1587   1.176   2.509   8.247  0.5127  0.1964 -0.5874
   12SAPS  H16X 1588   1.230   2.460   8.164  1.4473  2.2797 -1.2983
   12SAPS  H16Y 1589   1.069   2.485   8.235  0.7754 -1.8357  0.6836
   12SAPS  C317 1590   1.215   2.441   8.384  0.0225  0.6993  0.0423
   12SAPS  H17X 1591   1.190   2.334   8.368 -0.1862  0.4798  1.6617
   12SAPS  H17Y 1592   1.157   2.478   8.472  0.5564  2.5941 -0.3469
   12SAPS  C318 1593   1.364   2.449   8.410 -0.6014 -0.0221  0.1342
   12SAPS  H18X 1594   1.373   2.417   8.517 -1.2645 -1.0572 -0.1030
   12SAPS  H18Y 1595   1.402   2.552   8.393  2.0971 -1.2654 -2.1393
   12SAPS  H18Z 1596   1.407   2.367   8.349 -1.8360 -1.1820  0.7794
   13SAPS     N 1597   0.605   1.491   5.996  0.0996 -0.3483  0.5830
   13SAPS   HN1 1598   0.647   1.479   6.091  1.7972 -1.0809 -0.2283
   13SAPS   HN2 1599   0.673   1.510   5.920 -2.8809  0.9072 -1.9906
   13SAPS   HN3 1600   0.552   1.580   6.008  2.5519  1.1381  1.0202
   13SAPS   C12 1601   0.532   1.367   5.962  0.3989 -0.1097 -0.0125
   13SAPS  H12A 1602   0.443   1.353   6.021  0.4277 -2.7945 -0.5105
   13SAPS   C13 1603   0.463   1.374   5.825  0.2055 -0.1435 -0.1652
   13SAPS  O13A 1604   0.478   1.468   5.745 -0.3094 -0.4195  0.3317
   13SAPS  O13B 1605   0.387   1.280   5.791  0.4248  0.6889 -0.0750
   13SAPS   C11 1606   0.635   1.252   5.960  0.1335 -0.1182 -0.2381
   13SAPS  H11A 1607   0.713   1.276   5.884 -1.7939  1.4223 -1.8209
   13SAPS  H11B 1608   0.580   1.168   5.913  0.7632 -0.6110 -0.1151
   13SAPS     P 1609   0.842   1.173   6.115 -0.5877 -0.6687  0.1430
   13SAPS   O13 1610   0.855   1.037   6.072  0.2276  0.0319 -0.4475
   13SAPS   O14 1611   0.927   1.271   6.040 -0.0199  0.5389  0.2687
   13SAPS   O12 1612   0.685   1.223   6.096 -0.1170  0.0134 -0.2793
   13SAPS   O11 1613   0.870   1.196   6.267 -0.4021 -0.0159  0.6867
   13SAPS    C1 1614   0.777   1.157   6.370 -0.1569 -0.2788  0.5179
   13SAPS    HA 1615   0.697   1.086   6.342 -0.9966  0.8947 -0.1171
   13SAPS    HB 1616   0.840   1.123   6.455 -0.3547 -0.5395  0.5591
   13SAPS    C2 1617   0.704   1.286   6.421 -0.0926 -0.6811 -0.4942
   13SAPS    HS 1618   0.676   1.355   6.337 -3.0668 -0.8394  0.2442
   13SAPS   O21 1619   0.776   1.355   6.518  0.8079  0.1341 -0.1937
   13SAPS   C21 1620   0.886   1.418   6.488 -0.0392  0.0150  0.2290
   13SAPS   O22 1621   0.928   1.438   6.375 -0.1618 -0.2355 -0.5421
   13SAPS   C22 1622   0.963   1.450   6.617  0.0956  0.1863 -0.4206
   13SAPS   H2R 1623   1.026   1.534   6.581  1.5914 -0.8350 -0.2931
   13SAPS   H2S 1624   0.893   1.502   6.686 -2.7658  0.2504 -3.1318
   13SAPS    C3 1625   0.567   1.240   6.484  0.6800  0.1006 -0.3225
   13SAPS    HX 1626   0.517   1.183   6.402  0.5492  1.3072 -1.0998
   13SAPS    HY 1627   0.506   1.332   6.498 -0.1539 -0.5238  0.2362
   13SAPS   O31 1628   0.579   1.165   6.601 -0.3092  0.3290 -0.3258
   13SAPS   C31 1629   0.508   1.053   6.601 -0.2091 -0.1759 -0.3396
   13SAPS   O32 1630   0.417   1.031   6.524  0.8491 -0.2331  0.2937
   13SAPS   C32 1631   0.529   0.969   6.725  0.3489 -0.3342 -1.5185
   13SAPS   H2X 1632   0.607   0.893   6.704 -1.1265 -1.9515 -1.4024
   13SAPS   H2Y 1633   0.432   0.917   6.739 -1.3356  2.9004  0.0507
   13SAPS   C23 1634   1.050   1.335   6.672 -0.5651  0.2499 -0.3064
   13SAPS   H3R 1635   1.128   1.303   6.599 -0.8684  0.9860 -0.9640
   13SAPS   H3S 1636   0.982   1.253   6.703 -1.7214  2.0783  2.4036
   13SAPS   C24 1637   1.116   1.384   6.799 -0.3811 -0.0885  0.2657
   13SAPS   H4R 1638   1.173   1.302   6.846 -1.9373 -0.3406  1.8160
   13SAPS   H4S 1639   1.034   1.415   6.867  1.0754  1.6558  1.3021
   13SAPS   C25 1640   1.200   1.505   6.766  0.2673  0.7577  0.3423
   13SAPS   H5R 1641   1.254   1.498   6.670 -0.2037  0.4693  0.0952
   13SAPS   C26 1642   1.223   1.592   6.865 -0.6784  0.6138  0.4815
   13SAPS   H6R 1643   1.276   1.685   6.839  1.1820 -0.1052  1.5421
   13SAPS   C27 1644   1.157   1.592   7.002 -0.2030 -0.5450 -0.1687
   13SAPS   H7R 1645   1.048   1.612   6.993  0.1610  1.5340 -0.5496
   13SAPS   H7S 1646   1.188   1.688   7.048  0.8473  0.0328 -1.9913
   13SAPS   C28 1647   1.193   1.490   7.104  0.6420  0.3365 -0.2268
   13SAPS   H8R 1648   1.244   1.398   7.070  0.2292 -0.7428  1.8846
   13SAPS   C29 1649   1.179   1.500   7.240 -0.0374  0.4952 -0.2038
   13SAPS   H9R 1650   1.200   1.407   7.294 -0.6115  1.7333  2.2937
   13SAPS  C210 1651   1.125   1.612   7.320 -0.1724 -0.8293 -0.7274
   13SAPS  H10R 1652   1.034   1.580   7.376 -0.9436 -0.7153 -1.8925
   13SAPS  H10S 1653   1.071   1.686   7.256 -0.8733 -1.3821 -0.7834
   13SAPS  C211 1654   1.233   1.689   7.391  0.2389 -0.4094  0.1807
   13SAPS  H11R 1655   1.258   1.787   7.346 -2.8821  0.9477  1.1434
   13SAPS  C212 1656   1.300   1.651   7.507 -0.0238 -0.0318  0.2222
   13SAPS  H12R 1657   1.368   1.727   7.547 -2.6960  2.9483 -0.4438
   13SAPS  C213 1658   1.270   1.523   7.585  0.3118 -0.1424 -0.4088
   13SAPS  H13R 1659   1.362   1.460   7.590 -0.1808 -0.8236  0.1402
   13SAPS  H13S 1660   1.210   1.453   7.524 -2.1579  1.2656  0.2800
   13SAPS  C214 1661   1.211   1.560   7.722  0.7350 -0.8484  0.7705
   13SAPS  H14R 1662   1.104   1.581   7.714  0.9143 -0.5153 -1.6579
   13SAPS  C215 1663   1.270   1.571   7.842 -0.1807 -0.0349  0.0172
   13SAPS  H15R 1664   1.204   1.571   7.930 -1.4011 -4.4034 -0.6752
   13SAPS  C216 1665   1.414   1.540   7.880  0.1998  0.2462 -0.5071
   13SAPS  H16R 1666   1.450   1.644   7.891  1.6205 -0.3753  1.3231
   13SAPS  H16S 1667   1.476   1.497   7.799  1.4720 -0.5096  0.8094
   13SAPS  C217 1668   1.439   1.459   8.009 -0.2352  0.5430  0.6119
   13SAPS  H17R 1669   1.547   1.443   8.030 -0.2119 -0.7164 -0.3761
   13SAPS  H17S 1670   1.396   1.357   8.000  1.1517 -0.1107  1.1249
   13SAPS  C218 1671   1.394   1.543   8.137  0.3673 -0.5059 -0.0836
   13SAPS  H18R 1672   1.284   1.558   8.131  0.1446 -1.8054  0.5692
   13SAPS  H18S 1673   1.449   1.640   8.143 -0.7110  0.0336  1.7552
   13SAPS  C219 1674   1.427   1.469   8.265  0.3093  0.8271  0.6516
   13SAPS  H19R 1675   1.534   1.438   8.272  0.0014 -0.2617  0.6749
   13SAPS  H19S 1676   1.377   1.371   8.251  1.5174  0.3120 -0.2787
   13SAPS  C220 1677   1.398   1.552   8.388  0.0853 -1.0863  0.3761
   13SAPS  H20R 1678   1.291   1.584   8.389  0.2984 -0.0363 -2.2617
   13SAPS  H20S 1679   1.463   1.641   8.379 -0.1263 -0.8946  0.7096
   13SAPS  H20T 1680   1.427   1.496   8.479  1.8227 -3.0699 -1.3062
   13SAPS   C33 1681   0.577   1.048   6.845  0.0091 -0.4662  0.1892
   13SAPS   H3X 1682   0.506   1.131   6.864 -0.7207 -0.5292 -1.9627
   13SAPS   H3Y 1683   0.670   1.103   6.820 -1.5838  1.8816 -0.9493
   13SAPS   C34 1684   0.574   0.975   6.979 -0.0756 -0.0427 -0.2170
   13SAPS   H4X 1685   0.668   0.916   6.985 -0.3895 -0.4664  0.6892
   13SAPS   H4Y 1686   0.486   0.907   6.980  0.4280 -0.7537 -1.5675
   13SAPS   C35 1687   0.567   1.064   7.108  0.7006  0.0876  0.3717
   13SAPS   H5X 1688   0.462   1.092   7.130 -0.4178  0.5392 -4.5550
   13SAPS   H5Y 1689   0.624   1.159   7.099  1.1739 -0.2752 -0.5110
   13SAPS   C36 1690   0.615   0.984   7.228 -0.2640  0.7600 -0.1556
   13SAPS   H6X 1691   0.711   0.930   7.210 -1.0079 -0.8952  0.5767
   13SAPS   H6Y 1692   0.546   0.899   7.246 -0.6869  0.6364 -2.1286
   13SAPS   C37 1693   0.627   1.060   7.360 -0.0572  1.1128 -1.0118
   13SAPS   H7X 1694   0.525   1.100   7.375 -0.8509 -1.4313  1.0380
   13SAPS   H7Y 1695   0.703   1.139   7.340  0.2859  0.9292 -0.4399
   13SAPS   C38 1696   0.675   0.982   7.480 -0.2172  0.0026 -0.3615
   13SAPS   H8X 1697   0.782   0.955   7.470  0.2413  1.1134  1.2209
   13SAPS   H8Y 1698   0.627   0.882   7.486 -2.2618  1.0198  2.6735
   13SAPS   C39 1699   0.638   1.061   7.601  0.3550 -0.0440  0.1347
   13SAPS   H9X 1700   0.530   1.087   7.601 -0.1088 -1.8102 -1.2025
   13SAPS   H9Y 1701   0.697   1.155   7.599 -0.4066  0.4412  0.2832
   13SAPS  C310 1702   0.647   0.972   7.728 -0.7325 -0.3342  0.2003
   13SAPS  H10X 1703   0.754   0.943   7.741 -0.5425  0.7957  1.3536
   13SAPS  H10Y 1704   0.587   0.880   7.710 -0.3490 -1.1763  2.7820
   13SAPS  C311 1705   0.598   1.036   7.859 -0.3029 -0.3770 -0.4727
   13SAPS  H11X 1706   0.581   0.959   7.937  0.4963  0.4086  0.5099
   13SAPS  H11Y 1707   0.506   1.097   7.849  0.6499  1.2180  0.0910
   13SAPS  C312 1708   0.699   1.125   7.937  0.3073  0.0704  0.1652
   13SAPS  H12X 1709   0.735   1.204   7.868  1.5508 -0.2253  0.4565
   13SAPS  H12Y 1710   0.783   1.066   7.979 -1.2725 -1.3613  1.4931
   13SAPS  C313 1711   0.623   1.195   8.049 -0.1889  0.0730  0.1558
   13SAPS  H13X 1712   0.556   1.119   8.094 -3.2795 -0.6090 -4.8380
   13SAPS  H13Y 1713   0.552   1.272   8.012  0.4280  0.0430 -1.1674
   13SAPS  C314 1714   0.709   1.265   8.160 -0.2774 -0.1089 -0.2811
   13SAPS  H14X 1715   0.800   1.313   8.118 -0.8255  2.0790  0.8728
   13SAPS  H14Y 1716   0.746   1.188   8.230  2.6219  0.2256 -1.2810
   13SAPS  C315 1717   0.621   1.358   8.246  0.7541 -0.1891  0.4463
   13SAPS  H15X 1718   0.533   1.302   8.284 -0.0527 -0.3501 -1.5446
   13SAPS  H15Y 1719   0.585   1.446   8.189 -1.1700 -0.9950  0.3468
   13SAPS  C316 1720   0.693   1.426   8.369  0.3926 -0.6883  0.1178
   13SAPS  H16X 1721   0.628   1.505   8.412  1.2138 -0.2128  0.5005
   13SAPS  H16Y 1722   0.782   1.480   8.330 -0.2741  0.3264 -0.0596
   13SAPS  C317 1723   0.727   1.324   8.482 -0.3777 -0.6336 -0.8932
   13SAPS  H17X 1724   0.787   1.238   8.443  3.5561  1.5700 -0.2345
   13SAPS  H17Y 1725   0.630   1.287   8.522  0.3840 -0.0665  1.6589
   13SAPS  C318 1726   0.811   1.382   8.599  0.3294  0.1749  0.3340
   13SAPS  H18X 1727   0.818   1.304   8.678  4.1249  1.4153  1.4906
   13SAPS  H18Y 1728   0.755   1.463   8.652 -0.9884 -0.8395  0.5462
   13SAPS  H18Z 1729   0.910   1.422   8.567 -0.4904  3.8825  1.8625
   14SAPS     N 1730   0.633   2.733   5.726 -0.0906  0.3192  0.5398
   14SAPS   HN1 1731   0.544   2.787   5.718 -0.7100 -0.8454 -0.6826
   14SAPS   HN2 1732   0.688   2.737   5.638 -1.2650  1.7933 -0.1826
   14SAPS   HN3 1733   0.611   2.633   5.745 -3.7747  0.5175 -1.8125
   14SAPS   C12 1734   0.711   2.779   5.843 -0.1825 -0.4619  0.1365
   14SAPS  H12A 1735   0.778   2.697   5.866 -1.3682 -1.2446  0.8704
   14SAPS   C13 1736   0.805   2.897   5.821 -0.1990  0.5811  0.1881
   14SAPS  O13A 1737   0.812   2.948   5.710  0.2011  0.6294  0.5553
   14SAPS  O13B 1738   0.885   2.920   5.917 -0.1172 -0.4470  0.3095
   14SAPS   C11 1739   0.612   2.822   5.956  0.0447 -0.1932 -0.2274
   14SAPS  H11A 1740   0.668   2.849   6.049  0.6888  0.2842 -0.7428
   14SAPS  H11B 1741   0.541   2.739   5.977  2.0316 -1.8352  0.4937
   14SAPS     P 1742   0.461   3.034   5.985 -0.0535  0.0495  0.1477
   14SAPS   O13 1743   0.545   3.155   5.999  0.4258  0.0941  0.3907
   14SAPS   O14 1744   0.329   3.060   5.919 -0.1424 -0.3005 -0.7091
   14SAPS   O12 1745   0.537   2.929   5.897 -0.4739 -0.4795 -0.0810
   14SAPS   O11 1746   0.434   2.965   6.125  0.0716  0.4573  0.5473
   14SAPS    C1 1747   0.325   2.879   6.146 -0.1957 -0.4881 -0.2405
   14SAPS    HA 1748   0.231   2.937   6.138  1.2504  1.8654 -1.3042
   14SAPS    HB 1749   0.319   2.807   6.061  2.6990 -1.2351  0.0824
   14SAPS    C2 1750   0.347   2.813   6.278 -0.0954  0.7633 -0.4498
   14SAPS    HS 1751   0.267   2.740   6.304  1.7321 -1.2443 -0.1452
   14SAPS   O21 1752   0.350   2.911   6.388  0.3839 -0.0195  0.1031
   14SAPS   C21 1753   0.236   2.946   6.436 -0.0723  0.6304 -0.6512
   14SAPS   O22 1754   0.122   2.919   6.399  0.0799 -0.1550  0.0181
   14SAPS   C22 1755   0.260   3.028   6.562 -0.4864  0.5594  0.4775
   14SAPS   H2R 1756   0.318   2.967   6.634  0.7174  1.0761 -0.0257
   14SAPS   H2S 1757   0.311   3.126   6.546  0.0692  1.0079  4.1876
   14SAPS    C3 1758   0.485   2.734   6.282  0.3177  0.6972 -0.5769
   14SAPS    HX 1759   0.560   2.799   6.232  1.4364  0.5710  0.8551
   14SAPS    HY 1760   0.492   2.639   6.225 -2.0119 -0.2172  0.4973
   14SAPS   O31 1761   0.526   2.699   6.415  0.3421  0.4257 -0.5231
   14SAPS   C31 1762   0.487   2.590   6.464  0.9989 -0.0603  0.1502
   14SAPS   O32 1763   0.418   2.507   6.419  0.1295  0.0795  0.4871
   14SAPS   C32 1764   0.558   2.569   6.603 -0.8832 -0.2078  0.3181
   14SAPS   H2X 1765   0.537   2.665   6.656 -2.5228  0.2318 -1.0515
   14SAPS   H2Y 1766   0.668   2.566   6.587 -0.5795 -1.8054  2.2304
   14SAPS   C23 1767   0.122   3.057   6.636 -0.0849 -0.0497 -0.1862
   14SAPS   H3R 1768   0.078   2.958   6.659  1.2294 -1.1411 -2.0200
   14SAPS   H3S 1769   0.062   3.109   6.559  0.8050  0.5030 -0.5290
   14SAPS   C24 1770   0.129   3.141   6.761 -0.4286  0.3276  0.1614
   14SAPS   H4R 1771   0.025   3.159   6.795  0.0438  0.8207  1.3887
   14SAPS   H4S 1772   0.162   3.246   6.740  2.7305 -0.1945  1.8264
   14SAPS   C25 1773   0.215   3.096   6.872  0.0144 -0.2132  0.4453
   14SAPS   H5R 1774   0.321   3.099   6.841  0.0654 -0.6903  0.5650
   14SAPS   C26 1775   0.180   3.060   6.995 -0.0869 -0.2937  0.3829
   14SAPS   H6R 1776   0.247   3.019   7.072  1.9288  1.0361 -0.5495
   14SAPS   C27 1777   0.041   3.044   7.041 -0.6891 -0.3586  0.6869
   14SAPS   H7R 1778   0.022   2.938   7.065 -0.3891 -0.5096  0.2729
   14SAPS   H7S 1779  -0.034   3.068   6.962 -1.1280  1.4263  1.6057
   14SAPS   C28 1780   0.012   3.137   7.154  0.3923  0.1384  0.6513
   14SAPS   H8R 1781  -0.037   3.234   7.138  0.7270  0.1756 -0.2412
   14SAPS   C29 1782   0.030   3.103   7.284 -0.4493 -0.4117 -0.1161
   14SAPS   H9R 1783  -0.001   3.188   7.346  0.3834 -0.1498 -0.0456
   14SAPS  C210 1784   0.096   2.987   7.357 -0.1986 -0.2225 -0.0906
   14SAPS  H10R 1785   0.128   2.911   7.283 -1.3074 -2.8520  1.9604
   14SAPS  H10S 1786   0.016   2.933   7.413 -0.9044  0.2491 -0.6214
   14SAPS  C211 1787   0.217   3.015   7.447 -0.1703 -0.5417 -0.1790
   14SAPS  H11R 1788   0.315   3.007   7.398 -0.7724  1.2521 -1.7870
   14SAPS  C212 1789   0.218   3.039   7.576  0.8411 -0.2276  0.2668
   14SAPS  H12R 1790   0.312   3.059   7.630  1.3381  4.3319 -1.8796
   14SAPS  C213 1791   0.102   3.034   7.677 -0.1202  0.0037  0.2189
   14SAPS  H13R 1792   0.007   3.021   7.622  0.9375 -1.8852 -1.3000
   14SAPS  H13S 1793   0.100   3.119   7.749 -0.5346  0.6740 -0.5725
   14SAPS  C214 1794   0.125   2.900   7.753 -0.5280 -0.6934  0.2534
   14SAPS  H14R 1795   0.132   2.807   7.694 -1.4319 -0.7245  0.1782
   14SAPS  C215 1796   0.119   2.879   7.886  0.2814  0.4748 -0.2802
   14SAPS  H15R 1797   0.111   2.777   7.926  0.4709  1.1368  1.5312
   14SAPS  C216 1798   0.083   2.991   7.980 -0.1612 -0.1257  0.4331
   14SAPS  H16R 1799  -0.004   2.944   8.031 -0.8319 -0.9815 -1.4242
   14SAPS  H16S 1800   0.043   3.080   7.926  3.8382  1.5149 -0.1418
   14SAPS  C217 1801   0.201   3.034   8.078  0.0583  0.1331  0.7590
   14SAPS  H17R 1802   0.160   3.128   8.123  0.5915  0.9018 -0.3278
   14SAPS  H17S 1803   0.292   3.067   8.024  0.1052 -0.2583  0.5958
   14SAPS  C218 1804   0.223   2.941   8.203 -0.0385 -0.6195 -0.1353
   14SAPS  H18R 1805   0.228   2.832   8.178  0.4303 -1.1114  1.9750
   14SAPS  H18S 1806   0.134   2.945   8.270 -0.2058  0.1314 -0.3929
   14SAPS  C219 1807   0.347   2.981   8.281 -0.2619 -0.4485  0.5292
   14SAPS  H19R 1808   0.362   3.088   8.305 -0.6337  0.0155 -1.1597
   14SAPS  H19S 1809   0.445   2.964   8.231  0.0763 -2.4541  1.7339
   14SAPS  C220 1810   0.343   2.907   8.412 -0.0490 -0.6388 -0.4963
   14SAPS  H20R 1811   0.259   2.937   8.478  0.9449  0.2921  0.3730
   14SAPS  H20S 1812   0.442   2.930   8.456 -0.6668  2.6230 -0.5741
   14SAPS  H20T 1813   0.348   2.796   8.405  0.7909 -0.5698 -1.1794
   14SAPS   C33 1814   0.523   2.436   6.690 -0.3124  0.1683  0.6196
   14SAPS   H3X 1815   0.488   2.355   6.623  1.6848 -0.1121 -0.1467
   14SAPS   H3Y 1816   0.447   2.459   6.768  1.0695  1.9232  1.5252
   14SAPS   C34 1817   0.657   2.382   6.755  0.1041 -0.1771 -0.3611
   14SAPS   H4X 1818   0.686   2.454   6.835 -0.6426  1.6516 -1.6701
   14SAPS   H4Y 1819   0.741   2.369   6.683  2.3729 -1.9906  2.3807
   14SAPS   C35 1820   0.640   2.235   6.819 -0.0945  0.0798  0.4862
   14SAPS   H5X 1821   0.725   2.207   6.885  0.9265  0.3005 -0.6967
   14SAPS   H5Y 1822   0.635   2.161   6.736 -0.7410  0.1707  0.4385
   14SAPS   C36 1823   0.511   2.218   6.899  0.4986  0.1530 -0.5690
   14SAPS   H6X 1824   0.424   2.255   6.841  0.6105  0.3745 -0.5935
   14SAPS   H6Y 1825   0.503   2.278   6.992 -3.0250 -0.3393 -0.4283
   14SAPS   C37 1826   0.487   2.065   6.930  0.1074 -0.3345 -0.0610
   14SAPS   H7X 1827   0.457   2.023   6.832 -4.3735 -0.6955  1.2535
   14SAPS   H7Y 1828   0.403   2.049   7.000  0.4999 -1.0573  0.2539
   14SAPS   C38 1829   0.609   2.000   6.994  0.5408 -0.5939  0.4288
   14SAPS   H8X 1830   0.674   2.077   7.041 -0.4772 -0.3158  1.4222
   14SAPS   H8Y 1831   0.669   1.963   6.908  1.5613 -0.7682  1.2075
   14SAPS   C39 1832   0.563   1.882   7.086 -0.5504  1.0347 -0.1509
   14SAPS   H9X 1833   0.659   1.828   7.103  1.5505  4.2271 -0.9603
   14SAPS   H9Y 1834   0.499   1.804   7.040  0.6484 -0.8676  1.2643
   14SAPS  C310 1835   0.490   1.924   7.216  0.5524  0.3054 -0.1575
   14SAPS  H10X 1836   0.396   1.981   7.197 -0.4405 -0.9388  0.8077
   14SAPS  H10Y 1837   0.561   1.995   7.264  0.4892 -0.5068  1.1908
   14SAPS  C311 1838   0.449   1.804   7.308 -0.9271 -0.8315 -0.2466
   14SAPS  H11X 1839   0.522   1.723   7.285  0.4838  0.6405 -1.2242
   14SAPS  H11Y 1840   0.357   1.748   7.280 -1.2667 -0.5518  0.2989
   14SAPS  C312 1841   0.462   1.838   7.460  0.2625  0.0190  0.3511
   14SAPS  H12X 1842   0.571   1.857   7.467  0.5032 -1.2784  0.4154
   14SAPS  H12Y 1843   0.437   1.747   7.518 -1.1535  0.9460  1.2641
   14SAPS  C313 1844   0.374   1.950   7.514 -0.4597  0.5836  0.0641
   14SAPS  H13X 1845   0.266   1.947   7.491 -0.5179  0.0811  0.3904
   14SAPS  H13Y 1846   0.399   2.046   7.462 -4.4031  1.1725 -1.0894
   14SAPS  C314 1847   0.383   1.974   7.666 -0.3419  0.3384 -0.0549
   14SAPS  H14X 1848   0.334   1.891   7.722  0.9406  0.2564  0.9932
   14SAPS  H14Y 1849   0.327   2.069   7.684  0.2520  1.1295 -2.1761
   14SAPS  C315 1850   0.521   1.989   7.730  0.2738 -0.2099 -0.1823
   14SAPS  H15X 1851   0.590   2.047   7.664 -1.7329  1.5953 -0.7923
   14SAPS  H15Y 1852   0.561   1.886   7.723  2.0656  0.3777  0.6405
   14SAPS  C316 1853   0.524   2.030   7.878  0.3444 -0.0676 -0.1825
   14SAPS  H16X 1854   0.490   1.941   7.935 -0.6826  0.3363 -0.1442
   14SAPS  H16Y 1855   0.454   2.116   7.878 -0.3746 -0.6368  0.0071
   14SAPS  C317 1856   0.657   2.055   7.933 -0.4626  0.0909 -0.0218
   14SAPS  H17X 1857   0.708   2.140   7.883  2.0863 -0.3913  1.5608
   14SAPS  H17Y 1858   0.734   1.974   7.931 -1.1805 -0.5870 -1.3815
   14SAPS  C318 1859   0.653   2.106   8.074  0.0896 -0.5665 -0.3069
   14SAPS  H18X 1860   0.748   2.155   8.104 -0.4857 -1.2125  2.8514
   14SAPS  H18Y 1861   0.636   2.028   8.151 -0.8976  1.9708  2.2219
   14SAPS  H18Z 1862   0.573   2.183   8.077 -0.8494 -1.3036 -3.0659
   15SAPS     N 1863   2.462   2.670   5.969  0.1875  0.3861  0.1459
   15SAPS   HN1 1864   2.557   2.637   5.991  0.2742 -0.3551 -1.2529
   15SAPS   HN2 1865   2.464   2.774   5.981 -1.3780  0.3810  0.6799
   15SAPS   HN3 1866   2.392   2.639   6.039 -1.0987  1.2872 -0.6853
   15SAPS   C12 1867   2.419   2.619   5.833  0.6994  0.2104  0.1327
   15SAPS  H12A 1868   2.423   2.702   5.764 -1.2881 -0.7062 -1.1785
   15SAPS   C13 1869   2.518   2.508   5.786 -0.4867 -0.6952 -0.2384
   15SAPS  O13A 1870   2.618   2.479   5.860  0.6595 -0.1866  0.0704
   15SAPS  O13B 1871   2.510   2.466   5.669 -0.0678  0.5280 -0.4543
   15SAPS   C11 1872   2.279   2.548   5.828  0.6830  0.4946 -0.8915
   15SAPS  H11A 1873   2.259   2.502   5.729  0.1966 -0.1905 -0.4908
   15SAPS  H11B 1874   2.195   2.621   5.818 -1.3860 -1.7934 -1.3135
   15SAPS     P 1875   2.121   2.379   5.947  0.1520  0.3330  0.2689
   15SAPS   O13 1876   2.001   2.470   5.924 -0.5384  0.1391 -0.3706
   15SAPS   O14 1877   2.137   2.263   5.851 -0.4122  0.5339  0.0416
   15SAPS   O12 1878   2.248   2.462   5.937 -0.3950 -0.2742  0.3499
   15SAPS   O11 1879   2.136   2.341   6.099  0.3643  0.3727 -0.6769
   15SAPS    C1 1880   2.237   2.251   6.131 -0.2812 -0.6672  0.1680
   15SAPS    HA 1881   2.236   2.162   6.064 -1.4526  0.2466 -1.0729
   15SAPS    HB 1882   2.339   2.293   6.117 -1.3205  1.4994 -1.4041
   15SAPS    C2 1883   2.221   2.204   6.277 -0.1507  0.0530  0.1501
   15SAPS    HS 1884   2.114   2.173   6.279  0.8713 -4.4120 -2.2280
   15SAPS   O21 1885   2.262   2.319   6.362 -0.7222  0.1354  0.1029
   15SAPS   C21 1886   2.160   2.374   6.427  0.4194 -0.5881  0.2059
   15SAPS   O22 1887   2.043   2.336   6.421 -0.1707  0.2025  0.2813
   15SAPS   C22 1888   2.215   2.494   6.508 -0.0236 -0.5811  0.4693
   15SAPS   H2R 1889   2.310   2.465   6.557 -0.0387 -0.9835  0.2707
   15SAPS   H2S 1890   2.241   2.576   6.438 -2.4291  0.3428  0.5466
   15SAPS    C3 1891   2.302   2.067   6.301  0.4519  0.3692  0.2883
   15SAPS    HX 1892   2.405   2.098   6.273  0.7584  1.4265  2.4060
   15SAPS    HY 1893   2.272   1.976   6.244 -1.1031  1.1726 -0.2412
   15SAPS   O31 1894   2.292   2.037   6.441 -0.3766 -0.0664  0.0906
   15SAPS   C31 1895   2.418   2.004   6.487 -0.2105 -0.2004 -0.6285
   15SAPS   O32 1896   2.515   1.980   6.420  0.0247 -0.3958  0.4272
   15SAPS   C32 1897   2.422   1.990   6.643 -0.0330  0.2673 -0.2331
   15SAPS   H2X 1898   2.514   2.042   6.677 -0.0113 -1.0785  1.9187
   15SAPS   H2Y 1899   2.420   1.882   6.669 -0.9024  0.6043  1.1807
   15SAPS   C23 1900   2.112   2.550   6.612 -0.3794  0.6306 -0.0330
   15SAPS   H3R 1901   2.027   2.579   6.546  1.1650  0.6967 -2.1185
   15SAPS   H3S 1902   2.149   2.640   6.664  1.5857 -0.2807  0.2240
   15SAPS   C24 1903   2.089   2.441   6.716  0.1429  0.9309  0.5056
   15SAPS   H4R 1904   2.055   2.347   6.668 -3.4005  0.8644  2.7996
   15SAPS   H4S 1905   1.999   2.476   6.770 -0.0268 -0.8937  1.4946
   15SAPS   C25 1906   2.203   2.422   6.819 -0.0583 -0.3531 -0.2833
   15SAPS   H5R 1907   2.276   2.346   6.788 -0.8382 -0.2245 -2.6566
   15SAPS   C26 1908   2.220   2.489   6.936 -0.7497 -0.3185  0.4228
   15SAPS   H6R 1909   2.306   2.468   7.002  0.5509 -0.2616 -1.2028
   15SAPS   C27 1910   2.129   2.597   6.987  0.5692 -0.0535  0.9144
   15SAPS   H7R 1911   2.067   2.565   7.072 -0.4566 -0.5999 -0.0123
   15SAPS   H7S 1912   2.045   2.619   6.918 -0.1119  1.5612  2.1880
   15SAPS   C28 1913   2.207   2.725   7.013  0.8352 -0.0566 -0.0873
   15SAPS   H8R 1914   2.223   2.791   6.927  2.7846  1.7380  1.5682
   15SAPS   C29 1915   2.271   2.747   7.129 -0.2150 -0.4363 -0.2424
   15SAPS   H9R 1916   2.324   2.841   7.148 -0.8124 -0.3964  1.3589
   15SAPS  C210 1917   2.276   2.662   7.248  0.0808 -0.4840  0.2201
   15SAPS  H10R 1918   2.234   2.562   7.222 -0.9609  0.1252 -0.4888
   15SAPS  H10S 1919   2.210   2.697   7.330 -0.6920  1.6845 -1.2445
   15SAPS  C211 1920   2.415   2.648   7.302  0.3550 -0.2279 -0.0649
   15SAPS  H11R 1921   2.465   2.555   7.275  4.0841  1.7792 -0.6949
   15SAPS  C212 1922   2.477   2.721   7.389 -0.5268 -0.9070 -0.6344
   15SAPS  H12R 1923   2.583   2.696   7.403  0.0305  0.6082 -1.8589
   15SAPS  C213 1924   2.420   2.849   7.458  0.0476  0.1087  0.5138
   15SAPS  H13R 1925   2.332   2.815   7.516 -0.4252 -0.3286 -0.4245
   15SAPS  H13S 1926   2.397   2.930   7.385  0.2851  1.2092  1.6382
   15SAPS  C214 1927   2.526   2.906   7.547 -0.0716  0.4436 -0.3600
   15SAPS  H14R 1928   2.621   2.928   7.497  0.3134  0.4768  0.3853
   15SAPS  C215 1929   2.524   2.911   7.684  1.2400  0.5096 -0.0469
   15SAPS  H15R 1930   2.596   2.969   7.744 -0.2172  0.4691  1.8051
   15SAPS  C216 1931   2.405   2.872   7.775 -0.2406  0.4148  0.4181
   15SAPS  H16R 1932   2.410   2.761   7.766  1.3762  0.5643 -1.3202
   15SAPS  H16S 1933   2.305   2.895   7.732 -1.2207 -1.1003  1.7528
   15SAPS  C217 1934   2.413   2.914   7.923  0.1752 -0.4225 -0.1619
   15SAPS  H17R 1935   2.446   3.020   7.927  0.8820 -0.6563  0.4843
   15SAPS  H17S 1936   2.489   2.849   7.972  0.0837 -0.9579 -0.7195
   15SAPS  C218 1937   2.282   2.884   8.002 -0.0453  0.3120  0.0596
   15SAPS  H18R 1938   2.286   2.777   8.032  0.7308  0.5614  0.8857
   15SAPS  H18S 1939   2.199   2.911   7.934 -0.1909 -0.8115 -0.2294
   15SAPS  C219 1940   2.270   2.959   8.132  0.0849  0.3785 -0.0361
   15SAPS  H19R 1941   2.247   3.066   8.114  0.3447  0.3337 -0.6668
   15SAPS  H19S 1942   2.369   2.952   8.181 -0.0421 -1.1466  0.0760
   15SAPS  C220 1943   2.167   2.899   8.224 -0.0362  0.0750 -0.2104
   15SAPS  H20R 1944   2.190   2.793   8.249 -1.8159 -0.5040 -0.8562
   15SAPS  H20S 1945   2.068   2.910   8.176 -0.6342  2.0995  1.3287
   15SAPS  H20T 1946   2.170   2.954   8.321  0.5820 -0.0282 -0.1664
   15SAPS   C33 1947   2.317   2.074   6.714  0.6973 -0.0120  0.4837
   15SAPS   H3X 1948   2.216   2.033   6.692  0.7935  0.6313 -1.3905
   15SAPS   H3Y 1949   2.326   2.182   6.692 -1.0844 -0.0197 -0.4485
   15SAPS   C34 1950   2.326   2.063   6.869  0.3035  0.3403 -0.8218
   15SAPS   H4X 1951   2.264   2.133   6.930 -0.8192 -1.5047  0.2470
   15SAPS   H4Y 1952   2.430   2.083   6.904 -0.9470  3.4234  1.7049
   15SAPS   C35 1953   2.290   1.918   6.917  0.2066 -0.2951 -0.3126
   15SAPS   H5X 1954   2.379   1.854   6.898  0.2552  0.8249 -5.1246
   15SAPS   H5Y 1955   2.211   1.882   6.848  0.2061  2.4406 -1.8888
   15SAPS   C36 1956   2.255   1.916   7.065 -0.6505  0.0390  0.2329
   15SAPS   H6X 1957   2.230   1.810   7.086 -3.4122  0.5335 -0.1743
   15SAPS   H6Y 1958   2.172   1.985   7.090 -1.4614 -1.1103  0.8274
   15SAPS   C37 1959   2.378   1.953   7.158  0.3749  0.2957  0.2727
   15SAPS   H7X 1960   2.407   2.057   7.134 -1.7344  0.5806 -1.3628
   15SAPS   H7Y 1961   2.466   1.891   7.128  0.6087 -0.2855  2.0302
   15SAPS   C38 1962   2.364   1.933   7.315 -0.6038 -0.0086  0.5733
   15SAPS   H8X 1963   2.306   2.012   7.367 -0.2915  0.0860  0.7775
   15SAPS   H8Y 1964   2.466   1.930   7.358 -0.4720 -1.9935  0.2107
   15SAPS   C39 1965   2.323   1.784   7.343  0.5607 -0.2105 -0.0950
   15SAPS   H9X 1966   2.381   1.720   7.274 -0.5389  0.3958 -1.6741
   15SAPS   H9Y 1967   2.216   1.770   7.314  0.2620 -1.9049  1.6469
   15SAPS  C310 1968   2.328   1.740   7.488 -0.3151  0.4026 -0.1573
   15SAPS  H10X 1969   2.437   1.746   7.512 -0.0939  1.8579 -1.3253
   15SAPS  H10Y 1970   2.299   1.633   7.495 -0.1679  0.4788  2.7844
   15SAPS  C311 1971   2.233   1.819   7.578 -0.0305 -0.4550 -0.0488
   15SAPS  H11X 1972   2.128   1.802   7.546 -0.6272  2.9797 -0.2181
   15SAPS  H11Y 1973   2.259   1.927   7.583  1.6280 -0.8486  0.8581
   15SAPS  C312 1974   2.232   1.770   7.728  0.6695  0.5874  0.6067
   15SAPS  H12X 1975   2.226   1.660   7.732  0.1763  0.5665 -0.3268
   15SAPS  H12Y 1976   2.149   1.821   7.781  1.8982  2.1725  1.0846
   15SAPS  C313 1977   2.357   1.819   7.808 -0.4222  0.3117 -0.4464
   15SAPS  H13X 1978   2.346   1.930   7.809  0.8884  0.4717 -1.2042
   15SAPS  H13Y 1979   2.447   1.789   7.750  0.0555  2.1410 -0.7217
   15SAPS  C314 1980   2.342   1.761   7.950 -0.2899  0.5500 -0.5989
   15SAPS  H14X 1981   2.297   1.660   7.943 -0.3096  0.4852  0.3655
   15SAPS  H14Y 1982   2.265   1.821   8.003 -0.2746  0.0745 -0.0268
   15SAPS  C315 1983   2.459   1.748   8.045  0.4043  0.1803 -0.8683
   15SAPS  H15X 1984   2.525   1.836   8.046 -0.0557  0.6399 -3.6557
   15SAPS  H15Y 1985   2.528   1.672   8.002 -0.3488 -0.8001 -0.4106
   15SAPS  C316 1986   2.417   1.714   8.192 -0.6566  0.9793  0.4534
   15SAPS  H16X 1987   2.347   1.793   8.226  0.7505  2.1574  0.6963
   15SAPS  H16Y 1988   2.506   1.719   8.257  0.3174 -0.7564 -0.6579
   15SAPS  C317 1989   2.371   1.571   8.192 -1.1061  0.8337  0.3433
   15SAPS  H17X 1990   2.422   1.512   8.113 -0.4693  1.3882  0.3352
   15SAPS  H17Y 1991   2.265   1.575   8.158 -1.3412 -0.8476  0.7893
   15SAPS  C318 1992   2.383   1.502   8.326  0.7752 -0.5465  0.0619
   15SAPS  H18X 1993   2.374   1.392   8.312 -0.7334 -0.6358  1.4592
   15SAPS  H18Y 1994   2.303   1.534   8.396 -1.1044 -3.9358 -0.3152
   15SAPS  H18Z 1995   2.479   1.523   8.378  0.4001  0.7636  0.2752
   16SAPS     N 1996   5.315   3.530   6.720  0.3678  0.3448  0.4460
   16SAPS   HN1 1997   5.406   3.479   6.724  0.7256  1.0037  0.8599
   16SAPS   HN2 1998   5.318   3.612   6.784  3.7450 -0.4825  1.5457
   16SAPS   HN3 1999   5.239   3.478   6.768  1.1238 -1.1984  0.0316
   16SAPS   C12 2000   5.286   3.565   6.579  0.8290 -0.9008 -0.1650
   16SAPS  H12A 2001   5.374   3.614   6.541 -0.4760  3.1214  1.4371
   16SAPS   C13 2002   5.245   3.439   6.494 -0.2663  0.0980 -0.0433
   16SAPS  O13A 2003   5.233   3.325   6.541  0.6442  0.3986 -0.3641
   16SAPS  O13B 2004   5.260   3.456   6.371 -0.8821 -0.4630  0.1401
   16SAPS   C11 2005   5.170   3.666   6.573 -0.0470  0.3674  0.2288
   16SAPS  H11A 2006   5.165   3.706   6.470 -2.7432 -0.9484 -0.2558
   16SAPS  H11B 2007   5.194   3.757   6.631 -0.8318 -0.3247  1.7028
   16SAPS     P 2008   4.916   3.688   6.621  0.1454  0.2968 -0.0197
   16SAPS   O13 2009   4.855   3.707   6.491 -0.4181 -0.0003 -0.0128
   16SAPS   O14 2010   4.822   3.633   6.719  0.4350 -0.0041  0.8659
   16SAPS   O12 2011   5.047   3.605   6.610 -0.3933  0.1215  0.2217
   16SAPS   O11 2012   4.968   3.821   6.681  0.1179  0.0341 -0.2589
   16SAPS    C1 2013   5.014   3.839   6.818 -0.1180  0.8952 -0.2800
   16SAPS    HA 2014   4.981   3.748   6.873 -1.1774  1.2156 -0.3686
   16SAPS    HB 2015   5.123   3.857   6.819  0.5102 -2.0042  2.9107
   16SAPS    C2 2016   4.951   3.961   6.892 -0.1548  0.0642 -0.6743
   16SAPS    HS 2017   5.014   3.980   6.981  0.7915 -1.6486 -0.9347
   16SAPS   O21 2018   4.819   3.938   6.938  0.0773 -0.6897  0.5220
   16SAPS   C21 2019   4.794   3.836   7.023  0.5322 -0.3680 -0.0995
   16SAPS   O22 2020   4.869   3.756   7.070 -0.2214  0.9139  0.4022
   16SAPS   C22 2021   4.639   3.847   7.046 -0.1848 -0.0691  0.0654
   16SAPS   H2R 2022   4.609   3.953   7.060  0.8132  0.3205 -0.6305
   16SAPS   H2S 2023   4.588   3.806   6.956 -0.0063 -1.7919  0.7120
   16SAPS    C3 2024   4.947   4.083   6.805 -0.1568  0.0373  0.8895
   16SAPS    HX 2025   4.895   4.163   6.863  0.4719 -0.6346  2.4262
   16SAPS    HY 2026   4.893   4.058   6.712  0.7592  1.2732 -0.0187
   16SAPS   O31 2027   5.086   4.117   6.763  0.1891  0.3317 -0.1952
   16SAPS   C31 2028   5.137   4.231   6.823  0.4357 -0.0632  0.4651
   16SAPS   O32 2029   5.088   4.289   6.915 -0.0219 -0.0097  0.2667
   16SAPS   C32 2030   5.272   4.274   6.765 -0.9417  0.0892  0.0218
   16SAPS   H2X 2031   5.280   4.382   6.786 -1.8606  0.6146 -2.0974
   16SAPS   H2Y 2032   5.257   4.277   6.655  2.0438  0.5502 -0.4585
   16SAPS   C23 2033   4.587   3.774   7.171  0.1656 -0.0942  0.7928
   16SAPS   H3R 2034   4.632   3.836   7.252  1.0622  1.9484 -1.1622
   16SAPS   H3S 2035   4.628   3.671   7.179  0.8634  0.2384  1.7798
   16SAPS   C24 2036   4.438   3.771   7.177  0.2580 -0.5115  0.6462
   16SAPS   H4R 2037   4.385   3.710   7.101 -0.0372  0.4476  0.0529
   16SAPS   H4S 2038   4.401   3.872   7.146  2.7758  0.5889  1.0200
   16SAPS   C25 2039   4.394   3.727   7.313  0.5080 -0.4198 -0.3025
   16SAPS   H5R 2040   4.417   3.624   7.345  4.8747  1.3316  3.2833
   16SAPS   C26 2041   4.341   3.813   7.408  0.1878 -0.3387  0.4453
   16SAPS   H6R 2042   4.292   3.768   7.495  1.4771 -0.5066  1.1161
   16SAPS   C27 2043   4.314   3.959   7.398  0.7053 -0.5655  0.4425
   16SAPS   H7R 2044   4.222   3.998   7.446 -0.7023 -1.0869 -1.7159
   16SAPS   H7S 2045   4.314   4.002   7.295 -1.4134 -0.8114  0.2961
   16SAPS   C28 2046   4.432   4.017   7.468  0.1050  0.3869 -0.0820
   16SAPS   H8R 2047   4.526   4.007   7.410 -0.3744  0.8504 -0.9629
   16SAPS   C29 2048   4.433   4.079   7.582 -0.7197 -0.2222  0.5332
   16SAPS   H9R 2049   4.526   4.124   7.618  0.8362  0.8541 -4.1075
   16SAPS  C210 2050   4.311   4.116   7.669 -0.0971  0.4902 -0.0441
   16SAPS  H10R 2051   4.216   4.117   7.610 -1.2309 -2.0846  1.5440
   16SAPS  H10S 2052   4.315   4.223   7.697 -0.5502  0.1662  1.3452
   16SAPS  C211 2053   4.281   4.014   7.777  0.3954  0.2755 -0.3712
   16SAPS  H11R 2054   4.319   3.913   7.758  0.4561  0.3594 -0.7087
   16SAPS  C212 2055   4.197   4.034   7.883  0.4166  1.0636  0.1013
   16SAPS  H12R 2056   4.186   3.953   7.956 -1.8962  0.6308 -0.6555
   16SAPS  C213 2057   4.120   4.163   7.915  0.4037  0.0379  0.0371
   16SAPS  H13R 2058   4.154   4.256   7.865  1.9108  0.8020  2.3176
   16SAPS  H13S 2059   4.153   4.181   8.020  0.5849 -0.9026  0.1494
   16SAPS  C214 2060   3.975   4.161   7.892  0.0398 -0.4069 -0.4869
   16SAPS  H14R 2061   3.943   4.185   7.790  0.8544 -1.3573 -0.9799
   16SAPS  C215 2062   3.889   4.159   7.993  0.4141  0.5596  0.2226
   16SAPS  H15R 2063   3.782   4.155   7.971  0.4096 -0.2037  0.3369
   16SAPS  C216 2064   3.927   4.148   8.141 -0.8074  0.1060  0.1837
   16SAPS  H16R 2065   3.910   4.243   8.197  0.6629  0.9193 -0.7013
   16SAPS  H16S 2066   4.033   4.122   8.159 -0.3615  1.8507  0.2610
   16SAPS  C217 2067   3.849   4.035   8.207 -0.1276 -0.0002  0.0622
   16SAPS  H17R 2068   3.808   3.964   8.132  1.1223 -0.6642 -0.0256
   16SAPS  H17S 2069   3.763   4.082   8.259 -1.5525 -0.1188 -2.0358
   16SAPS  C218 2070   3.938   3.957   8.305  0.0081  0.6383 -0.7013
   16SAPS  H18R 2071   4.006   3.900   8.239 -0.3409 -1.4875  0.6738
   16SAPS  H18S 2072   3.882   3.878   8.359  1.7406 -0.4177 -0.3803
   16SAPS  C219 2073   3.997   4.041   8.423  0.1992  0.2974  0.7714
   16SAPS  H19R 2074   4.062   4.123   8.385  1.0171 -0.2325  0.9945
   16SAPS  H19S 2075   4.068   3.970   8.472  1.0756 -0.0867 -0.9868
   16SAPS  C220 2076   3.891   4.106   8.516  0.0997  0.3539 -0.0621
   16SAPS  H20R 2077   3.936   4.144   8.610 -1.8180  1.5157  0.4292
   16SAPS  H20S 2078   3.816   4.031   8.548 -0.3792  1.1113  0.6256
   16SAPS  H20T 2079   3.826   4.184   8.471 -1.9827  0.3233  2.6872
   16SAPS   C33 2080   5.387   4.184   6.827  0.2466  0.2021  0.2230
   16SAPS   H3X 2081   5.489   4.199   6.785 -0.7748  1.1203 -2.1109
   16SAPS   H3Y 2082   5.371   4.076   6.805 -0.3701 -0.1747  2.3556
   16SAPS   C34 2083   5.414   4.217   6.973 -0.3430  0.0467  0.0966
   16SAPS   H4X 2084   5.503   4.159   7.006 -0.4589  0.6077  1.4928
   16SAPS   H4Y 2085   5.336   4.194   7.049 -0.6631 -0.5192 -0.3937
   16SAPS   C35 2086   5.447   4.370   6.992  0.6898 -0.2689 -0.6601
   16SAPS   H5X 2087   5.356   4.426   6.961  1.2565 -0.6049 -3.1637
   16SAPS   H5Y 2088   5.521   4.392   6.912  0.0229  0.5840 -1.0649
   16SAPS   C36 2089   5.500   4.402   7.131  0.4662  0.3591  0.0842
   16SAPS   H6X 2090   5.544   4.504   7.135  2.2740 -0.3998  0.9680
   16SAPS   H6Y 2091   5.574   4.328   7.169  1.8928  2.8837  2.5648
   16SAPS   C37 2092   5.383   4.408   7.235  0.2326  0.3491  1.1553
   16SAPS   H7X 2093   5.352   4.303   7.257  0.5495  0.2368  1.0802
   16SAPS   H7Y 2094   5.297   4.465   7.194 -0.4675 -1.5628 -0.2316
   16SAPS   C38 2095   5.418   4.481   7.371 -0.0634  0.7042  0.5097
   16SAPS   H8X 2096   5.393   4.587   7.350 -0.0514  0.5458 -0.3486
   16SAPS   H8Y 2097   5.521   4.465   7.409  0.0286  2.4014  1.0602
   16SAPS   C39 2098   5.322   4.423   7.480  0.1113  0.2788 -0.7742
   16SAPS   H9X 2099   5.329   4.312   7.486 -2.1392  0.1242  0.0247
   16SAPS   H9Y 2100   5.216   4.433   7.447 -0.3477 -0.5082  0.3917
   16SAPS  C310 2101   5.344   4.471   7.624  0.0942  0.0229  0.7711
   16SAPS  H10X 2102   5.304   4.573   7.642 -0.6435 -0.0854 -0.1771
   16SAPS  H10Y 2103   5.452   4.475   7.652  0.7810 -0.4182 -1.5974
   16SAPS  C311 2104   5.275   4.375   7.712  0.5036  0.0927 -0.1898
   16SAPS  H11X 2105   5.300   4.268   7.702 -0.2285 -0.0032 -1.1613
   16SAPS  H11Y 2106   5.165   4.388   7.702 -0.1873 -3.4461  1.3531
   16SAPS  C312 2107   5.312   4.414   7.859  0.3227  0.2356 -0.3741
   16SAPS  H12X 2108   5.274   4.517   7.877 -0.6993  0.0888 -1.5348
   16SAPS  H12Y 2109   5.423   4.418   7.866  0.4025 -2.1769  0.8874
   16SAPS  C313 2110   5.267   4.319   7.970  0.2274 -0.2665  0.0223
   16SAPS  H13X 2111   5.309   4.217   7.957 -0.4119 -0.5875  0.3940
   16SAPS  H13Y 2112   5.156   4.307   7.967  0.2503 -0.2924 -0.9814
   16SAPS  C314 2113   5.304   4.369   8.111  0.0132  0.2743 -0.0638
   16SAPS  H14X 2114   5.245   4.462   8.131  0.9868  1.0889 -0.8537
   16SAPS  H14Y 2115   5.415   4.383   8.116  0.3141 -1.8101 -0.1468
   16SAPS  C315 2116   5.265   4.271   8.224  0.1564 -0.0259 -0.7062
   16SAPS  H15X 2117   5.161   4.243   8.197 -0.6777 -0.4502  2.5372
   16SAPS  H15Y 2118   5.246   4.320   8.322 -0.7082  1.4449 -1.5728
   16SAPS  C316 2119   5.358   4.153   8.246 -0.5225  0.3781  0.5501
   16SAPS  H16X 2120   5.456   4.193   8.279  1.3692 -1.2086 -2.6309
   16SAPS  H16Y 2121   5.378   4.093   8.155  1.1795 -0.6612  1.5431
   16SAPS  C317 2122   5.304   4.052   8.348 -0.4003  0.1969  0.6075
   16SAPS  H17X 2123   5.292   4.088   8.453  1.1069 -2.6807  1.8848
   16SAPS  H17Y 2124   5.383   3.975   8.353  0.0674  0.4510 -1.9484
   16SAPS  C318 2125   5.179   3.989   8.310 -0.1149 -0.6275  0.1953
   16SAPS  H18X 2126   5.150   3.906   8.378 -0.1147 -0.8336 -0.0527
   16SAPS  H18Y 2127   5.179   3.930   8.215 -0.9423 -2.8133  1.4807
   16SAPS  H18Z 2128   5.098   4.065   8.308  0.1207 -0.3867 -1.2528
   17SAPC     N 2129   4.300   3.006  10.853 -0.3621  0.2638 -0.1644
   17SAPC   C12 2130   4.374   3.067  10.735 -0.2328  0.5072  0.1539
   17SAPC  H12A 2131   4.473   3.097  10.765 -0.8225  1.0722  1.6390
   17SAPC  H12B 2132   4.322   3.154  10.699  1.0932  1.3433  0.1841
   17SAPC   C13 2133   4.372   2.884  10.892 -0.3915 -0.0394 -0.5769
   17SAPC  H13A 2134   4.478   2.901  10.882 -0.6726  2.5509  0.2398
   17SAPC  H13B 2135   4.357   2.862  10.997  0.8561 -1.8795 -0.7366
   17SAPC  H13C 2136   4.346   2.798  10.831 -1.7511  1.0592 -1.6091
   17SAPC   C14 2137   4.297   3.109  10.967 -0.1953 -0.2281  0.5577
   17SAPC  H14A 2138   4.296   3.062  11.065 -0.6713 -1.2043  0.0990
   17SAPC  H14B 2139   4.382   3.176  10.961  0.1178 -0.7554 -3.0424
   17SAPC  H14C 2140   4.226   3.187  10.946  1.5060  1.3155  0.3378
   17SAPC   C15 2141   4.155   2.974  10.814 -0.1354  0.1096 -0.6018
   17SAPC  H15A 2142   4.109   2.922  10.896 -0.1471 -0.3786 -0.9145
   17SAPC  H15B 2143   4.097   3.060  10.784 -0.5372  0.3703  0.8756
   17SAPC  H15C 2144   4.151   2.892  10.744 -0.9893 -1.2840  1.0123
   17SAPC   C11 2145   4.415   2.968  10.625  0.5621  0.2486 -0.0498
   17SAPC  H11A 2146   4.492   2.895  10.658  1.0184  0.8443  0.2376
   17SAPC  H11B 2147   4.459   3.033  10.547 -2.1431  2.1308 -0.1512
   17SAPC     P 2148   4.280   2.762  10.545 -0.2467  0.1804 -0.0894
   17SAPC   O13 2149   4.412   2.689  10.549  0.0190 -0.4479 -0.0526
   17SAPC   O14 2150   4.180   2.722  10.644 -0.0475 -0.3708 -0.2868
   17SAPC   O12 2151   4.307   2.918  10.555  0.0039 -0.1686 -0.0180
   17SAPC   O11 2152   4.216   2.756  10.403 -0.8723  0.3093  0.2068
   17SAPC    C1 2153   4.299   2.731  10.288 -0.0326  0.3335 -0.8675
   17SAPC    HA 2154   4.351   2.823  10.255  0.7850  0.9101  1.8142
   17SAPC    HB 2155   4.371   2.648  10.301  1.6070  1.7820 -0.3487
   17SAPC    C2 2156   4.213   2.686  10.164 -0.1907 -0.2296  0.0887
   17SAPC    HS 2157   4.281   2.669  10.077  0.4789  1.8952  0.1464
   17SAPC   O21 2158   4.117   2.792  10.135 -0.2842 -0.0335  0.1025
   17SAPC   C21 2159   4.161   2.872  10.042 -1.1137  0.6911 -0.3546
   17SAPC   O22 2160   4.273   2.874   9.992  0.0603  0.2019  0.6992
   17SAPC   C22 2161   4.047   2.961   9.999  0.5210 -0.4253 -0.1975
   17SAPC   H2R 2162   3.951   2.906   9.988  0.0772  0.3350 -0.1903
   17SAPC   H2S 2163   4.030   3.023  10.089 -0.6080 -0.6298 -0.2598
   17SAPC    C3 2164   4.140   2.560  10.194  0.3278 -0.6070 -0.1696
   17SAPC    HX 2165   4.072   2.588  10.278  0.3688  0.3205 -0.4379
   17SAPC    HY 2166   4.211   2.485  10.235 -3.2714 -3.6402  1.1573
   17SAPC   O31 2167   4.067   2.497  10.086 -0.1788 -0.0683 -0.2608
   17SAPC   C31 2168   3.941   2.543  10.068 -1.2850 -0.1896  0.5040
   17SAPC   O32 2169   3.881   2.611  10.147  0.4101  0.2198  0.4206
   17SAPC   C32 2170   3.892   2.504   9.923 -0.0838  0.0144 -0.1214
   17SAPC   H2X 2171   3.782   2.516   9.919 -0.2889 -1.3594  0.7268
   17SAPC   H2Y 2172   3.913   2.396   9.903 -2.0353 -0.6379  1.0692
   17SAPC   C23 2173   4.068   3.056   9.875  0.0142 -0.0234  0.3968
   17SAPC   H3R 2174   4.070   2.996   9.782 -3.7317 -2.5945  1.7305
   17SAPC   H3S 2175   4.162   3.114   9.888 -0.6902  2.0967 -2.7722
   17SAPC   C24 2176   3.958   3.168   9.858 -0.5286 -0.1900  0.0903
   17SAPC   H4R 2177   3.981   3.215   9.760 -1.4025 -0.4960 -0.2704
   17SAPC   H4S 2178   3.962   3.254   9.928  0.1758 -0.5347  0.4858
   17SAPC   C25 2179   3.820   3.110   9.872  0.4937 -0.0309  0.0612
   17SAPC   H5R 2180   3.793   3.091   9.977 -0.7329  2.1408  0.2025
   17SAPC   C26 2181   3.718   3.082   9.793 -0.3830 -0.5349  0.1586
   17SAPC   H6R 2182   3.630   3.030   9.835  0.0177 -0.8625  0.5984
   17SAPC   C27 2183   3.705   3.110   9.647  0.1913 -0.4683  0.1898
   17SAPC   H7R 2184   3.626   3.039   9.614  3.0664 -4.0674  0.3693
   17SAPC   H7S 2185   3.786   3.064   9.585 -0.1417 -1.1347  0.2365
   17SAPC   C28 2186   3.686   3.253   9.605 -0.0381  0.2410  0.3467
   17SAPC   H8R 2187   3.727   3.322   9.681  0.1466 -1.0877  1.4822
   17SAPC   C29 2188   3.615   3.303   9.499  0.0874 -0.2944 -0.2068
   17SAPC   H9R 2189   3.601   3.412   9.507  2.9072  0.1510 -0.4438
   17SAPC  C210 2190   3.538   3.232   9.395 -0.2401  0.1653 -0.5690
   17SAPC  H10R 2191   3.430   3.243   9.417  0.4893  3.4596  2.1964
   17SAPC  H10S 2192   3.558   3.123   9.403 -0.3242  0.1390 -0.7077
   17SAPC  C211 2193   3.552   3.292   9.263 -0.6454  0.5413  0.1145
   17SAPC  H11R 2194   3.633   3.366   9.257 -2.1465  2.2277 -0.4955
   17SAPC  C212 2195   3.466   3.285   9.163  0.1428 -0.2320 -0.0441
   17SAPC  H12R 2196   3.483   3.341   9.070  1.9445 -0.5490  0.0641
   17SAPC  C213 2197   3.331   3.216   9.165 -0.3888  0.0749 -1.2019
   17SAPC  H13R 2198   3.353   3.110   9.191  2.6033  0.1115 -3.0746
   17SAPC  H13S 2199   3.291   3.227   9.062 -0.9247  1.3530 -0.8766
   17SAPC  C214 2200   3.234   3.288   9.251 -0.2763  0.4214  0.3507
   17SAPC  H14R 2201   3.277   3.373   9.306 -1.0294  0.9089  0.1876
   17SAPC  C215 2202   3.102   3.255   9.268  0.1527  0.6945 -0.3588
   17SAPC  H15R 2203   3.022   3.321   9.304  0.1459  0.4935 -0.0038
   17SAPC  C216 2204   3.039   3.135   9.210  0.2409  0.1226  0.0969
   17SAPC  H16R 2205   3.104   3.065   9.153 -0.3379 -0.2548 -0.1110
   17SAPC  H16S 2206   2.974   3.178   9.131 -0.0811  3.0567  1.8102
   17SAPC  C217 2207   2.968   3.042   9.308 -0.2499  0.7025  0.2261
   17SAPC  H17R 2208   3.048   2.986   9.361 -0.1643 -0.8060 -1.4239
   17SAPC  H17S 2209   2.903   2.971   9.253  0.0114  0.4651  0.2174
   17SAPC  C218 2210   2.892   3.112   9.411 -0.4249  0.4286 -0.5265
   17SAPC  H18R 2211   2.814   3.184   9.376 -2.7451 -1.2872  0.8496
   17SAPC  H18S 2212   2.957   3.173   9.478 -1.9304 -0.1557  1.5870
   17SAPC  C219 2213   2.826   3.007   9.510 -0.0592  0.1537 -0.2918
   17SAPC  H19R 2214   2.773   2.942   9.437  0.6573 -1.7052  0.7885
   17SAPC  H19S 2215   2.758   3.051   9.586  1.4154 -1.4049  2.0303
   17SAPC  C220 2216   2.919   2.911   9.589 -0.7880  0.4194 -0.0037
   17SAPC  H20R 2217   2.987   2.956   9.664 -0.2579 -3.6315  2.2345
   17SAPC  H20S 2218   2.981   2.848   9.522  0.5625  2.9779 -1.3261
   17SAPC  H20T 2219   2.854   2.848   9.654  0.2496 -1.4533 -0.6995
   17SAPC   C33 2220   3.958   2.587   9.807 -0.4559  0.1393 -0.3043
   17SAPC   H3X 2221   4.064   2.555   9.803  0.1502  2.0818 -0.7248
   17SAPC   H3Y 2222   3.951   2.694   9.834  0.9759  0.8633 -2.5368
   17SAPC   C34 2223   3.889   2.571   9.676 -0.6503  0.2930  0.1932
   17SAPC   H4X 2224   3.796   2.630   9.689 -1.1409  0.1539 -2.2612
   17SAPC   H4Y 2225   3.865   2.463   9.661  0.9624 -0.3029  1.5505
   17SAPC   C35 2226   3.963   2.639   9.561 -0.2346  0.5872 -0.4208
   17SAPC   H5X 2227   3.893   2.637   9.475  0.0511 -1.5117 -0.6494
   17SAPC   H5Y 2228   4.059   2.587   9.536 -0.6358  0.4713 -1.8182
   17SAPC   C36 2229   4.015   2.784   9.587 -0.2587  0.5549  0.5719
   17SAPC   H6X 2230   4.090   2.774   9.668 -1.3866 -2.3744  1.3740
   17SAPC   H6Y 2231   3.927   2.840   9.628  0.0635  1.0650  0.5774
   17SAPC   C37 2232   4.083   2.838   9.458  0.3876  0.2689 -0.7197
   17SAPC   H7X 2233   4.000   2.850   9.385  0.4483  4.0626 -0.3344
   17SAPC   H7Y 2234   4.155   2.759   9.426 -1.9452 -1.9518 -0.8446
   17SAPC   C38 2235   4.156   2.969   9.475 -0.2979  0.1219 -0.1583
   17SAPC   H8X 2236   4.249   2.959   9.534  0.4192 -0.4625 -1.3464
   17SAPC   H8Y 2237   4.091   3.038   9.533  1.0483  1.3405 -0.0648
   17SAPC   C39 2238   4.202   3.043   9.346  0.2569  0.4937  0.7762
   17SAPC   H9X 2239   4.300   2.999   9.317 -0.3968  0.1470 -1.0323
   17SAPC   H9Y 2240   4.200   3.152   9.368 -2.5482  1.1251 -1.9104
   17SAPC  C310 2241   4.110   3.028   9.219  0.0847 -0.6800 -0.0329
   17SAPC  H10X 2242   4.007   3.053   9.252 -0.5178  0.1604 -2.4025
   17SAPC  H10Y 2243   4.105   2.920   9.196 -0.8772 -0.8551  0.8990
   17SAPC  C311 2244   4.149   3.110   9.097  0.3329 -0.7900  0.2809
   17SAPC  H11X 2245   4.249   3.073   9.066  0.1582 -0.6828 -0.4284
   17SAPC  H11Y 2246   4.153   3.218   9.124  1.6514 -0.6995 -0.2150
   17SAPC  C312 2247   4.052   3.095   8.983  0.2074 -0.6251  0.2129
   17SAPC  H12X 2248   3.953   3.140   9.008  0.9061  0.7442  0.6614
   17SAPC  H12Y 2249   4.009   2.993   8.983 -0.6230 -0.2874 -0.2462
   17SAPC  C313 2250   4.105   3.158   8.845 -0.1856 -0.3228 -1.0335
   17SAPC  H13X 2251   4.170   3.247   8.861 -0.3832 -0.7719  3.3289
   17SAPC  H13Y 2252   4.018   3.203   8.794  0.3979 -0.2112 -1.9660
   17SAPC  C314 2253   4.167   3.056   8.752 -0.3303  0.3428  0.2355
   17SAPC  H14X 2254   4.197   2.978   8.826  0.1727  1.8928  1.7519
   17SAPC  H14Y 2255   4.248   3.104   8.693 -1.1674  0.2607 -0.9893
   17SAPC  C315 2256   4.063   2.991   8.662  0.3902  1.0330  0.4675
   17SAPC  H15X 2257   4.029   3.062   8.583 -0.3941 -0.9026 -1.0395
   17SAPC  H15Y 2258   3.970   2.982   8.722  0.1071  1.6741  0.1334
   17SAPC  C316 2259   4.110   2.860   8.603  0.5658  0.6378 -0.0836
   17SAPC  H16X 2260   4.105   2.787   8.687  0.0177  0.4642 -0.2654
   17SAPC  H16Y 2261   4.215   2.856   8.567  1.4589 -2.5852  2.3825
   17SAPC  C317 2262   3.999   2.819   8.490  0.4927  0.2259 -0.4343
   17SAPC  H17X 2263   3.902   2.845   8.537  0.6778 -0.4034  0.3080
   17SAPC  H17Y 2264   3.997   2.710   8.469  2.6066 -0.7155  3.3383
   17SAPC  C318 2265   4.023   2.885   8.355  0.3392 -0.2172 -0.0740
   17SAPC  H18X 2266   4.112   2.830   8.317 -0.4221 -2.3008  0.9631
   17SAPC  H18Y 2267   3.933   2.880   8.290  0.2568  2.3264 -0.2444
   17SAPC  H18Z 2268   4.060   2.989   8.365  0.7774 -0.4344  0.6747
   18SAPC     N 2269   3.811   2.509  10.534 -0.8646 -0.3434 -0.5347
   18SAPC   C12 2270   3.957   2.533  10.581 -0.7173 -0.1280  0.3615
   18SAPC  H12A 2271   3.968   2.628  10.631  2.5398  0.9183 -1.9839
   18SAPC  H12B 2272   4.016   2.537  10.491 -0.7993  1.6517  0.3450
   18SAPC   C13 2273   3.730   2.482  10.658  0.2521 -0.0665  0.3585
   18SAPC  H13A 2274   3.743   2.571  10.718  0.5451  0.0163  0.1747
   18SAPC  H13B 2275   3.627   2.485  10.625  1.2489  2.3852 -3.3076
   18SAPC  H13C 2276   3.752   2.403  10.727  0.4306 -0.5052 -0.1910
   18SAPC   C14 2277   3.765   2.631  10.464  0.3331  0.8810 -0.1271
   18SAPC  H14A 2278   3.662   2.619  10.435 -0.7330 -0.6400  3.7164
   18SAPC  H14B 2279   3.785   2.724  10.515  0.5707 -0.3685  2.1848
   18SAPC  H14C 2280   3.831   2.642  10.379  1.7836  1.7595  1.0569
   18SAPC   C15 2281   3.796   2.395  10.435 -0.1482 -0.6474  0.2550
   18SAPC  H15A 2282   3.843   2.305  10.470  0.1098 -1.2206 -1.4647
   18SAPC  H15B 2283   3.692   2.389  10.407  0.1351  1.1846 -1.4399
   18SAPC  H15C 2284   3.845   2.422  10.342  1.0732 -1.2032  0.7158
   18SAPC   C11 2285   4.021   2.436  10.683 -0.4078 -0.4065 -0.4163
   18SAPC  H11A 2286   3.948   2.432  10.766 -0.3021 -2.4338 -0.3613
   18SAPC  H11B 2287   4.115   2.479  10.723 -1.3525  2.2523 -0.8617
   18SAPC     P 2288   4.153   2.271  10.542  0.5790 -0.2049  0.2101
   18SAPC   O13 2289   4.205   2.381  10.460 -0.0199  0.1548  0.1283
   18SAPC   O14 2290   4.248   2.213  10.636 -0.0179  0.4804  0.0110
   18SAPC   O12 2291   4.021   2.307  10.621  0.4646  0.0927 -0.2527
   18SAPC   O11 2292   4.105   2.152  10.441 -0.2488  0.1336 -0.0024
   18SAPC    C1 2293   4.077   2.180  10.304 -0.6439 -0.1115  0.1614
   18SAPC    HA 2294   3.994   2.121  10.259 -0.1992 -0.2122 -0.5320
   18SAPC    HB 2295   4.057   2.287  10.285  0.2305 -0.2430 -1.6977
   18SAPC    C2 2296   4.208   2.158  10.219 -0.0578 -0.3997 -0.6786
   18SAPC    HS 2297   4.277   2.244  10.234 -0.2730 -0.3795  0.2839
   18SAPC   O21 2298   4.167   2.147  10.085  0.4994 -1.0087 -0.2758
   18SAPC   C21 2299   4.236   2.224  10.001 -0.0702 -0.1974 -0.1371
   18SAPC   O22 2300   4.329   2.298  10.021  0.3996  0.5275  0.1934
   18SAPC   C22 2301   4.165   2.201   9.868  0.1175 -0.1509 -0.2910
   18SAPC   H2R 2302   4.181   2.093   9.848  1.9398 -0.7125  3.3986
   18SAPC   H2S 2303   4.060   2.234   9.874 -0.2871 -1.4607  0.2135
   18SAPC    C3 2304   4.307   2.041  10.261  0.1122 -0.1496  0.5731
   18SAPC    HX 2305   4.242   1.951  10.248  1.0977 -0.6026 -1.8000
   18SAPC    HY 2306   4.338   2.056  10.366  0.0690  0.0675  0.5548
   18SAPC   O31 2307   4.427   2.026  10.172  0.3389 -0.2633  0.4877
   18SAPC   C31 2308   4.529   2.095  10.217  0.1933  0.0485 -0.3574
   18SAPC   O32 2309   4.542   2.144  10.333 -0.3625  1.1709 -0.6102
   18SAPC   C32 2310   4.645   2.086  10.115  0.7638 -0.2544  0.4358
   18SAPC   H2X 2311   4.726   2.022  10.157 -0.4486 -0.2510  2.9961
   18SAPC   H2Y 2312   4.691   2.185  10.096  2.2508 -1.2229 -1.3632
   18SAPC   C23 2313   4.240   2.277   9.749  0.3768  0.1023 -0.4632
   18SAPC   H3R 2314   4.339   2.228   9.735  0.0443 -0.6653 -0.1255
   18SAPC   H3S 2315   4.245   2.383   9.784 -1.3838  0.3366 -0.8347
   18SAPC   C24 2316   4.161   2.274   9.625 -0.6481 -0.5000  0.1194
   18SAPC   H4R 2317   4.212   2.341   9.553 -1.5647  0.4994  0.3689
   18SAPC   H4S 2318   4.062   2.321   9.646  0.2202  0.8500  1.3484
   18SAPC   C25 2319   4.139   2.142   9.554 -0.2357 -0.1964 -0.7406
   18SAPC   H5R 2320   4.141   2.053   9.618 -0.6668  1.3245  1.4989
   18SAPC   C26 2321   4.114   2.106   9.428  0.6361 -0.6035  0.6764
   18SAPC   H6R 2322   4.116   1.998   9.409 -0.6465 -0.4583 -0.4236
   18SAPC   C27 2323   4.100   2.186   9.305  0.0960  0.8764  0.1460
   18SAPC   H7R 2324   4.129   2.129   9.214 -1.1505 -0.5060  0.5839
   18SAPC   H7S 2325   4.167   2.274   9.308  1.8312 -0.4128  0.3098
   18SAPC   C28 2326   3.958   2.236   9.283 -0.4776 -0.5654 -0.2913
   18SAPC   H8R 2327   3.891   2.186   9.354  0.9666 -0.0744  1.4988
   18SAPC   C29 2328   3.915   2.318   9.183 -0.1513  0.5597  1.4214
   18SAPC   H9R 2329   3.811   2.355   9.183  0.4750  2.4381  0.9124
   18SAPC  C210 2330   3.994   2.383   9.071 -0.0266  0.2401 -0.2712
   18SAPC  H10R 2331   3.937   2.369   8.977 -0.3363  0.3156 -0.0942
   18SAPC  H10S 2332   4.096   2.340   9.057 -0.4141 -0.2958 -1.5651
   18SAPC  C211 2333   4.017   2.534   9.106 -0.4455 -0.2044 -0.6462
   18SAPC  H11R 2334   4.070   2.548   9.201 -4.1128 -2.9407  2.0600
   18SAPC  C212 2335   3.984   2.644   9.030 -0.4363 -0.8485 -0.1640
   18SAPC  H12R 2336   4.016   2.743   9.064 -1.4846 -0.2045 -1.0042
   18SAPC  C213 2337   3.913   2.643   8.899  0.2271 -1.0970 -0.1474
   18SAPC  H13R 2338   3.864   2.545   8.881  0.8706 -1.3361 -0.6465
   18SAPC  H13S 2339   3.989   2.642   8.818 -1.9529 -0.6333 -2.2842
   18SAPC  C214 2340   3.809   2.750   8.897 -1.0799 -0.7316  0.6844
   18SAPC  H14R 2341   3.845   2.853   8.911 -1.2477 -0.7835  1.5870
   18SAPC  C215 2342   3.675   2.739   8.883 -0.2328 -0.3862  0.4094
   18SAPC  H15R 2343   3.618   2.833   8.892 -0.8790 -0.7773  0.5223
   18SAPC  C216 2344   3.597   2.620   8.861  0.4638  0.1805 -0.0572
   18SAPC  H16R 2345   3.657   2.526   8.860 -0.5413 -0.5689 -3.4286
   18SAPC  H16S 2346   3.542   2.632   8.765  2.7483 -0.3812 -1.5237
   18SAPC  C217 2347   3.498   2.587   8.971 -0.2869  0.6504  0.1358
   18SAPC  H17R 2348   3.553   2.553   9.061  1.5974 -0.3701 -1.3374
   18SAPC  H17S 2349   3.421   2.513   8.940  2.2416 -3.0215  1.9596
   18SAPC  C218 2350   3.420   2.717   9.018  1.1461  0.2446 -0.1832
   18SAPC  H18R 2351   3.395   2.784   8.932 -0.8720 -0.2111 -0.0053
   18SAPC  H18S 2352   3.482   2.780   9.085  0.2710 -1.1883  2.0716
   18SAPC  C219 2353   3.292   2.680   9.096 -0.2195  0.1709  0.0180
   18SAPC  H19R 2354   3.320   2.616   9.183  1.3070  0.6822 -0.0598
   18SAPC  H19S 2355   3.242   2.613   9.023  0.6655  0.5630 -0.9819
   18SAPC  C220 2356   3.203   2.801   9.124  0.2505  0.6576  0.4374
   18SAPC  H20R 2357   3.211   2.853   9.222 -0.9073  0.9921  0.3771
   18SAPC  H20S 2358   3.096   2.771   9.116 -0.0440  1.3878  1.3818
   18SAPC  H20T 2359   3.227   2.870   9.040 -0.7946 -1.3946 -1.6593
   18SAPC   C33 2360   4.587   2.051   9.976  0.5026 -0.5794  0.5511
   18SAPC   H3X 2361   4.517   2.133   9.947  2.1674  0.8543  0.4044
   18SAPC   H3Y 2362   4.528   1.957   9.977 -0.2615 -0.2063 -1.7236
   18SAPC   C34 2363   4.695   2.045   9.865  0.5214 -0.6504  0.6997
   18SAPC   H4X 2364   4.780   1.984   9.901  0.0656 -1.8192 -0.1341
   18SAPC   H4Y 2365   4.726   2.147   9.834  2.4558 -1.3880  0.0825
   18SAPC   C35 2366   4.642   1.977   9.738  0.3659  0.2677 -0.7129
   18SAPC   H5X 2367   4.594   1.882   9.769  0.2345  1.3594  2.8229
   18SAPC   H5Y 2368   4.723   1.951   9.666  0.5221  1.0413 -0.8213
   18SAPC   C36 2369   4.533   2.055   9.663 -0.8273 -0.8117 -0.4728
   18SAPC   H6X 2370   4.542   2.163   9.687 -2.0856 -0.7830 -0.0534
   18SAPC   H6Y 2371   4.436   2.026   9.708 -0.7083  1.8405  1.8187
   18SAPC   C37 2372   4.519   2.032   9.517 -0.0116 -0.0295  0.6160
   18SAPC   H7X 2373   4.620   2.045   9.471 -0.9448 -2.7782 -2.6633
   18SAPC   H7Y 2374   4.454   2.108   9.469  1.6336  0.0974 -1.5602
   18SAPC   C38 2375   4.461   1.896   9.483  0.8633 -0.6569 -0.3663
   18SAPC   H8X 2376   4.358   1.887   9.524  1.7746 -0.8009  2.0272
   18SAPC   H8Y 2377   4.520   1.817   9.535  1.3965 -0.1317 -0.1576
   18SAPC   C39 2378   4.468   1.861   9.336 -0.0247 -0.1346  0.1893
   18SAPC   H9X 2379   4.408   1.934   9.278  1.0298  1.0560  0.5653
   18SAPC   H9Y 2380   4.422   1.761   9.319  0.9055 -0.4567 -0.4852
   18SAPC  C310 2381   4.609   1.870   9.276  0.2281  0.0121  0.6348
   18SAPC  H10X 2382   4.677   1.803   9.334  1.4037 -1.1022 -1.8647
   18SAPC  H10Y 2383   4.646   1.969   9.308 -0.2396 -0.4983  2.9056
   18SAPC  C311 2384   4.618   1.840   9.122  0.0030 -0.1280 -0.1196
   18SAPC  H11X 2385   4.722   1.860   9.088 -0.8754 -0.4657 -3.3624
   18SAPC  H11Y 2386   4.542   1.906   9.075 -0.6676 -0.9885 -0.2744
   18SAPC  C312 2387   4.562   1.693   9.083 -0.1429  0.1592 -0.2321
   18SAPC  H12X 2388   4.462   1.686   9.131 -0.2263  0.2680 -0.3880
   18SAPC  H12Y 2389   4.624   1.611   9.125 -0.6953  0.7388  1.8386
   18SAPC  C313 2390   4.560   1.667   8.940 -0.0821 -0.0604  0.5342
   18SAPC  H13X 2391   4.660   1.676   8.892 -0.2784  1.1198  0.3260
   18SAPC  H13Y 2392   4.497   1.750   8.902 -0.0483  0.4208  1.4963
   18SAPC  C314 2393   4.487   1.532   8.900 -0.0681 -0.0948  0.1321
   18SAPC  H14X 2394   4.383   1.540   8.939  0.1147  0.9315  0.4309
   18SAPC  H14Y 2395   4.537   1.446   8.949  2.4078  0.5054 -1.1712
   18SAPC  C315 2396   4.497   1.492   8.757 -0.6077 -0.0744  0.4226
   18SAPC  H15X 2397   4.606   1.486   8.742 -0.8165 -0.2368 -1.2104
   18SAPC  H15Y 2398   4.458   1.570   8.689  0.3487  1.2057  1.3025
   18SAPC  C316 2399   4.441   1.355   8.714  0.3641 -0.6228  0.2304
   18SAPC  H16X 2400   4.427   1.291   8.804 -0.2534 -0.2332  0.4234
   18SAPC  H16Y 2401   4.519   1.306   8.652 -0.6798 -1.7612 -0.2160
   18SAPC  C317 2402   4.329   1.362   8.610  0.1047  0.2842  0.2737
   18SAPC  H17X 2403   4.367   1.422   8.525  0.5016  0.3985  0.5268
   18SAPC  H17Y 2404   4.250   1.422   8.661  0.1096 -1.6326  2.7501
   18SAPC  C318 2405   4.267   1.229   8.574 -0.2465  0.5019  0.7509
   18SAPC  H18X 2406   4.338   1.143   8.577 -0.5058  0.2964  2.2747
   18SAPC  H18Y 2407   4.225   1.237   8.472  0.5949  4.2321  0.5830
   18SAPC  H18Z 2408   4.193   1.195   8.650  2.1038 -1.1276  2.4579
   19SAPC     N 2409   2.057   2.317  10.870 -0.0347  0.0697  0.4794
   19SAPC   C12 2410   2.185   2.245  10.835 -0.3533 -0.0234 -0.3132
   19SAPC  H12A 2411   2.188   2.159  10.901  1.0523 -0.3845 -0.7986
   19SAPC  H12B 2412   2.264   2.315  10.858 -1.8280  1.7176 -0.4091
   19SAPC   C13 2413   2.065   2.376  11.004  0.2684  0.1624  0.1714
   19SAPC  H13A 2414   2.137   2.457  11.004  2.6108 -1.7901 -0.7259
   19SAPC  H13B 2415   1.975   2.413  11.050  0.1021  1.3105 -1.0197
   19SAPC  H13C 2416   2.105   2.303  11.074 -0.9712  1.6659  2.5777
   19SAPC   C14 2417   2.022   2.425  10.776  0.3157  0.1078  0.0414
   19SAPC  H14A 2418   2.008   2.388  10.675  1.4420 -0.8515  0.2078
   19SAPC  H14B 2419   1.924   2.458  10.806  0.5663  1.0965 -0.1992
   19SAPC  H14C 2420   2.097   2.503  10.770 -0.1511  0.6345  0.9225
   19SAPC   C15 2421   1.939   2.220  10.869 -0.4632  0.6094 -0.3941
   19SAPC  H15A 2422   1.841   2.266  10.880 -1.4750 -1.8904  2.3096
   19SAPC  H15B 2423   1.932   2.165  10.777 -2.2220 -1.8200  1.0601
   19SAPC  H15C 2424   1.949   2.148  10.949  3.6490 -0.8385 -1.9756
   19SAPC   C11 2425   2.216   2.199  10.691 -0.9106 -0.4344  0.6210
   19SAPC  H11A 2426   2.220   2.288  10.626  2.3281  0.5110  1.9520
   19SAPC  H11B 2427   2.137   2.138  10.640 -2.8491  1.3113  1.3930
   19SAPC     P 2428   2.430   2.112  10.572 -0.2388 -0.2136  0.3594
   19SAPC   O13 2429   2.572   2.130  10.623 -0.2794  0.0907  0.3816
   19SAPC   O14 2430   2.382   1.990  10.496 -0.3712 -0.0934  0.4218
   19SAPC   O12 2431   2.332   2.118  10.702 -0.9202 -0.6507 -0.1157
   19SAPC   O11 2432   2.400   2.234  10.484 -0.6149 -0.2102  0.2766
   19SAPC    C1 2433   2.311   2.230  10.367 -0.0916  0.3653 -0.9053
   19SAPC    HA 2434   2.337   2.153  10.292 -1.0650 -0.4059 -0.4709
   19SAPC    HB 2435   2.202   2.224  10.388  0.0117 -0.3295 -0.5298
   19SAPC    C2 2436   2.324   2.361  10.287 -0.2378  0.0341 -0.5085
   19SAPC    HS 2437   2.244   2.374  10.211 -0.1784  2.0771 -0.2971
   19SAPC   O21 2438   2.464   2.377  10.255 -0.5558 -0.6101  0.0422
   19SAPC   C21 2439   2.501   2.338  10.138  0.0737 -0.6383 -0.1762
   19SAPC   O22 2440   2.424   2.292  10.054 -0.1350  0.0319  0.2458
   19SAPC   C22 2441   2.651   2.352  10.119  0.3042  0.2193  0.0031
   19SAPC   H2R 2442   2.662   2.462  10.127  1.7082  0.2403 -1.5942
   19SAPC   H2S 2443   2.703   2.308  10.207 -0.2620  0.4205  0.4419
   19SAPC    C3 2444   2.281   2.470  10.384  0.1743 -0.3791 -0.4090
   19SAPC    HX 2445   2.355   2.481  10.466 -2.3804 -0.3568  2.0481
   19SAPC    HY 2446   2.183   2.454  10.435  0.4321 -1.5232 -0.2408
   19SAPC   O31 2447   2.268   2.595  10.308  0.2196  0.3839 -0.6405
   19SAPC   C31 2448   2.376   2.673  10.304 -0.1976 -0.2867 -1.1324
   19SAPC   O32 2449   2.478   2.656  10.373  0.5196 -0.0561 -0.3156
   19SAPC   C32 2450   2.351   2.784  10.205 -0.9382 -0.0104  0.7648
   19SAPC   H2X 2451   2.276   2.847  10.257 -0.3019  0.4795  1.1014
   19SAPC   H2Y 2452   2.312   2.743  10.109  0.7799  0.8029 -0.3282
   19SAPC   C23 2453   2.709   2.315   9.985 -0.2028  0.1663  1.1107
   19SAPC   H3R 2454   2.646   2.366   9.908  1.1254 -1.2506 -1.0354
   19SAPC   H3S 2455   2.685   2.209   9.963 -0.6726  0.1345  1.7616
   19SAPC   C24 2456   2.863   2.337   9.979 -0.1664  0.7640  0.2443
   19SAPC   H4R 2457   2.910   2.260   9.915  1.0795 -0.1520  2.1677
   19SAPC   H4S 2458   2.892   2.314  10.084  0.4091  2.8601  0.5767
   19SAPC   C25 2459   2.904   2.474   9.951  0.7763  0.1790  0.1315
   19SAPC   H5R 2460   2.908   2.538  10.040 -0.0257 -1.6025  1.5167
   19SAPC   C26 2461   2.952   2.520   9.841  0.0697 -0.1055 -0.8644
   19SAPC   H6R 2462   2.976   2.627   9.845  0.9964 -0.3345  2.1987
   19SAPC   C27 2463   2.979   2.452   9.710 -0.3276 -1.2703  0.0712
   19SAPC   H7R 2464   2.919   2.359   9.701 -0.1683 -1.4156  0.4615
   19SAPC   H7S 2465   3.081   2.408   9.712  0.4407 -0.0452 -3.7770
   19SAPC   C28 2466   2.954   2.545   9.595 -0.4122  0.5095  1.2101
   19SAPC   H8R 2467   2.872   2.616   9.605  0.5850  2.1270 -1.2053
   19SAPC   C29 2468   3.024   2.552   9.476 -0.6021  0.2920  0.1123
   19SAPC   H9R 2469   2.980   2.617   9.398  0.5666  0.1649 -0.6751
   19SAPC  C210 2470   3.137   2.471   9.422 -0.4304  1.1080  0.2489
   19SAPC  H10R 2471   3.225   2.471   9.491  0.0459 -1.0573 -0.2556
   19SAPC  H10S 2472   3.178   2.511   9.327  2.0693  0.2174  0.8694
   19SAPC  C211 2473   3.092   2.329   9.397 -0.8414  0.6581 -0.1825
   19SAPC  H11R 2474   3.090   2.272   9.492 -1.8145  0.6199 -0.2192
   19SAPC  C212 2475   3.058   2.268   9.282  0.5068 -0.3421  0.2114
   19SAPC  H12R 2476   3.034   2.160   9.278 -1.9345  0.0504  1.8792
   19SAPC  C213 2477   3.058   2.330   9.143  0.1502 -0.2240 -0.4537
   19SAPC  H13R 2478   3.162   2.328   9.105  0.6688  2.6367  0.5599
   19SAPC  H13S 2479   3.016   2.433   9.141 -2.3150 -1.1749 -0.6471
   19SAPC  C214 2480   2.967   2.250   9.049  0.3884 -0.3806 -0.6889
   19SAPC  H14R 2481   2.875   2.214   9.097  0.3194  2.7848  1.8737
   19SAPC  C215 2482   2.978   2.222   8.910  0.3406 -0.3596 -0.1258
   19SAPC  H15R 2483   2.902   2.153   8.870 -1.0188  0.1698  1.4297
   19SAPC  C216 2484   3.097   2.257   8.824 -0.2934 -0.7403  0.4235
   19SAPC  H16R 2485   3.147   2.343   8.874 -0.9980 -0.5054  0.7346
   19SAPC  H16S 2486   3.058   2.292   8.725 -0.4708  0.4379  0.8945
   19SAPC  C217 2487   3.189   2.134   8.795 -0.9196  0.4328 -0.1768
   19SAPC  H17R 2488   3.227   2.101   8.895 -1.7523 -2.0945 -0.6353
   19SAPC  H17S 2489   3.282   2.177   8.752 -0.8142 -1.2926 -1.8054
   19SAPC  C218 2490   3.128   2.021   8.714  0.2668  0.2248 -0.3416
   19SAPC  H18R 2491   3.024   2.052   8.691 -1.3436 -2.0228  3.1068
   19SAPC  H18S 2492   3.128   1.929   8.777 -1.0298  1.1662  1.0906
   19SAPC  C219 2493   3.200   1.993   8.578 -0.4245  0.5639  0.1077
   19SAPC  H19R 2494   3.152   1.902   8.536 -1.2763  1.6050 -1.3002
   19SAPC  H19S 2495   3.309   1.974   8.579 -0.8151 -2.2770 -1.5755
   19SAPC  C220 2496   3.174   2.094   8.466 -0.2135  0.5474  0.7954
   19SAPC  H20R 2497   3.065   2.100   8.449 -0.4658 -1.8456  1.2115
   19SAPC  H20S 2498   3.221   2.070   8.368  1.2447 -1.2894  1.8713
   19SAPC  H20T 2499   3.206   2.195   8.499 -2.2341  0.6723  2.5686
   19SAPC   C33 2500   2.487   2.870  10.185 -0.0078 -0.5010  0.1654
   19SAPC   H3X 2501   2.555   2.802  10.130  0.3305 -0.6174  0.7239
   19SAPC   H3Y 2502   2.519   2.876  10.291 -0.2710 -3.5709  0.5080
   19SAPC   C34 2503   2.452   3.008  10.120 -0.5952  0.0570 -0.4114
   19SAPC   H4X 2504   2.540   3.076  10.130  0.3182 -0.9603 -1.2851
   19SAPC   H4Y 2505   2.356   3.044  10.163 -0.6799 -0.9318  0.2768
   19SAPC   C35 2506   2.437   2.999   9.967 -0.5406 -0.2261 -0.2798
   19SAPC   H5X 2507   2.389   2.902   9.941 -1.1900  0.2119 -0.7378
   19SAPC   H5Y 2508   2.537   2.991   9.920 -0.4271  2.3755 -0.5982
   19SAPC   C36 2509   2.361   3.110   9.901  0.3532 -0.4392  0.4061
   19SAPC   H6X 2510   2.413   3.204   9.928  0.9557 -0.3407 -1.0194
   19SAPC   H6Y 2511   2.255   3.090   9.929  0.1927 -2.0879 -1.1658
   19SAPC   C37 2512   2.353   3.084   9.750 -0.5034  0.0774  0.6236
   19SAPC   H7X 2513   2.276   3.156   9.715 -0.2392 -0.9433 -2.2980
   19SAPC   H7Y 2514   2.307   2.985   9.731  1.9848 -1.5877  2.6097
   19SAPC   C38 2515   2.478   3.105   9.672  0.3722  0.8218 -0.2953
   19SAPC   H8X 2516   2.556   3.035   9.708 -0.0778  0.0170 -0.8539
   19SAPC   H8Y 2517   2.510   3.208   9.699 -0.1548  1.2079 -1.1231
   19SAPC   C39 2518   2.456   3.081   9.526 -1.0132  0.0155 -0.1700
   19SAPC   H9X 2519   2.412   2.981   9.505 -0.6865 -0.4283  1.1070
   19SAPC   H9Y 2520   2.560   3.072   9.488 -1.7096 -1.6836 -1.8305
   19SAPC  C310 2521   2.388   3.183   9.441  0.0138 -0.2432 -0.2217
   19SAPC  H10X 2522   2.459   3.269   9.439  0.1703 -0.3440  0.5389
   19SAPC  H10Y 2523   2.295   3.234   9.477  0.5635 -0.1410  1.1242
   19SAPC  C311 2524   2.373   3.141   9.289  0.8175  0.0939 -0.8326
   19SAPC  H11X 2525   2.319   3.045   9.277 -0.6106  0.6843  0.4825
   19SAPC  H11Y 2526   2.475   3.122   9.248  0.5300 -0.0355 -1.4882
   19SAPC  C312 2527   2.291   3.246   9.208 -0.2637  0.2023 -0.7084
   19SAPC  H12X 2528   2.329   3.345   9.241 -1.0587  0.2427  0.1134
   19SAPC  H12Y 2529   2.183   3.239   9.235 -0.3615 -1.2496 -1.4006
   19SAPC  C313 2530   2.304   3.231   9.060 -0.2038 -0.1453 -0.1169
   19SAPC  H13X 2531   2.285   3.126   9.028 -0.7465 -0.6627  1.7996
   19SAPC  H13Y 2532   2.413   3.247   9.045 -0.5952  1.2487 -1.8059
   19SAPC  C314 2533   2.219   3.331   8.985 -0.0017 -0.8875  0.9179
   19SAPC  H14X 2534   2.241   3.436   9.014  0.5091 -0.5404 -0.6133
   19SAPC  H14Y 2535   2.112   3.316   9.009 -0.4246  1.4717  0.8203
   19SAPC  C315 2536   2.246   3.321   8.838  0.1744  0.2863  0.0402
   19SAPC  H15X 2537   2.217   3.224   8.793  2.9043 -0.6439  0.0683
   19SAPC  H15Y 2538   2.357   3.314   8.828  0.4031  0.2791  2.2017
   19SAPC  C316 2539   2.191   3.438   8.754  0.5214  0.4231 -0.5700
   19SAPC  H16X 2540   2.271   3.493   8.701 -1.0439 -0.2509 -3.9102
   19SAPC  H16Y 2541   2.138   3.516   8.813  0.2586  2.7900 -3.7357
   19SAPC  C317 2542   2.101   3.385   8.646  0.5084  0.4889  0.8599
   19SAPC  H17X 2543   2.038   3.301   8.682 -1.4771  1.0345 -1.0883
   19SAPC  H17Y 2544   2.157   3.348   8.558 -0.1507  0.1994  0.5557
   19SAPC  C318 2545   2.009   3.501   8.601  0.6618  0.5628  0.2551
   19SAPC  H18X 2546   2.077   3.579   8.560  1.7415 -0.7244 -0.4673
   19SAPC  H18Y 2547   1.954   3.544   8.687  2.5880  2.5669  0.5659
   19SAPC  H18Z 2548   1.930   3.480   8.525 -0.1095  1.9600  0.6230
   20SAPC     N 2549   2.962   1.177  10.789 -1.0337  0.6188 -0.0118
   20SAPC   C12 2550   2.877   1.063  10.740  0.0467 -1.0404  1.4282
   20SAPC  H12A 2551   2.926   1.020  10.654 -0.8812  0.8422 -0.1323
   20SAPC  H12B 2552   2.783   1.103  10.705  0.7471 -0.4108  0.1852
   20SAPC   C13 2553   2.920   1.220  10.925  0.1848  0.1888  0.5952
   20SAPC  H13A 2554   2.955   1.320  10.947  1.2131 -0.0803  0.2526
   20SAPC  H13B 2555   2.813   1.235  10.928 -0.0815 -1.0838 -0.8897
   20SAPC  H13C 2556   2.947   1.142  10.995  0.2557 -1.4168 -1.1267
   20SAPC   C14 2557   3.106   1.139  10.792 -0.0800 -0.9231  0.9955
   20SAPC  H14A 2558   3.163   1.229  10.809 -2.1123  0.7145 -0.3201
   20SAPC  H14B 2559   3.113   1.069  10.874  0.6605 -1.0233  0.8527
   20SAPC  H14C 2560   3.139   1.091  10.701  1.2353  1.4757  0.1151
   20SAPC   C15 2561   2.959   1.281  10.686  0.4195 -0.0857  0.7983
   20SAPC  H15A 2562   3.015   1.366  10.721  0.5564 -0.1689  0.7822
   20SAPC  H15B 2563   2.991   1.250  10.588 -0.4569  1.7169 -0.1023
   20SAPC  H15C 2564   2.858   1.319  10.680  0.7061  0.5245 -0.4738
   20SAPC   C11 2565   2.846   0.950  10.838 -0.2743  0.3885  0.0702
   20SAPC  H11A 2566   2.784   0.882  10.777 -0.0419  1.2251 -1.1255
   20SAPC  H11B 2567   2.783   0.993  10.919  2.9460  2.2020  1.7965
   20SAPC     P 2568   3.027   0.763  10.833  0.2166 -0.0574 -0.2204
   20SAPC   O13 2569   3.173   0.778  10.858  0.3048  0.1594 -0.1124
   20SAPC   O14 2570   2.954   0.640  10.875  0.3028  0.0270 -0.2074
   20SAPC   O12 2571   2.955   0.883  10.896 -0.0882 -0.4994 -0.5234
   20SAPC   O11 2572   3.005   0.786  10.677  0.0610  0.0206 -0.2863
   20SAPC    C1 2573   2.972   0.674  10.598  0.0642 -0.5276 -0.3605
   20SAPC    HA 2574   2.880   0.624  10.635  0.1849 -1.4983 -1.3346
   20SAPC    HB 2575   2.959   0.722  10.498  0.7119  1.2858  0.3773
   20SAPC    C2 2576   3.075   0.568  10.585  0.0666 -0.9222  0.4632
   20SAPC    HS 2577   3.086   0.512  10.681 -0.4235 -1.1027  0.4157
   20SAPC   O21 2578   3.189   0.646  10.554 -0.1875 -0.5545  0.3415
   20SAPC   C21 2579   3.309   0.613  10.602 -0.2254 -0.0190  0.5315
   20SAPC   O22 2580   3.344   0.503  10.639  0.5661 -0.4444 -0.8699
   20SAPC   C22 2581   3.403   0.729  10.574 -0.4961 -0.1168  0.1732
   20SAPC   H2R 2582   3.344   0.810  10.524 -2.4280 -0.1760  2.1822
   20SAPC   H2S 2583   3.424   0.771  10.675  0.4151 -0.0236 -0.0531
   20SAPC    C3 2584   3.053   0.463  10.469  0.6241  0.4286 -0.2544
   20SAPC    HX 2585   3.009   0.508  10.377 -0.2287 -0.6057 -0.3769
   20SAPC    HY 2586   2.978   0.392  10.510 -1.5152  1.4215 -2.2325
   20SAPC   O31 2587   3.172   0.389  10.424  0.1741 -0.0019 -0.0353
   20SAPC   C31 2588   3.201   0.282  10.506 -0.8321 -0.4789 -0.1502
   20SAPC   O32 2589   3.124   0.225  10.574 -0.5968  0.3458 -0.8286
   20SAPC   C32 2590   3.346   0.244  10.497  0.2600 -0.9960 -0.0787
   20SAPC   H2X 2591   3.372   0.259  10.604 -0.3735  1.6723 -0.2260
   20SAPC   H2Y 2592   3.396   0.322  10.435  0.4936 -1.6395 -0.7182
   20SAPC   C23 2593   3.526   0.694  10.495  0.8429  0.4183  0.7709
   20SAPC   H3R 2594   3.574   0.599  10.524  0.9307 -0.4735 -1.9474
   20SAPC   H3S 2595   3.609   0.766  10.512  1.3135  1.2845 -3.8538
   20SAPC   C24 2596   3.503   0.700  10.343 -0.2586  0.1860  0.3208
   20SAPC   H4R 2597   3.593   0.730  10.285 -0.5867  2.6240  0.9251
   20SAPC   H4S 2598   3.431   0.781  10.317  0.5467  0.3528 -1.5074
   20SAPC   C25 2599   3.461   0.563  10.295  0.3285  0.8720  0.1535
   20SAPC   H5R 2600   3.504   0.480  10.352 -0.5015 -0.2033 -0.7290
   20SAPC   C26 2601   3.374   0.542  10.195  0.5334  0.6422  0.6453
   20SAPC   H6R 2602   3.339   0.440  10.174 -1.2001  1.4139 -0.4925
   20SAPC   C27 2603   3.303   0.644  10.108 -0.0821  0.2298  0.0452
   20SAPC   H7R 2604   3.372   0.715  10.058  1.0083 -0.8019  0.0416
   20SAPC   H7S 2605   3.240   0.706  10.175  0.7066 -0.3144  1.3354
   20SAPC   C28 2606   3.212   0.586   9.999  0.0640 -0.0738  0.0224
   20SAPC   H8R 2607   3.105   0.586  10.027  0.4167  0.7555  1.5007
   20SAPC   C29 2608   3.243   0.524   9.880 -0.5694 -0.5660  0.5282
   20SAPC   H9R 2609   3.158   0.491   9.819 -1.5078  1.9380  0.3312
   20SAPC  C210 2610   3.381   0.503   9.821 -0.1547 -0.5712  0.4351
   20SAPC  H10R 2611   3.433   0.421   9.874 -0.8669 -2.6486 -1.9052
   20SAPC  H10S 2612   3.443   0.593   9.843 -0.1619 -0.3158 -0.5537
   20SAPC  C211 2613   3.394   0.465   9.674  0.2267 -0.3254 -0.5438
   20SAPC  H11R 2614   3.417   0.359   9.658 -1.0575 -0.4803 -1.6262
   20SAPC  C212 2615   3.385   0.548   9.565  0.7765 -0.1553 -0.0246
   20SAPC  H12R 2616   3.414   0.498   9.471  0.7609  1.4522 -0.9143
   20SAPC  C213 2617   3.350   0.696   9.559 -0.1402 -0.5431  0.6124
   20SAPC  H13R 2618   3.438   0.744   9.511 -0.5827  0.0905  0.4174
   20SAPC  H13S 2619   3.358   0.740   9.661 -1.5983  0.1410  0.4531
   20SAPC  C214 2620   3.219   0.731   9.492 -0.1814 -0.1722  0.3800
   20SAPC  H14R 2621   3.142   0.744   9.570 -1.9269 -0.2197 -1.2577
   20SAPC  C215 2622   3.189   0.732   9.363 -0.2291  0.4197  1.0206
   20SAPC  H15R 2623   3.088   0.763   9.331  0.6868  1.1202 -1.4520
   20SAPC  C216 2624   3.289   0.719   9.253  0.2128  0.4999  0.4865
   20SAPC  H16R 2625   3.245   0.695   9.154 -1.7867  2.4540  0.8258
   20SAPC  H16S 2626   3.373   0.651   9.279 -0.7552 -0.1771  1.9950
   20SAPC  C217 2627   3.375   0.845   9.220 -0.7957 -0.3608 -0.3526
   20SAPC  H17R 2628   3.437   0.871   9.308 -1.4094  1.0875 -0.3302
   20SAPC  H17S 2629   3.317   0.939   9.214  0.6507  0.4641 -2.5174
   20SAPC  C218 2630   3.474   0.837   9.096 -0.0765  0.1534  0.6435
   20SAPC  H18R 2631   3.414   0.821   9.004  1.0205  0.1233 -0.0816
   20SAPC  H18S 2632   3.538   0.746   9.106  2.1087  1.3601 -1.4739
   20SAPC  C219 2633   3.553   0.964   9.077  0.5755 -0.4099 -1.3825
   20SAPC  H19R 2634   3.588   1.012   9.171 -1.1046  1.5494 -1.6818
   20SAPC  H19S 2635   3.487   1.045   9.039  1.1665  1.0312  0.4625
   20SAPC  C220 2636   3.674   0.956   8.981 -0.5722 -0.7370 -0.1443
   20SAPC  H20R 2637   3.760   0.903   9.028 -0.2251  0.5830  0.7806
   20SAPC  H20S 2638   3.715   1.053   8.948  2.3376 -1.3647  1.3375
   20SAPC  H20T 2639   3.651   0.891   8.894  0.7083  0.1082 -1.1396
   20SAPC   C33 2640   3.371   0.103  10.449 -0.4623  0.0498  1.1004
   20SAPC   H3X 2641   3.296   0.023  10.466 -0.6484 -0.6660 -2.4868
   20SAPC   H3Y 2642   3.457   0.056  10.502  0.5842 -0.4926 -0.9722
   20SAPC   C34 2643   3.403   0.107  10.293 -0.5866  0.0917  0.1391
   20SAPC   H4X 2644   3.450   0.014  10.252 -0.5870  1.5625 -3.5453
   20SAPC   H4Y 2645   3.476   0.191  10.296  0.7370 -1.0064 -0.2420
   20SAPC   C35 2646   3.275   0.126  10.204  0.3737  0.2186 -0.1983
   20SAPC   H5X 2647   3.225   0.222  10.229  1.1506  0.4877  0.3873
   20SAPC   H5Y 2648   3.207   0.040  10.220 -1.1001  1.3587 -0.1377
   20SAPC   C36 2649   3.311   0.148  10.059 -0.3389 -0.2179  0.1636
   20SAPC   H6X 2650   3.385   0.068  10.035 -1.5002 -1.5255  0.8289
   20SAPC   H6Y 2651   3.367   0.243  10.046 -0.6051 -0.3892 -3.1763
   20SAPC   C37 2652   3.191   0.128   9.969 -0.5399 -0.0541 -0.2212
   20SAPC   H7X 2653   3.118   0.211   9.978  0.5243  0.7257  1.9851
   20SAPC   H7Y 2654   3.155   0.025   9.986  1.8981 -0.9923 -0.2984
   20SAPC   C38 2655   3.222   0.152   9.828 -0.1410 -0.0430 -0.2991
   20SAPC   H8X 2656   3.315   0.099   9.796  1.3436  1.0152  1.9778
   20SAPC   H8Y 2657   3.240   0.260   9.809 -0.8147  0.0543 -0.3985
   20SAPC   C39 2658   3.114   0.080   9.742  0.1765 -0.2732 -0.2094
   20SAPC   H9X 2659   3.020   0.134   9.765  0.9843  2.8883 -3.4900
   20SAPC   H9Y 2660   3.098  -0.022   9.784 -0.0280  0.0104  0.4071
   20SAPC  C310 2661   3.140   0.083   9.595  0.2235 -0.3891 -0.5624
   20SAPC  H10X 2662   3.075   0.023   9.528 -1.3567  0.2005  0.4122
   20SAPC  H10Y 2663   3.241   0.044   9.568 -0.0916 -0.0773 -2.3317
   20SAPC  C311 2664   3.146   0.229   9.525 -0.4285  0.9911  0.2908
   20SAPC  H11X 2665   3.245   0.278   9.534 -1.2707  2.8473 -0.1284
   20SAPC  H11Y 2666   3.075   0.297   9.575  0.3275  0.7937  1.6887
   20SAPC  C312 2667   3.106   0.228   9.371 -0.2206 -0.0195 -0.4808
   20SAPC  H12X 2668   3.007   0.177   9.367 -0.3988  0.1970  0.6224
   20SAPC  H12Y 2669   3.180   0.171   9.312 -0.7693  0.4330 -1.6403
   20SAPC  C313 2670   3.096   0.378   9.327  0.0640  0.1409  0.3953
   20SAPC  H13X 2671   3.198   0.421   9.335  0.7113 -1.3220  0.2993
   20SAPC  H13Y 2672   3.032   0.430   9.403  2.4852  1.5124  1.6325
   20SAPC  C314 2673   3.034   0.388   9.184  0.0538 -0.6181  0.5167
   20SAPC  H14X 2674   3.018   0.498   9.185  0.3370 -0.5410 -1.1773
   20SAPC  H14Y 2675   2.940   0.336   9.158 -0.6664  0.2822  1.2453
   20SAPC  C315 2676   3.145   0.363   9.080 -0.4468  0.6323  0.1108
   20SAPC  H15X 2677   3.170   0.255   9.086 -1.8819  0.2772  0.0211
   20SAPC  H15Y 2678   3.227   0.429   9.115 -2.6392  3.4164  0.3977
   20SAPC  C316 2679   3.093   0.393   8.945 -0.3488 -0.1294 -0.0722
   20SAPC  H16X 2680   3.048   0.495   8.939 -1.7444 -0.7527 -0.5244
   20SAPC  H16Y 2681   3.002   0.335   8.919 -0.0130 -0.9025  0.4672
   20SAPC  C317 2682   3.205   0.373   8.843 -0.1389  0.2935  0.2994
   20SAPC  H17X 2683   3.253   0.274   8.853  2.4443  1.4038 -0.3236
   20SAPC  H17Y 2684   3.291   0.441   8.860  0.6993 -0.3844 -1.0906
   20SAPC  C318 2685   3.173   0.392   8.688 -0.0044 -0.9701  0.0094
   20SAPC  H18X 2686   3.127   0.492   8.674 -0.0526 -1.0862 -0.6831
   20SAPC  H18Y 2687   3.100   0.319   8.647 -2.0712  0.4937  0.9067
   20SAPC  H18Z 2688   3.268   0.397   8.630 -0.5579  1.6672 -0.7920
   21SAPC     N 2689   3.227   1.987  10.449  0.3459 -0.6951 -0.2360
   21SAPC   C12 2690   3.178   1.869  10.363  0.4186  1.4349 -0.2091
   21SAPC  H12A 2691   3.256   1.798  10.339 -1.1487 -0.0109 -1.3707
   21SAPC  H12B 2692   3.146   1.896  10.263  0.7947  0.2993 -0.6607
   21SAPC   C13 2693   3.279   1.953  10.586 -1.0317  0.7836 -0.4465
   21SAPC  H13A 2694   3.207   1.888  10.632  0.1337 -1.3490 -1.5006
   21SAPC  H13B 2695   3.372   1.899  10.575 -1.0601  0.7769 -0.6510
   21SAPC  H13C 2696   3.297   2.041  10.647  2.2233  0.9458 -1.4363
   21SAPC   C14 2697   3.333   2.055  10.373 -0.1613  0.0180  0.1978
   21SAPC  H14A 2698   3.413   1.985  10.358 -0.8615 -0.2712 -2.6207
   21SAPC  H14B 2699   3.304   2.093  10.276  0.3277  0.6107  0.2763
   21SAPC  H14C 2700   3.363   2.145  10.426 -0.5779  0.7848 -0.8182
   21SAPC   C15 2701   3.118   2.083  10.461 -0.0490  0.5615 -0.3712
   21SAPC  H15A 2702   3.038   2.046  10.523 -0.1090 -0.6386 -1.1329
   21SAPC  H15B 2703   3.162   2.176  10.494 -0.8570  1.0534 -0.6494
   21SAPC  H15C 2704   3.072   2.103  10.365  0.8060  1.5815 -0.5982
   21SAPC   C11 2705   3.057   1.786  10.420  0.4218  0.3013  0.6562
   21SAPC  H11A 2706   3.029   1.705  10.349 -0.2170  1.2661 -0.2225
   21SAPC  H11B 2707   2.971   1.856  10.429  0.4044  0.1979  1.4156
   21SAPC     P 2708   3.143   1.604  10.574  0.0354 -0.0436  0.2419
   21SAPC   O13 2709   3.293   1.605  10.560 -0.5890 -0.1444 -0.7341
   21SAPC   O14 2710   3.096   1.557  10.708 -0.8424  0.6721 -0.0791
   21SAPC   O12 2711   3.084   1.745  10.553  0.1091  0.2854  0.1155
   21SAPC   O11 2712   3.080   1.504  10.467 -0.1884 -0.2387  0.5884
   21SAPC    C1 2713   3.146   1.380  10.430 -0.1622 -0.0107 -0.1905
   21SAPC    HA 2714   3.208   1.363  10.521 -0.2866  0.4586 -0.0151
   21SAPC    HB 2715   3.069   1.301  10.416 -0.3990  0.2513 -0.3805
   21SAPC    C2 2716   3.244   1.380  10.309 -0.0118 -0.6236  0.0070
   21SAPC    HS 2717   3.325   1.452  10.332 -0.4931 -0.1058  0.1207
   21SAPC   O21 2718   3.178   1.429  10.189  0.4885 -0.7471 -0.1203
   21SAPC   C21 2719   3.256   1.482  10.093  0.7003 -0.1767  0.5444
   21SAPC   O22 2720   3.378   1.473  10.096  0.8830  0.0385  0.2907
   21SAPC   C22 2721   3.167   1.542   9.987  1.2145 -0.9077  0.6984
   21SAPC   H2R 2722   3.234   1.579   9.906 -2.5438  1.9556 -1.3981
   21SAPC   H2S 2723   3.105   1.463   9.939  2.4863 -2.0606  0.8556
   21SAPC    C3 2724   3.300   1.240  10.284  0.3333  0.1036  0.0919
   21SAPC    HX 2725   3.367   1.213  10.368  1.3328 -0.0539 -0.7372
   21SAPC    HY 2726   3.376   1.246  10.203 -0.7066 -0.2907 -0.9596
   21SAPC   O31 2727   3.203   1.134  10.261  0.0302  0.2942 -0.2592
   21SAPC   C31 2728   3.169   1.109  10.132 -0.0307  0.2110 -0.3117
   21SAPC   O32 2729   3.214   1.173  10.036  0.1924  0.5889 -0.0170
   21SAPC   C32 2730   3.072   0.987  10.130  0.2085  0.1408  0.3137
   21SAPC   H2X 2731   2.974   1.026  10.166  0.4783  2.1315 -1.0093
   21SAPC   H2Y 2732   3.114   0.906  10.194  0.1157 -1.5103 -1.6074
   21SAPC   C23 2733   3.081   1.666  10.032 -0.1976  0.2460  0.0627
   21SAPC   H3R 2734   3.143   1.740  10.087  1.3780  0.1362 -1.5146
   21SAPC   H3S 2735   3.008   1.626  10.106 -0.1670 -1.9391 -1.0294
   21SAPC   C24 2736   3.014   1.733   9.913 -0.6367 -0.0641 -0.1285
   21SAPC   H4R 2737   2.967   1.658   9.845 -1.3304  1.3621 -1.2793
   21SAPC   H4S 2738   3.092   1.778   9.848  0.1172  0.2370  0.9474
   21SAPC   C25 2739   2.914   1.832   9.949 -0.5330 -0.3875  0.5028
   21SAPC   H5R 2740   2.871   1.828  10.050  1.1822  0.2922  1.3143
   21SAPC   C26 2741   2.857   1.913   9.855  0.9829  0.6812 -0.6637
   21SAPC   H6R 2742   2.783   1.977   9.905 -0.5433 -1.3017 -0.2237
   21SAPC   C27 2743   2.874   1.922   9.702  0.3972  0.0587  0.1306
   21SAPC   H7R 2744   2.788   1.872   9.653 -0.7251  1.9625  0.0765
   21SAPC   H7S 2745   2.969   1.874   9.669  0.6734  0.4663  0.3257
   21SAPC   C28 2746   2.868   2.073   9.673 -0.3121 -0.5514  0.0452
   21SAPC   H8R 2747   2.886   2.144   9.754 -0.0120  0.0721 -0.5535
   21SAPC   C29 2748   2.848   2.119   9.548  0.3121  0.6513 -0.0434
   21SAPC   H9R 2749   2.847   2.226   9.521 -0.4122  1.3861  2.5580
   21SAPC  C210 2750   2.808   2.032   9.425 -0.0846  0.4693 -0.4589
   21SAPC  H10R 2751   2.758   2.093   9.346 -1.0108  0.6207  0.2219
   21SAPC  H10S 2752   2.722   1.972   9.462  0.6016 -0.1370  0.1775
   21SAPC  C211 2753   2.915   1.938   9.365 -0.3927 -0.0707  0.1392
   21SAPC  H11R 2754   2.998   1.916   9.434  0.3554  2.8696  0.3161
   21SAPC  C212 2755   2.915   1.884   9.243  0.3524 -0.7311  0.3125
   21SAPC  H12R 2756   2.992   1.809   9.224 -0.5505 -1.6502  0.1988
   21SAPC  C213 2757   2.805   1.897   9.140 -0.1855 -0.4038  0.0837
   21SAPC  H13R 2758   2.753   1.995   9.141  1.1505  0.3787 -1.5653
   21SAPC  H13S 2759   2.729   1.826   9.179  1.4599 -0.9066  2.6728
   21SAPC  C214 2760   2.873   1.871   9.005 -0.4619  0.0458 -0.0028
   21SAPC  H14R 2761   2.961   1.936   8.997 -0.1438 -0.4452 -0.5774
   21SAPC  C215 2762   2.848   1.779   8.912  0.0098 -0.2514  0.1184
   21SAPC  H15R 2763   2.909   1.780   8.821  0.1304  2.6677  0.1415
   21SAPC  C216 2764   2.737   1.680   8.923  0.4557  0.4043  0.9249
   21SAPC  H16R 2765   2.706   1.673   9.030 -0.3539  2.3998  0.8626
   21SAPC  H16S 2766   2.782   1.582   8.897  1.3995  1.0204  0.1648
   21SAPC  C217 2767   2.605   1.713   8.843  0.1689 -0.3033  0.3929
   21SAPC  H17R 2768   2.633   1.736   8.738  0.3168  0.5265  0.6081
   21SAPC  H17S 2769   2.559   1.802   8.892 -0.1568 -0.3378  0.1536
   21SAPC  C218 2770   2.510   1.592   8.837  0.5043 -0.2857 -0.0157
   21SAPC  H18R 2771   2.466   1.587   8.939  0.5158 -2.6686 -0.0668
   21SAPC  H18S 2772   2.564   1.497   8.816 -0.7091 -0.8274 -0.7854
   21SAPC  C219 2773   2.400   1.609   8.733 -0.7468 -0.0225  0.3085
   21SAPC  H19R 2774   2.329   1.524   8.743 -0.4036 -0.3598 -0.0788
   21SAPC  H19S 2775   2.447   1.602   8.632 -0.6029  2.5463  0.1318
   21SAPC  C220 2776   2.327   1.737   8.730  0.6422 -0.1713  1.0011
   21SAPC  H20R 2777   2.242   1.721   8.660  0.2621 -0.0140  1.4197
   21SAPC  H20S 2778   2.381   1.823   8.683  0.7951 -1.2280 -0.8542
   21SAPC  H20T 2779   2.287   1.766   8.829  0.5461  1.0815  0.6213
   21SAPC   C33 2780   3.048   0.943   9.986 -0.5877 -0.3137 -0.2175
   21SAPC   H3X 2781   3.139   0.893   9.948 -0.9274 -1.5588  0.5311
   21SAPC   H3Y 2782   3.031   1.035   9.926  0.1157  1.0734  1.5818
   21SAPC   C34 2783   2.930   0.850   9.965  0.2303 -0.0396 -0.0346
   21SAPC   H4X 2784   2.850   0.907  10.016 -0.1275 -0.1865 -0.4260
   21SAPC   H4Y 2785   2.952   0.755  10.019  1.7605  1.0016  1.2926
   21SAPC   C35 2786   2.889   0.815   9.817  0.1739 -0.3951  0.3622
   21SAPC   H5X 2787   2.801   0.747   9.824  0.1933 -0.6949 -1.6575
   21SAPC   H5Y 2788   2.970   0.758   9.766 -0.2187 -0.6614  0.0209
   21SAPC   C36 2789   2.848   0.941   9.730 -0.2765 -0.3180  0.2148
   21SAPC   H6X 2790   2.923   1.022   9.736 -0.9242  0.4760 -1.6901
   21SAPC   H6Y 2791   2.754   0.975   9.780  1.2316  0.9219  2.3675
   21SAPC   C37 2792   2.827   0.905   9.583  0.0764 -0.0488 -0.3490
   21SAPC   H7X 2793   2.760   0.817   9.572 -0.7027  0.4456  0.3593
   21SAPC   H7Y 2794   2.931   0.889   9.547  2.0732 -0.9699  4.9358
   21SAPC   C38 2795   2.751   1.017   9.505  0.0850  0.3966 -0.7339
   21SAPC   H8X 2796   2.785   1.119   9.533  0.6533  0.0791 -0.2469
   21SAPC   H8Y 2797   2.649   1.011   9.548  1.3183 -1.6347  2.2571
   21SAPC   C39 2798   2.762   1.002   9.347 -0.0396  0.6279 -0.1024
   21SAPC   H9X 2799   2.742   0.899   9.311  0.5368  0.4842 -0.0249
   21SAPC   H9Y 2800   2.868   1.024   9.323  0.1733 -1.3588 -1.2207
   21SAPC  C310 2801   2.669   1.104   9.285 -0.3690 -0.0043  0.1355
   21SAPC  H10X 2802   2.682   1.207   9.325 -1.1399 -0.0483  0.5252
   21SAPC  H10Y 2803   2.566   1.069   9.309 -0.1443  0.1529  1.3950
   21SAPC  C311 2804   2.662   1.102   9.126 -0.1065 -0.1802  0.5660
   21SAPC  H11X 2805   2.668   1.000   9.081 -1.7809  0.1414 -0.4690
   21SAPC  H11Y 2806   2.748   1.154   9.079 -0.7167  0.5665  0.2510
   21SAPC  C312 2807   2.531   1.155   9.069  0.7666  0.3818  0.1250
   21SAPC  H12X 2808   2.520   1.262   9.096  1.8139  0.4348  0.3958
   21SAPC  H12Y 2809   2.449   1.091   9.108  0.6175 -0.3241 -1.3065
   21SAPC  C313 2810   2.529   1.135   8.918 -0.7982  0.4827 -0.4511
   21SAPC  H13X 2811   2.523   1.026   8.898  0.5324  0.4390 -0.7117
   21SAPC  H13Y 2812   2.626   1.167   8.875 -0.3169 -0.6164 -0.2083
   21SAPC  C314 2813   2.406   1.205   8.845  0.0209  0.3926 -0.1675
   21SAPC  H14X 2814   2.441   1.309   8.827  1.6700 -0.0292  0.4132
   21SAPC  H14Y 2815   2.320   1.212   8.915  0.7723 -0.0625  0.8288
   21SAPC  C315 2816   2.380   1.130   8.714 -0.1589 -0.0296 -0.1576
   21SAPC  H15X 2817   2.341   1.027   8.731 -0.3694 -0.0830 -0.9320
   21SAPC  H15Y 2818   2.476   1.120   8.659 -0.2899  0.6931 -0.5190
   21SAPC  C316 2819   2.270   1.204   8.637 -0.6747 -0.1713 -0.9845
   21SAPC  H16X 2820   2.295   1.308   8.608 -0.5136 -0.4882 -2.0035
   21SAPC  H16Y 2821   2.189   1.212   8.713  0.9128  0.2206  0.7521
   21SAPC  C317 2822   2.231   1.137   8.504 -0.0895 -0.4886  0.3142
   21SAPC  H17X 2823   2.170   1.049   8.534 -0.5286 -0.1994  0.2803
   21SAPC  H17Y 2824   2.318   1.100   8.446 -0.5222  0.9853 -1.3556
   21SAPC  C318 2825   2.137   1.217   8.407 -0.1658 -0.0235 -0.6482
   21SAPC  H18X 2826   2.035   1.220   8.449  0.5020 -0.6362  1.1325
   21SAPC  H18Y 2827   2.127   1.157   8.315  0.3879 -0.1432 -0.6360
   21SAPC  H18Z 2828   2.176   1.318   8.381  0.7837  0.0405  0.8884
   22SAPC     N 2829   0.744   1.823  10.935 -1.0116  0.4107 -0.1121
   22SAPC   C12 2830   0.633   1.802  10.834 -0.5801  0.4233 -1.2705
   22SAPC  H12A 2831   0.545   1.795  10.896  0.4212  1.6152  0.3721
   22SAPC  H12B 2832   0.657   1.705  10.793  0.7707 -0.7295  1.9150
   22SAPC   C13 2833   0.756   1.954  11.008 -0.0664 -0.7339  0.1767
   22SAPC  H13A 2834   0.775   2.034  10.937  2.1607 -1.7316 -0.4164
   22SAPC  H13B 2835   0.665   1.983  11.059  1.5463  1.3610  2.1342
   22SAPC  H13C 2836   0.841   1.956  11.074  1.1422 -2.4405 -1.2520
   22SAPC   C14 2837   0.734   1.721  11.045 -0.2492 -0.2788 -0.5232
   22SAPC  H14A 2838   0.736   1.621  11.005  1.1972 -1.1138  1.4503
   22SAPC  H14B 2839   0.830   1.729  11.092  0.0282 -2.2412 -0.7037
   22SAPC  H14C 2840   0.664   1.748  11.123  0.0114 -2.0157  0.3557
   22SAPC   C15 2841   0.873   1.800  10.863 -0.3224 -0.0502  0.2504
   22SAPC  H15A 2842   0.901   1.886  10.804  0.7821  0.0766  0.9368
   22SAPC  H15B 2843   0.953   1.777  10.931  0.7378  2.1606 -0.1835
   22SAPC  H15C 2844   0.870   1.717  10.793  3.9691 -0.0037 -0.2409
   22SAPC   C11 2845   0.618   1.899  10.714 -0.4929 -0.8308 -0.5025
   22SAPC  H11A 2846   0.538   1.853  10.651 -1.8651  1.4479 -0.5420
   22SAPC  H11B 2847   0.714   1.890  10.660  0.3587 -0.5426  0.9209
   22SAPC     P 2848   0.676   2.163  10.716  0.2313 -0.3829 -0.0154
   22SAPC   O13 2849   0.622   2.280  10.792 -0.2415  0.1202  0.1103
   22SAPC   O14 2850   0.819   2.122  10.742  0.2659  0.0386  0.2054
   22SAPC   O12 2851   0.583   2.038  10.743 -0.3662 -0.1431  0.2857
   22SAPC   O11 2852   0.653   2.189  10.559  0.7232  0.2514 -0.0090
   22SAPC    C1 2853   0.726   2.298  10.497  0.3727  0.5245  0.4948
   22SAPC    HA 2854   0.655   2.382  10.481  1.2825  1.1767 -0.2871
   22SAPC    HB 2855   0.795   2.359  10.559  0.0426  1.2975  0.1147
   22SAPC    C2 2856   0.804   2.250  10.374  0.0746 -0.2899  0.0873
   22SAPC    HS 2857   0.871   2.335  10.346 -1.2047  0.0704 -2.1111
   22SAPC   O21 2858   0.718   2.210  10.259  0.0784  0.6075 -0.2220
   22SAPC   C21 2859   0.655   2.310  10.195  0.4814  0.5615  0.1990
   22SAPC   O22 2860   0.673   2.426  10.217  0.0953 -0.2350 -0.5521
   22SAPC   C22 2861   0.542   2.245  10.120 -0.1530  0.2751 -0.3747
   22SAPC   H2R 2862   0.591   2.170  10.054 -2.5634 -0.5751 -1.3195
   22SAPC   H2S 2863   0.464   2.199  10.184  0.0528 -2.1053 -1.7022
   22SAPC    C3 2864   0.907   2.143  10.407  0.1481 -0.3317 -0.1037
   22SAPC    HX 2865   0.872   2.070  10.483  2.2066 -1.2706  0.0326
   22SAPC    HY 2866   0.977   2.189  10.480 -0.7645  0.1143  0.5114
   22SAPC   O31 2867   0.980   2.086  10.292  0.0016 -0.3736 -0.1128
   22SAPC   C31 2868   0.917   1.984  10.228 -0.2751 -0.1792  0.1039
   22SAPC   O32 2869   0.810   1.933  10.255 -0.4244 -0.4310 -0.6317
   22SAPC   C32 2870   1.008   1.945  10.110 -0.3254  0.4769 -0.4036
   22SAPC   H2X 2871   0.954   1.852  10.081 -2.1695  0.8188  1.6645
   22SAPC   H2Y 2872   1.111   1.925  10.147 -0.1150 -0.7368 -1.5593
   22SAPC   C23 2873   0.482   2.357  10.034 -0.1340 -0.4607  1.1153
   22SAPC   H3R 2874   0.555   2.394   9.958 -0.4606 -3.1127 -0.6214
   22SAPC   H3S 2875   0.446   2.446  10.089  1.6964  2.5828 -2.1788
   22SAPC   C24 2876   0.371   2.305   9.947  0.1846 -0.0703 -0.2025
   22SAPC   H4R 2877   0.305   2.379   9.896 -2.2630 -1.0073  1.4377
   22SAPC   H4S 2878   0.297   2.262  10.018 -2.3487  1.9940 -1.4151
   22SAPC   C25 2879   0.407   2.189   9.855 -0.0094 -0.3589  1.2306
   22SAPC   H5R 2880   0.400   2.093   9.910 -1.7234 -1.2217 -0.3904
   22SAPC   C26 2881   0.436   2.196   9.721 -0.1052 -0.0287 -0.2996
   22SAPC   H6R 2882   0.440   2.106   9.658  0.3130  0.0695 -0.4162
   22SAPC   C27 2883   0.448   2.319   9.635 -0.0195  0.2841  0.0273
   22SAPC   H7R 2884   0.551   2.312   9.593 -0.5282  0.6419 -1.3160
   22SAPC   H7S 2885   0.457   2.412   9.695  0.2731  1.5868 -1.9679
   22SAPC   C28 2886   0.338   2.329   9.526 -0.5472  0.3751 -0.9042
   22SAPC   H8R 2887   0.242   2.365   9.566 -0.3129 -0.0860  0.1027
   22SAPC   C29 2888   0.354   2.303   9.398 -0.5157  1.1783  0.7804
   22SAPC   H9R 2889   0.270   2.322   9.330  0.5175  0.6031 -0.7197
   22SAPC  C210 2890   0.486   2.253   9.331  0.2184  0.1711  0.5062
   22SAPC  H10R 2891   0.547   2.203   9.409 -0.5006  1.0638  1.6754
   22SAPC  H10S 2892   0.543   2.339   9.290  0.9145 -0.2003  0.6920
   22SAPC  C211 2893   0.455   2.146   9.223 -0.2531 -0.1334 -0.0846
   22SAPC  H11R 2894   0.388   2.071   9.267 -1.0312  0.1476 -0.7667
   22SAPC  C212 2895   0.498   2.145   9.096 -0.0111  0.3945 -0.2972
   22SAPC  H12R 2896   0.458   2.077   9.019 -0.6185 -0.7714  0.9958
   22SAPC  C213 2897   0.599   2.236   9.034  0.1410 -0.2927  0.0571
   22SAPC  H13R 2898   0.651   2.187   8.949  3.1455 -0.0705  1.6264
   22SAPC  H13S 2899   0.691   2.253   9.094  0.8847  0.2874 -1.2137
   22SAPC  C214 2900   0.554   2.372   8.989 -0.4076  0.1384 -0.0952
   22SAPC  H14R 2901   0.579   2.464   9.043 -1.6250  1.3622 -1.5461
   22SAPC  C215 2902   0.488   2.387   8.874  0.2079 -0.0625  0.2619
   22SAPC  H15R 2903   0.456   2.489   8.850 -1.1497  0.2327  2.9581
   22SAPC  C216 2904   0.450   2.280   8.769  0.0454 -0.0354 -0.3184
   22SAPC  H16R 2905   0.525   2.199   8.784 -1.8609 -1.6276  1.2467
   22SAPC  H16S 2906   0.453   2.314   8.664 -2.7519  1.8598  0.1077
   22SAPC  C217 2907   0.313   2.219   8.785  0.5115  0.2159  0.4323
   22SAPC  H17R 2908   0.231   2.294   8.788  0.3688  0.1916 -1.4961
   22SAPC  H17S 2909   0.317   2.169   8.884 -1.4500  2.9517  2.0234
   22SAPC  C218 2910   0.266   2.122   8.668  0.9015 -1.0113  0.5964
   22SAPC  H18R 2911   0.167   2.082   8.695  0.6653 -0.6009  0.3460
   22SAPC  H18S 2912   0.339   2.040   8.651  1.6883  0.1311 -2.1535
   22SAPC  C219 2913   0.238   2.205   8.533  0.4896 -0.0370 -0.4105
   22SAPC  H19R 2914   0.332   2.222   8.477 -0.2034  3.1256 -0.7687
   22SAPC  H19S 2915   0.190   2.301   8.560 -0.8758 -0.8940  0.3492
   22SAPC  C220 2916   0.131   2.134   8.441 -0.5155  0.5795 -0.2029
   22SAPC  H20R 2917   0.069   2.210   8.388  0.1042  0.8573 -0.5437
   22SAPC  H20S 2918   0.052   2.086   8.502 -0.6295  1.9275  0.7404
   22SAPC  H20T 2919   0.186   2.072   8.366  0.2214  2.6515 -1.4671
   22SAPC   C33 2920   1.019   2.043   9.994  0.4310  0.5873  0.0372
   22SAPC   H3X 2921   1.072   1.992   9.911  2.3805  0.6430  1.2011
   22SAPC   H3Y 2922   1.070   2.136  10.028 -1.2186  1.2716  0.7703
   22SAPC   C34 2923   0.878   2.087   9.944 -0.1061 -0.7111 -0.3475
   22SAPC   H4X 2924   0.806   2.129  10.017 -2.1575 -1.2242 -1.9876
   22SAPC   H4Y 2925   0.833   2.002   9.889 -1.5388 -0.5832  0.5832
   22SAPC   C35 2926   0.893   2.201   9.842  0.2813 -0.4167  0.3192
   22SAPC   H5X 2927   0.944   2.288   9.890 -1.1778  1.1565 -0.8624
   22SAPC   H5Y 2928   0.792   2.239   9.816  0.4960  0.3131  0.5084
   22SAPC   C36 2929   0.974   2.161   9.720  0.2601  0.5835  0.4638
   22SAPC   H6X 2930   0.976   2.051   9.709 -1.6502  0.6515 -1.0528
   22SAPC   H6Y 2931   1.077   2.196   9.743  0.9923 -0.4187 -1.1556
   22SAPC   C37 2932   0.932   2.219   9.579  0.4427  0.0416 -0.1973
   22SAPC   H7X 2933   0.824   2.198   9.561 -0.0587  1.5564  0.8249
   22SAPC   H7Y 2934   0.991   2.157   9.508 -0.1489 -1.8919  0.9186
   22SAPC   C38 2935   0.979   2.364   9.579 -0.4538  0.7896 -0.4873
   22SAPC   H8X 2936   1.072   2.364   9.640 -1.8720 -2.3945  1.9297
   22SAPC   H8Y 2937   0.901   2.425   9.627 -1.2073  0.5334 -1.3504
   22SAPC   C39 2938   1.011   2.411   9.436 -0.5033 -0.0843 -0.4249
   22SAPC   H9X 2939   1.092   2.346   9.397 -0.5412  0.4407 -1.4081
   22SAPC   H9Y 2940   1.037   2.519   9.443 -1.9701  0.2741 -0.1827
   22SAPC  C310 2941   0.896   2.398   9.332  0.7900 -0.5437 -0.6333
   22SAPC  H10X 2942   0.810   2.439   9.387  0.9557  0.5637 -1.1828
   22SAPC  H10Y 2943   0.857   2.298   9.302 -0.4294 -0.0323 -0.7799
   22SAPC  C311 2944   0.930   2.468   9.201  0.5758 -0.4834  0.6322
   22SAPC  H11X 2945   0.983   2.560   9.233  0.6069 -0.4093  0.3664
   22SAPC  H11Y 2946   0.848   2.489   9.129  3.6626  0.5333 -2.8947
   22SAPC  C312 2947   1.037   2.391   9.123  0.1359  0.2217  0.0791
   22SAPC  H12X 2948   0.988   2.298   9.087  1.5110 -1.2477  1.8267
   22SAPC  H12Y 2949   1.124   2.352   9.181  0.2277 -1.7216 -1.2698
   22SAPC  C313 2950   1.104   2.476   9.008 -0.7344 -0.1336 -0.4271
   22SAPC  H13X 2951   1.193   2.426   8.964 -1.2961  1.0249 -3.1126
   22SAPC  H13Y 2952   1.147   2.568   9.053  3.4452 -2.3611  0.6490
   22SAPC  C314 2953   1.014   2.531   8.895 -0.3455 -0.1641 -0.4489
   22SAPC  H14X 2954   1.059   2.608   8.829  0.2683  0.3316  0.5289
   22SAPC  H14Y 2955   0.918   2.565   8.938 -0.2131  0.1629 -0.4060
   22SAPC  C315 2956   0.961   2.420   8.798 -0.7157  0.0623 -0.4091
   22SAPC  H15X 2957   0.893   2.357   8.859  0.3048 -1.7410 -1.0537
   22SAPC  H15Y 2958   1.047   2.354   8.772 -0.5782  0.1859 -0.2687
   22SAPC  C316 2959   0.894   2.471   8.668  0.3057 -0.6096 -0.5346
   22SAPC  H16X 2960   0.970   2.545   8.635 -0.4660  1.8561  2.6869
   22SAPC  H16Y 2961   0.796   2.519   8.689  0.0300 -2.0013  1.7307
   22SAPC  C317 2962   0.886   2.363   8.554 -1.2937 -0.2296  0.8077
   22SAPC  H17X 2963   0.815   2.287   8.593 -1.4292 -0.0471  0.9172
   22SAPC  H17Y 2964   0.981   2.306   8.544 -0.6236  0.3364  3.3598
   22SAPC  C318 2965   0.840   2.406   8.413 -0.9354  0.2144  0.7622
   22SAPC  H18X 2966   0.860   2.336   8.329 -3.6224  1.5389 -1.1407
   22SAPC  H18Y 2967   0.878   2.505   8.379 -0.8567  0.6031  1.9315
   22SAPC  H18Z 2968   0.729   2.417   8.408 -0.9571 -0.4532 -2.1071
   23SAPC     N 2969   2.552   6.124  10.882  0.2167  0.8331  0.2037
   23SAPC   C12 2970   2.619   6.068  10.769 -1.2251  0.2910  0.2575
   23SAPC  H12A 2971   2.698   6.008  10.811 -1.1247  0.9994  1.1202
   23SAPC  H12B 2972   2.686   6.139  10.723  3.7145 -2.7869  1.9355
   23SAPC   C13 2973   2.451   6.032  10.940 -0.4927 -0.1002 -0.5061
   23SAPC  H13A 2974   2.503   5.946  10.979 -0.3836 -0.0254 -0.4858
   23SAPC  H13B 2975   2.409   6.080  11.028  1.4905 -1.7058  1.4285
   23SAPC  H13C 2976   2.379   6.002  10.865  0.8883 -1.8845 -1.1805
   23SAPC   C14 2977   2.649   6.159  10.990  0.0835  1.2676  0.3573
   23SAPC  H14A 2978   2.598   6.219  11.064 -0.4438 -2.3404  3.2030
   23SAPC  H14B 2979   2.701   6.074  11.033  0.5416  0.6129 -1.4000
   23SAPC  H14C 2980   2.730   6.223  10.957  0.8191  1.4464  2.3645
   23SAPC   C15 2981   2.485   6.251  10.839 -0.1531 -0.5303 -0.1993
   23SAPC  H15A 2982   2.425   6.289  10.920  0.9390 -0.4548  0.5771
   23SAPC  H15B 2983   2.561   6.323  10.813  0.7983 -0.2046  3.0940
   23SAPC  H15C 2984   2.431   6.237  10.746  0.5344  0.2363 -0.7227
   23SAPC   C11 2985   2.551   5.987  10.660 -0.4002 -0.0075  0.1339
   23SAPC  H11A 2986   2.607   5.977  10.564  1.7292  1.8688  1.1034
   23SAPC  H11B 2987   2.460   6.040  10.627  0.9244  0.9952 -2.1966
   23SAPC     P 2988   2.639   5.752  10.734  0.0247  0.0495  0.0424
   23SAPC   O13 2989   2.756   5.814  10.789 -0.4866  0.2269  0.2044
   23SAPC   O14 2990   2.585   5.637  10.814 -0.0205 -0.3160  0.3644
   23SAPC   O12 2991   2.526   5.860  10.714  0.2242 -0.6985  0.7594
   23SAPC   O11 2992   2.665   5.707  10.586 -1.2906 -0.4380 -0.0787
   23SAPC    C1 2993   2.567   5.665  10.498 -0.0915 -0.1332  0.5160
   23SAPC    HA 2994   2.560   5.554  10.499 -0.2944 -0.1427 -0.6081
   23SAPC    HB 2995   2.467   5.708  10.522  0.5511  1.1604  0.9530
   23SAPC    C2 2996   2.617   5.714  10.363 -0.1678 -0.3979  1.0532
   23SAPC    HS 2997   2.719   5.670  10.355 -1.1142 -2.8310  1.4688
   23SAPC   O21 2998   2.605   5.854  10.343  0.0020  0.0838 -0.0457
   23SAPC   C21 2999   2.689   5.916  10.260 -0.2725  0.1488 -0.5843
   23SAPC   O22 3000   2.784   5.866  10.206 -0.3153  0.3153 -0.3993
   23SAPC   C22 3001   2.649   6.067  10.245 -0.1408  0.4226  0.5326
   23SAPC   H2R 3002   2.625   6.090  10.351  1.1625 -1.5233  1.3188
   23SAPC   H2S 3003   2.740   6.127  10.226  1.3790 -1.2385  2.1052
   23SAPC    C3 3004   2.536   5.645  10.245 -0.1422  0.3506  0.2886
   23SAPC    HX 3005   2.429   5.673  10.259 -0.7331 -1.3174 -0.6989
   23SAPC    HY 3006   2.546   5.535  10.258 -1.0728  0.3512  1.1689
   23SAPC   O31 3007   2.579   5.684  10.112  0.3266  0.6040  0.2507
   23SAPC   C31 3008   2.692   5.627  10.065  0.4152 -0.1223 -0.5668
   23SAPC   O32 3009   2.768   5.557  10.136 -0.7888 -0.2094  0.0056
   23SAPC   C32 3010   2.709   5.679   9.921 -0.6069  0.3113  0.5036
   23SAPC   H2X 3011   2.759   5.778   9.934 -0.2549  0.0860  0.8694
   23SAPC   H2Y 3012   2.612   5.695   9.870  0.5525  2.4433 -1.2173
   23SAPC   C23 3013   2.538   6.094  10.140 -0.1950 -0.1020 -0.1356
   23SAPC   H3R 3014   2.509   6.196  10.172 -1.7168 -0.4158 -0.4354
   23SAPC   H3S 3015   2.449   6.029  10.155  0.5595 -1.1264 -0.0295
   23SAPC   C24 3016   2.586   6.080   9.994 -0.2348 -0.3960 -0.1442
   23SAPC   H4R 3017   2.587   5.970   9.977 -1.4788 -0.1266 -2.3382
   23SAPC   H4S 3018   2.686   6.129  10.001 -1.3878  1.8373  1.7146
   23SAPC   C25 3019   2.510   6.132   9.872  0.3141  0.0757 -0.1288
   23SAPC   H5R 3020   2.423   6.196   9.894  0.0078 -0.7127  1.0561
   23SAPC   C26 3021   2.539   6.099   9.740  0.4597  0.0285 -0.0720
   23SAPC   H6R 3022   2.472   6.136   9.660  0.0704 -2.5072 -1.0099
   23SAPC   C27 3023   2.643   6.002   9.689  0.1741  0.8271 -0.2971
   23SAPC   H7R 3024   2.707   5.967   9.773 -0.1131 -0.5462 -0.6204
   23SAPC   H7S 3025   2.707   6.070   9.629 -0.5246  1.3721 -0.4360
   23SAPC   C28 3026   2.583   5.890   9.607  1.1260  0.4527  0.3408
   23SAPC   H8R 3027   2.509   5.823   9.652  2.4976 -1.5184 -0.2000
   23SAPC   C29 3028   2.627   5.852   9.486  0.8847 -0.1382 -0.3966
   23SAPC   H9R 3029   2.589   5.758   9.442 -2.0810  1.0505 -0.6361
   23SAPC  C210 3030   2.749   5.905   9.408  0.8395  0.2708 -0.0136
   23SAPC  H10R 3031   2.773   5.829   9.331 -2.0655 -0.7302 -0.0524
   23SAPC  H10S 3032   2.833   5.931   9.476 -1.0093  0.4528  2.3724
   23SAPC  C211 3033   2.709   6.025   9.322  0.1353 -0.5747 -0.4089
   23SAPC  H11R 3034   2.750   6.115   9.369 -1.5781  0.4687 -0.8466
   23SAPC  C212 3035   2.639   6.021   9.202 -0.6463 -0.3704  0.5262
   23SAPC  H12R 3036   2.615   6.116   9.154 -1.6179 -1.0007 -0.2761
   23SAPC  C213 3037   2.600   5.902   9.118 -0.6513  0.4772  0.1874
   23SAPC  H13R 3038   2.499   5.918   9.074 -2.5763 -3.9116  2.3927
   23SAPC  H13S 3039   2.575   5.811   9.177  0.4966  0.4851  0.7048
   23SAPC  C214 3040   2.698   5.861   9.013 -0.4848  0.2854 -0.2275
   23SAPC  H14R 3041   2.799   5.901   9.033 -0.0345 -0.8557 -0.1152
   23SAPC  C215 3042   2.672   5.793   8.905 -0.4618 -0.4942  0.1542
   23SAPC  H15R 3043   2.757   5.767   8.840 -0.8142  0.6671 -0.8159
   23SAPC  C216 3044   2.542   5.760   8.849  0.4209  0.3802  0.8808
   23SAPC  H16R 3045   2.474   5.803   8.925  1.4838 -0.3063  2.2778
   23SAPC  H16S 3046   2.540   5.649   8.839 -0.1132  0.3139  1.6320
   23SAPC  C217 3047   2.511   5.842   8.722 -0.4581  0.3273 -0.5818
   23SAPC  H17R 3048   2.498   5.951   8.742 -1.2808  0.0929  0.2380
   23SAPC  H17S 3049   2.407   5.812   8.701  0.1046 -3.3314  1.0744
   23SAPC  C218 3050   2.591   5.798   8.598 -0.6356 -0.1214  0.0034
   23SAPC  H18R 3051   2.581   5.687   8.600 -1.9625 -0.0253  1.8790
   23SAPC  H18S 3052   2.698   5.826   8.609 -0.7702  1.1976 -1.6808
   23SAPC  C219 3053   2.551   5.866   8.466 -0.6037 -0.1661 -0.0254
   23SAPC  H19R 3054   2.551   5.976   8.474 -1.3327 -0.1113 -0.6763
   23SAPC  H19S 3055   2.445   5.838   8.449 -1.7419  1.1738  3.8212
   23SAPC  C220 3056   2.642   5.830   8.346 -0.2566  0.0767  0.0906
   23SAPC  H20R 3057   2.746   5.864   8.364 -0.7727  3.3341 -2.2100
   23SAPC  H20S 3058   2.611   5.871   8.248 -0.9610 -2.9087 -1.0537
   23SAPC  H20T 3059   2.647   5.720   8.333  0.3664  0.0607  0.4154
   23SAPC   C33 3060   2.802   5.585   9.850  0.2205  0.5585  0.2672
   23SAPC   H3X 3061   2.770   5.479   9.841 -0.4099  0.6721  1.0406
   23SAPC   H3Y 3062   2.889   5.588   9.918 -1.2652 -2.7204  2.5881
   23SAPC   C34 3063   2.864   5.637   9.714 -0.2640  0.0649  0.0352
   23SAPC   H4X 3064   2.890   5.744   9.728  1.1357 -0.0311 -1.5441
   23SAPC   H4Y 3065   2.795   5.623   9.628 -0.0362  1.7948 -0.4772
   23SAPC   C35 3066   2.997   5.568   9.690 -0.1309 -0.4467  0.1122
   23SAPC   H5X 3067   2.973   5.460   9.695 -2.3303  0.0266  0.8112
   23SAPC   H5Y 3068   3.063   5.594   9.776  1.6488  0.0440 -1.3367
   23SAPC   C36 3069   3.070   5.599   9.561  0.3052 -0.5971 -0.0578
   23SAPC   H6X 3070   3.152   5.525   9.551 -0.2470 -1.2309  0.0141
   23SAPC   H6Y 3071   3.116   5.699   9.577 -0.2843 -0.6552  2.5546
   23SAPC   C37 3072   2.991   5.607   9.432 -0.4642  0.2071 -0.7129
   23SAPC   H7X 3073   2.915   5.688   9.440  1.1234  1.7487 -0.4490
   23SAPC   H7Y 3074   2.943   5.509   9.412 -1.5778  0.2952  1.2720
   23SAPC   C38 3075   3.070   5.649   9.308  0.1972  0.3166 -0.8239
   23SAPC   H8X 3076   3.131   5.561   9.277  1.2048  0.8703 -0.4517
   23SAPC   H8Y 3077   3.136   5.735   9.333  0.0921 -0.2004  1.4320
   23SAPC   C39 3078   2.991   5.684   9.177 -0.0911  0.4439  0.3181
   23SAPC   H9X 3079   2.957   5.790   9.181 -0.5614  0.2702  1.3368
   23SAPC   H9Y 3080   2.897   5.624   9.179  1.8784 -2.8249  0.8517
   23SAPC  C310 3081   3.049   5.638   9.045 -0.7652 -0.3717  0.5789
   23SAPC  H10X 3082   2.961   5.654   8.979  0.5513  2.6233 -0.6755
   23SAPC  H10Y 3083   3.072   5.530   9.045 -0.6084 -0.4662 -3.1208
   23SAPC  C311 3084   3.167   5.727   8.989  0.3644  0.5282 -0.3359
   23SAPC  H11X 3085   3.263   5.707   9.040 -0.0176  2.3778  1.2079
   23SAPC  H11Y 3086   3.130   5.829   9.012 -0.1839  0.4588 -0.8896
   23SAPC  C312 3087   3.176   5.705   8.838  0.2650  0.6021  0.3978
   23SAPC  H12X 3088   3.232   5.793   8.802  2.2029 -0.8010 -0.1560
   23SAPC  H12Y 3089   3.071   5.710   8.800  0.0084  1.6445  1.2175
   23SAPC  C313 3090   3.253   5.576   8.792 -0.3579  0.6268  0.9539
   23SAPC  H13X 3091   3.208   5.492   8.850  0.3240  0.4262  1.2048
   23SAPC  H13Y 3092   3.361   5.582   8.817  0.1431 -1.4809 -0.4910
   23SAPC  C314 3093   3.251   5.549   8.634  0.0035 -0.0066 -0.7078
   23SAPC  H14X 3094   3.333   5.474   8.623  0.9397  0.8695  0.1392
   23SAPC  H14Y 3095   3.280   5.646   8.589 -1.8791 -0.1521 -2.3788
   23SAPC  C315 3096   3.110   5.506   8.581  0.0957  0.0875  0.3404
   23SAPC  H15X 3097   3.041   5.590   8.605  1.5198  1.3592  0.1430
   23SAPC  H15Y 3098   3.094   5.413   8.639 -0.1811 -1.2603 -1.8119
   23SAPC  C316 3099   3.093   5.449   8.438 -0.3951 -1.4707 -0.2435
   23SAPC  H16X 3100   2.997   5.397   8.421 -0.7218 -0.6729 -0.9195
   23SAPC  H16Y 3101   3.176   5.376   8.426  1.3175  0.1927  0.8254
   23SAPC  C317 3102   3.106   5.563   8.338  0.0596  0.3866 -1.3597
   23SAPC  H17X 3103   3.137   5.511   8.245  1.4048 -1.6573  0.1372
   23SAPC  H17Y 3104   3.186   5.636   8.359  1.3293 -1.2074 -0.4244
   23SAPC  C318 3105   2.973   5.636   8.328  0.3199  0.1585  0.1644
   23SAPC  H18X 3106   2.938   5.659   8.431  1.8109 -3.3781  1.6029
   23SAPC  H18Y 3107   2.901   5.574   8.271  2.8682 -2.4840 -0.4096
   23SAPC  H18Z 3108   2.974   5.735   8.277 -2.1462 -0.4340 -1.1983
   24SAPC     N 3109   0.489   4.710  10.780  0.5579 -0.5265 -0.1072
   24SAPC   C12 3110   0.339   4.699  10.803 -0.4279 -0.1510  0.2351
   24SAPC  H12A 3111   0.323   4.662  10.903  0.1929  1.5492  0.9845
   24SAPC  H12B 3112   0.305   4.618  10.739  1.2513  2.2393 -4.0950
   24SAPC   C13 3113   0.564   4.586  10.825 -0.6813  0.6607 -0.3151
   24SAPC  H13A 3114   0.528   4.491  10.787  1.7260 -1.1934  1.7376
   24SAPC  H13B 3115   0.669   4.590  10.799 -0.3024 -0.7034  0.8971
   24SAPC  H13C 3116   0.563   4.577  10.932  0.2689 -1.7247 -0.4436
   24SAPC   C14 3117   0.517   4.740  10.635  0.0473  0.3350  0.1109
   24SAPC  H14A 3118   0.617   4.708  10.611 -0.4075 -0.1334 -1.2299
   24SAPC  H14B 3119   0.448   4.682  10.575  0.6753  0.2100 -0.4965
   24SAPC  H14C 3120   0.496   4.842  10.605 -1.5549 -0.3021 -1.0959
   24SAPC   C15 3121   0.542   4.825  10.866 -0.4535 -0.1963  0.7820
   24SAPC  H15A 3122   0.646   4.850  10.856  0.3567 -3.0176  1.2910
   24SAPC  H15B 3123   0.478   4.912  10.867  0.3316  0.3931  0.5004
   24SAPC  H15C 3124   0.524   4.787  10.965 -3.0541  0.4595  0.6432
   24SAPC   C11 3125   0.255   4.827  10.780  0.5568 -0.5523 -0.2974
   24SAPC  H11A 3126   0.152   4.787  10.773  1.0005 -2.4773  2.5899
   24SAPC  H11B 3127   0.288   4.882  10.689 -0.5960 -2.1408 -1.7385
   24SAPC     P 3128   0.136   5.013  10.903 -0.2974 -0.4157  0.0403
   24SAPC   O13 3129   0.048   4.930  10.991  0.5659 -0.3402  0.6159
   24SAPC   O14 3130   0.180   5.141  10.959  0.5567  0.0510 -0.1833
   24SAPC   O12 3131   0.266   4.922  10.883  1.0170 -0.1577 -0.5917
   24SAPC   O11 3132   0.080   5.037  10.762  0.7222 -0.0093  0.3555
   24SAPC    C1 3133   0.094   5.152  10.679  0.4181 -0.2456  0.4970
   24SAPC    HA 3134  -0.001   5.160  10.621  0.2201 -0.0723  0.8441
   24SAPC    HB 3135   0.099   5.247  10.737 -2.0467  0.6832 -0.6420
   24SAPC    C2 3136   0.215   5.128  10.579 -0.3552 -0.8193 -1.0864
   24SAPC    HS 3137   0.229   5.019  10.565  0.0680 -0.8503 -0.4822
   24SAPC   O21 3138   0.329   5.179  10.648  0.4511  0.2027  0.4975
   24SAPC   C21 3139   0.448   5.112  10.626 -0.3312 -0.3104 -0.2951
   24SAPC   O22 3140   0.457   5.008  10.558  0.5517 -0.0669 -0.1675
   24SAPC   C22 3141   0.566   5.178  10.696 -0.7858 -0.3100 -0.0061
   24SAPC   H2R 3142   0.554   5.288  10.688 -0.1922 -0.1934  0.6177
   24SAPC   H2S 3143   0.564   5.147  10.802 -0.5013  1.2008  0.4606
   24SAPC    C3 3144   0.197   5.208  10.450 -0.0127 -0.1359 -0.3519
   24SAPC    HX 3145   0.286   5.187  10.386 -0.6183 -1.8650 -0.6935
   24SAPC    HY 3146   0.200   5.318  10.464  3.0934 -0.1210 -0.2614
   24SAPC   O31 3147   0.069   5.177  10.385  0.9594  0.3980 -0.0083
   24SAPC   C31 3148   0.061   5.218  10.257  0.3816 -0.3017 -0.4869
   24SAPC   O32 3149   0.145   5.281  10.195  0.3295  0.0459 -0.3714
   24SAPC   C32 3150  -0.082   5.176  10.206  0.0241 -0.6066 -0.2081
   24SAPC   H2X 3151  -0.158   5.235  10.263  2.5210  1.5526  1.1469
   24SAPC   H2Y 3152  -0.096   5.066  10.212 -2.0547 -0.4199 -0.8999
   24SAPC   C23 3153   0.705   5.143  10.638  0.4302  0.2623 -0.0671
   24SAPC   H3R 3154   0.722   5.035  10.653  0.0881  0.0826 -0.9096
   24SAPC   H3S 3155   0.770   5.209  10.700 -1.7726  3.6956 -1.1177
   24SAPC   C24 3156   0.719   5.185  10.492 -0.6835  0.5043 -0.7295
   24SAPC   H4R 3157   0.644   5.115  10.449  0.5556 -3.2681  2.6456
   24SAPC   H4S 3158   0.820   5.154  10.456 -0.2015  0.9632  0.2059
   24SAPC   C25 3159   0.703   5.328  10.470 -0.0251 -0.3971 -0.4226
   24SAPC   H5R 3160   0.776   5.398  10.512  3.0480 -1.6477 -3.2260
   24SAPC   C26 3161   0.619   5.389  10.386 -0.6220  0.6289 -0.3821
   24SAPC   H6R 3162   0.617   5.499  10.384 -1.6326  0.6192 -0.3223
   24SAPC   C27 3163   0.524   5.313  10.295 -0.0032  0.1457  0.4082
   24SAPC   H7R 3164   0.433   5.357  10.251 -0.2302 -1.9191 -1.3691
   24SAPC   H7S 3165   0.486   5.224  10.350  1.2926 -0.3679  0.5154
   24SAPC   C28 3166   0.596   5.265  10.174 -0.1314  0.4250  0.3269
   24SAPC   H8R 3167   0.697   5.306  10.157  0.8151 -1.5439  0.8676
   24SAPC   C29 3168   0.549   5.169  10.093 -0.6467  0.4692 -0.3534
   24SAPC   H9R 3169   0.605   5.129  10.007 -2.3916 -1.5612 -0.6438
   24SAPC  C210 3170   0.421   5.094  10.115  0.5440 -0.4727  0.1977
   24SAPC  H10R 3171   0.352   5.176  10.088  0.5279  0.3133  2.3752
   24SAPC  H10S 3172   0.406   5.079  10.224 -1.8617 -1.4217 -0.2083
   24SAPC  C211 3173   0.400   4.971  10.034  0.7816 -0.0394  0.1178
   24SAPC  H11R 3174   0.410   4.874  10.085  3.1309 -0.0700 -0.3001
   24SAPC  C212 3175   0.363   4.970   9.908  0.1248 -0.3863  0.4787
   24SAPC  H12R 3176   0.351   4.873   9.857  3.2025 -0.8898  0.5216
   24SAPC  C213 3177   0.349   5.092   9.821 -0.0787 -0.5404 -0.0879
   24SAPC  H13R 3178   0.452   5.124   9.797 -0.6300  1.1639 -0.3075
   24SAPC  H13S 3179   0.306   5.166   9.892  2.3669  0.8398  0.0684
   24SAPC  C214 3180   0.236   5.085   9.711 -0.3987  0.0992  0.2573
   24SAPC  H14R 3181   0.135   5.070   9.752 -0.8900 -1.0931 -1.2594
   24SAPC  C215 3182   0.262   5.087   9.581  0.0123 -0.0764  0.8980
   24SAPC  H15R 3183   0.179   5.064   9.512 -0.2885  0.0377  1.2189
   24SAPC  C216 3184   0.397   5.094   9.503 -0.3157  0.0268 -0.5119
   24SAPC  H16R 3185   0.478   5.051   9.566 -1.3396 -1.9015 -0.4196
   24SAPC  H16S 3186   0.414   5.201   9.479 -0.1461  0.7511  2.4354
   24SAPC  C217 3187   0.389   5.016   9.369 -0.1832 -0.1944  0.9661
   24SAPC  H17R 3188   0.344   4.917   9.391  0.0276 -0.9954 -1.9040
   24SAPC  H17S 3189   0.494   5.001   9.336 -0.7333 -2.4126  0.0350
   24SAPC  C218 3190   0.314   5.089   9.254  0.1252  0.1802  0.0468
   24SAPC  H18R 3191   0.382   5.158   9.200 -0.9068  1.2068  0.0229
   24SAPC  H18S 3192   0.242   5.163   9.294 -0.5579  0.1454 -1.0734
   24SAPC  C219 3193   0.238   4.995   9.159  0.0910  0.0400 -0.4937
   24SAPC  H19R 3194   0.168   4.939   9.225  0.7817 -0.9748 -0.5904
   24SAPC  H19S 3195   0.315   4.929   9.114  0.0706  0.1003 -0.6151
   24SAPC  C220 3196   0.165   5.057   9.038 -0.0073  0.1965  0.5810
   24SAPC  H20R 3197   0.083   5.119   9.080  0.4871  0.4451  1.1812
   24SAPC  H20S 3198   0.128   4.982   8.964  1.6238 -0.4154  0.3380
   24SAPC  H20T 3199   0.233   5.126   8.985  3.2523 -2.2103  1.3025
   24SAPC   C33 3200  -0.099   5.202  10.053 -0.1112  0.7526 -0.2989
   24SAPC   H3X 3201  -0.016   5.146  10.003 -0.6827 -1.2907  0.9035
   24SAPC   H3Y 3202  -0.088   5.308  10.022 -0.2148  0.9544  0.3326
   24SAPC   C34 3203  -0.228   5.153  10.004 -0.4493  1.0343  0.4092
   24SAPC   H4X 3204  -0.318   5.188  10.060 -0.9514  0.7373 -0.1957
   24SAPC   H4Y 3205  -0.233   5.042  10.015 -2.9151  1.0036 -0.3738
   24SAPC   C35 3206  -0.261   5.179   9.857  0.8194 -0.3763 -1.3433
   24SAPC   H5X 3207  -0.185   5.138   9.787  2.4011  2.0822 -1.1741
   24SAPC   H5Y 3208  -0.254   5.289   9.845  2.2983 -0.1441  1.0590
   24SAPC   C36 3209  -0.400   5.121   9.825  0.5556 -0.2746  0.2686
   24SAPC   H6X 3210  -0.477   5.194   9.859  1.5933  0.8538  0.2640
   24SAPC   H6Y 3211  -0.407   5.034   9.894  0.1793  2.5858  4.1747
   24SAPC   C37 3212  -0.420   5.086   9.679  0.3323 -1.1925 -0.6620
   24SAPC   H7X 3213  -0.526   5.055   9.669  0.0191 -0.3596 -0.0825
   24SAPC   H7Y 3214  -0.350   5.009   9.641 -0.9541 -1.9580 -1.5419
   24SAPC   C38 3215  -0.400   5.217   9.597  0.0259  0.6577  0.1365
   24SAPC   H8X 3216  -0.297   5.253   9.617 -0.2865  1.8811 -0.3806
   24SAPC   H8Y 3217  -0.474   5.296   9.621 -1.5636 -0.6616 -0.2941
   24SAPC   C39 3218  -0.399   5.197   9.443  0.2833  0.2639  0.4435
   24SAPC   H9X 3219  -0.505   5.179   9.414 -0.3615  1.4474  1.9342
   24SAPC   H9Y 3220  -0.338   5.110   9.409 -1.2383 -0.0378 -1.7137
   24SAPC  C310 3221  -0.351   5.313   9.359 -0.3016  0.5363  0.4316
   24SAPC  H10X 3222  -0.240   5.312   9.356 -0.2935  0.7143  0.7087
   24SAPC  H10Y 3223  -0.382   5.411   9.400  1.3149  0.9055  0.8195
   24SAPC  C311 3224  -0.402   5.303   9.215 -0.1140 -0.1250 -0.1243
   24SAPC  H11X 3225  -0.408   5.409   9.181 -1.7369 -0.0655  0.2615
   24SAPC  H11Y 3226  -0.508   5.269   9.212 -0.7418  1.5327  1.4291
   24SAPC  C312 3227  -0.323   5.230   9.110 -0.0359  0.2134 -0.7459
   24SAPC  H12X 3228  -0.279   5.143   9.164 -0.6978  1.4899  2.0281
   24SAPC  H12Y 3229  -0.239   5.300   9.092  0.1471  1.0358  2.5037
   24SAPC  C313 3230  -0.405   5.195   8.988  0.1737 -0.4518 -0.3806
   24SAPC  H13X 3231  -0.422   5.281   8.920 -0.6133  0.4534  0.8999
   24SAPC  H13Y 3232  -0.507   5.161   9.017 -0.4632  1.6599  0.0622
   24SAPC  C314 3233  -0.348   5.071   8.921  0.7618  0.5294 -0.0140
   24SAPC  H14X 3234  -0.362   4.993   8.999 -0.5918  0.0016 -0.7635
   24SAPC  H14Y 3235  -0.237   5.080   8.912  0.6439 -0.1232 -3.3634
   24SAPC  C315 3236  -0.411   5.025   8.795  0.6281 -0.3343 -0.5449
   24SAPC  H15X 3237  -0.428   5.111   8.726  2.2465  0.7853  0.3756
   24SAPC  H15Y 3238  -0.508   4.982   8.828  0.3175  0.4109 -0.4644
   24SAPC  C316 3239  -0.339   4.911   8.730 -0.4085 -0.6937  0.6478
   24SAPC  H16X 3240  -0.284   4.844   8.799 -0.4674 -3.7588 -2.0027
   24SAPC  H16Y 3241  -0.269   4.958   8.658 -0.6702  0.0075  0.8486
   24SAPC  C317 3242  -0.448   4.825   8.651 -0.2106 -0.5902 -0.0853
   24SAPC  H17X 3243  -0.502   4.891   8.580  0.9791 -0.7734 -1.1934
   24SAPC  H17Y 3244  -0.523   4.785   8.723 -0.7928  0.0635 -0.3087
   24SAPC  C318 3245  -0.385   4.710   8.573 -0.3839 -0.2390  0.1200
   24SAPC  H18X 3246  -0.286   4.739   8.531  0.3161 -1.0023  1.1687
   24SAPC  H18Y 3247  -0.452   4.658   8.501  1.6063  0.2227 -2.2204
   24SAPC  H18Z 3248  -0.351   4.629   8.642  3.1116  1.1456  0.2159
   25SAPC     N 3249   6.496   2.145   5.983 -0.6820 -0.7408  0.0297
   25SAPC   C12 3250   6.491   2.001   6.017 -0.7920  0.0247 -0.2201
   25SAPC  H12A 3251   6.582   1.951   5.988 -0.4720  0.6833 -0.3661
   25SAPC  H12B 3252   6.423   1.945   5.955 -1.5687 -1.3712  1.7514
   25SAPC   C13 3253   6.568   2.227   6.086 -0.6492  0.2772 -0.0418
   25SAPC  H13A 3254   6.523   2.201   6.181 -0.6267 -1.4232 -0.4735
   25SAPC  H13B 3255   6.673   2.202   6.087 -0.5718  0.5994  0.5295
   25SAPC  H13C 3256   6.564   2.335   6.085 -2.1292  0.3253  2.5635
   25SAPC   C14 3257   6.553   2.161   5.841 -0.1229 -0.2151  0.4941
   25SAPC  H14A 3258   6.565   2.266   5.818  1.9144 -0.6690 -0.7588
   25SAPC  H14B 3259   6.647   2.109   5.846  0.0548  0.1465  1.1221
   25SAPC  H14C 3260   6.493   2.118   5.762  0.5835  0.3202 -0.3518
   25SAPC   C15 3261   6.358   2.192   5.974  0.0061  0.5170 -0.0406
   25SAPC  H15A 3262   6.354   2.297   5.950 -1.1329  0.0785 -1.9655
   25SAPC  H15B 3263   6.304   2.129   5.905 -1.1050  1.2497  0.1513
   25SAPC  H15C 3264   6.301   2.164   6.061 -0.1276 -0.6477 -0.4904
   25SAPC   C11 3265   6.463   1.949   6.164 -0.3149 -0.7930  0.3307
   25SAPC  H11A 3266   6.448   1.839   6.159  2.0687 -1.2140  1.0361
   25SAPC  H11B 3267   6.364   1.980   6.204 -0.5146 -1.3897  0.3168
   25SAPC     P 3268   6.706   1.921   6.260 -0.3661  0.1662  0.1463
   25SAPC   O13 3269   6.696   1.787   6.192 -0.1587  0.1172 -0.2795
   25SAPC   O14 3270   6.808   2.007   6.204 -0.5747 -0.2629 -0.2174
   25SAPC   O12 3271   6.560   1.991   6.263  0.0281 -0.4539  0.4587
   25SAPC   O11 3272   6.726   1.912   6.418  0.1202 -0.4621  0.0579
   25SAPC    C1 3273   6.725   2.023   6.505  0.2110  0.0880 -0.0630
   25SAPC    HA 3274   6.832   2.034   6.533 -0.2662 -0.3463  2.1106
   25SAPC    HB 3275   6.675   2.111   6.460 -1.0610 -0.6805 -0.2186
   25SAPC    C2 3276   6.645   2.003   6.641  0.4468  0.6054  0.6105
   25SAPC    HS 3277   6.639   2.096   6.701 -1.2615  1.2606 -0.5055
   25SAPC   O21 3278   6.695   1.882   6.708 -0.1972 -0.5877 -0.2891
   25SAPC   C21 3279   6.793   1.914   6.799  0.0549  0.4883 -0.2442
   25SAPC   O22 3280   6.827   2.022   6.831 -0.0730  0.1501 -0.8230
   25SAPC   C22 3281   6.858   1.783   6.850 -0.1457  0.1497 -0.5109
   25SAPC   H2R 3282   6.781   1.705   6.866 -0.6143  0.7295  0.0976
   25SAPC   H2S 3283   6.922   1.763   6.761 -1.4867  0.0477 -1.4750
   25SAPC    C3 3284   6.497   1.992   6.608 -0.1696 -0.6041  0.6070
   25SAPC    HX 3285   6.467   1.930   6.521 -1.4817 -0.9073  1.2560
   25SAPC    HY 3286   6.486   2.094   6.564 -2.6724 -0.8784  0.4590
   25SAPC   O31 3287   6.413   1.978   6.726 -0.5809 -0.3945  0.7951
   25SAPC   C31 3288   6.358   1.856   6.733 -0.1541 -0.9010 -0.6576
   25SAPC   O32 3289   6.376   1.760   6.662 -0.2340 -0.1976  0.1597
   25SAPC   C32 3290   6.262   1.853   6.854  0.8094 -0.2998 -0.0832
   25SAPC   H2X 3291   6.164   1.887   6.816  0.8462  3.4232  2.5737
   25SAPC   H2Y 3292   6.297   1.936   6.920 -1.0250  1.3493 -1.0918
   25SAPC   C23 3293   6.953   1.790   6.975  0.5875  0.7291 -0.7489
   25SAPC   H3R 3294   7.016   1.881   6.976  0.8997  0.5343  1.4438
   25SAPC   H3S 3295   7.009   1.694   6.977 -1.0001 -0.2749  1.8665
   25SAPC   C24 3296   6.883   1.769   7.111 -0.4292 -0.2780 -0.5632
   25SAPC   H4R 3297   6.964   1.752   7.186  0.6451 -0.3599 -1.7072
   25SAPC   H4S 3298   6.821   1.677   7.109 -0.3403 -0.4259  1.2679
   25SAPC   C25 3299   6.804   1.887   7.152 -0.7682 -0.1479 -0.5712
   25SAPC   H5R 3300   6.802   1.979   7.092  0.0628 -0.2527 -0.7635
   25SAPC   C26 3301   6.740   1.890   7.274  0.7517  0.5695 -0.0498
   25SAPC   H6R 3302   6.671   1.973   7.298 -0.5149 -0.3237 -0.4626
   25SAPC   C27 3303   6.735   1.785   7.381  0.3276  0.2876 -0.0418
   25SAPC   H7R 3304   6.734   1.693   7.319  2.0359  0.0940  0.1875
   25SAPC   H7S 3305   6.642   1.774   7.442  0.0717 -0.6961 -0.5871
   25SAPC   C28 3306   6.849   1.786   7.478 -0.6049 -0.2358 -0.0523
   25SAPC   H8R 3307   6.940   1.827   7.433 -0.8172  2.0236  1.4331
   25SAPC   C29 3308   6.858   1.729   7.601  0.1568 -0.9183  0.5055
   25SAPC   H9R 3309   6.958   1.729   7.647  1.0375 -4.1982 -1.1399
   25SAPC  C210 3310   6.741   1.666   7.674 -0.0775  0.0862  0.7331
   25SAPC  H10R 3311   6.725   1.561   7.644 -1.6336 -0.4590  3.1288
   25SAPC  H10S 3312   6.651   1.722   7.640 -0.0176  0.8085  1.7242
   25SAPC  C211 3313   6.751   1.658   7.821 -0.4748  0.2950  0.1880
   25SAPC  H11R 3314   6.839   1.611   7.867 -0.4172 -0.3580 -0.5709
   25SAPC  C212 3315   6.659   1.700   7.907 -0.0228  0.4552  0.6887
   25SAPC  H12R 3316   6.665   1.670   8.013 -0.7863  2.2116  1.2631
   25SAPC  C213 3317   6.524   1.764   7.882  0.5820  0.6485  0.4703
   25SAPC  H13R 3318   6.446   1.689   7.904 -1.7082  3.4069  2.3428
   25SAPC  H13S 3319   6.506   1.789   7.775  1.6301 -0.6173 -0.0324
   25SAPC  C214 3320   6.507   1.882   7.978 -0.3655 -0.3001 -0.2005
   25SAPC  H14R 3321   6.542   1.978   7.939 -1.1166  0.8462  1.8405
   25SAPC  C215 3322   6.459   1.879   8.102  0.3561  0.0473  0.1114
   25SAPC  H15R 3323   6.445   1.974   8.157  0.9490  0.1448  0.1001
   25SAPC  C216 3324   6.400   1.756   8.164 -0.8713  0.2033 -0.1355
   25SAPC  H16R 3325   6.433   1.733   8.267  0.3942  3.1806  0.2184
   25SAPC  H16S 3326   6.433   1.665   8.109  1.5759  0.6115  0.5684
   25SAPC  C217 3327   6.248   1.771   8.151 -0.1821 -0.2255 -0.2423
   25SAPC  H17R 3328   6.213   1.814   8.054 -1.6062 -1.0552 -0.1219
   25SAPC  H17S 3329   6.229   1.858   8.217  1.6617 -0.1819  0.2764
   25SAPC  C218 3330   6.169   1.640   8.178  0.3521 -0.4023  0.0845
   25SAPC  H18R 3331   6.187   1.626   8.287  0.8220  1.6333  0.3088
   25SAPC  H18S 3332   6.224   1.560   8.123  0.0403 -0.9528  0.5579
   25SAPC  C219 3333   6.023   1.642   8.141 -0.5808 -0.3466  0.0886
   25SAPC  H19R 3334   5.984   1.540   8.164 -0.9718 -0.5417 -1.3621
   25SAPC  H19S 3335   5.996   1.657   8.034 -0.4977 -2.0276 -0.2006
   25SAPC  C220 3336   5.948   1.731   8.240 -0.1240 -0.6141 -0.8811
   25SAPC  H20R 3337   5.958   1.840   8.222  0.1619 -0.3640  0.6524
   25SAPC  H20S 3338   5.974   1.714   8.347 -0.6233  1.6498 -0.3348
   25SAPC  H20T 3339   5.840   1.711   8.223 -0.4397  1.7440 -2.0960
   25SAPC   C33 3340   6.277   1.724   6.919 -0.0822  0.1065 -0.3777
   25SAPC   H3X 3341   6.234   1.650   6.848 -4.5376  0.7468  1.3373
   25SAPC   H3Y 3342   6.208   1.713   7.005 -0.9774 -0.2759 -1.1196
   25SAPC   C34 3343   6.421   1.693   6.969 -0.3370  0.6924 -0.0567
   25SAPC   H4X 3344   6.446   1.766   7.048  0.9587  1.2610 -0.9646
   25SAPC   H4Y 3345   6.511   1.695   6.905  1.9197 -4.0735  2.4144
   25SAPC   C35 3346   6.439   1.553   7.029  0.5197  0.1796  0.0376
   25SAPC   H5X 3347   6.434   1.474   6.950 -0.8039  1.8995 -1.6913
   25SAPC   H5Y 3348   6.350   1.528   7.091 -0.3629 -2.6515 -2.1294
   25SAPC   C36 3349   6.565   1.542   7.119  0.3887 -0.2183  0.6544
   25SAPC   H6X 3350   6.565   1.633   7.183  0.6106 -0.7274  1.3748
   25SAPC   H6Y 3351   6.654   1.533   7.053  0.6933 -1.6152  1.2290
   25SAPC   C37 3352   6.549   1.424   7.210 -0.2369  0.0999 -0.7168
   25SAPC   H7X 3353   6.655   1.401   7.237 -0.1470 -0.2594 -1.3438
   25SAPC   H7Y 3354   6.496   1.334   7.172 -0.2870 -0.1182 -0.1468
   25SAPC   C38 3355   6.475   1.470   7.342  0.2272 -0.3241  0.5984
   25SAPC   H8X 3356   6.367   1.484   7.322 -0.2807  1.8728  4.0524
   25SAPC   H8Y 3357   6.526   1.565   7.371 -0.8911  0.6055 -0.3902
   25SAPC   C39 3358   6.481   1.369   7.460 -0.1271  0.0184  0.8254
   25SAPC   H9X 3359   6.590   1.354   7.475  0.1870  0.8470 -0.5099
   25SAPC   H9Y 3360   6.445   1.278   7.407 -0.0445  0.3782  0.1490
   25SAPC  C310 3361   6.416   1.413   7.588 -0.2475  0.3020  0.9061
   25SAPC  H10X 3362   6.312   1.447   7.568 -0.8244 -1.0068  1.6026
   25SAPC  H10Y 3363   6.476   1.496   7.632  1.5941 -0.6277  0.2699
   25SAPC  C311 3364   6.428   1.300   7.698 -0.2355  0.0773  0.9034
   25SAPC  H11X 3365   6.461   1.203   7.655 -0.1367  1.0784 -1.4367
   25SAPC  H11Y 3366   6.330   1.299   7.751 -0.2037 -0.5143  0.9508
   25SAPC  C312 3367   6.525   1.334   7.817 -0.0755 -0.1810 -0.0276
   25SAPC  H12X 3368   6.494   1.429   7.865 -1.3866 -1.3659  1.6201
   25SAPC  H12Y 3369   6.631   1.337   7.784  0.0497  1.6268  0.4155
   25SAPC  C313 3370   6.507   1.213   7.909 -0.1288 -0.1609 -0.3501
   25SAPC  H13X 3371   6.600   1.218   7.970  0.1614 -1.3923 -0.6666
   25SAPC  H13Y 3372   6.521   1.125   7.844  0.9300 -0.1482 -0.1590
   25SAPC  C314 3373   6.376   1.223   7.990 -0.3145  0.3752  0.4285
   25SAPC  H14X 3374   6.293   1.173   7.936  0.0993 -1.5523  1.4750
   25SAPC  H14Y 3375   6.351   1.331   7.997  2.0451  0.9242  1.6134
   25SAPC  C315 3376   6.382   1.149   8.130 -0.2305 -0.0798 -0.2662
   25SAPC  H15X 3377   6.283   1.174   8.173  1.3493  3.0039  1.9783
   25SAPC  H15Y 3378   6.467   1.186   8.191  0.8997 -3.5173  0.4777
   25SAPC  C316 3379   6.383   1.000   8.122 -0.2340  0.3142  0.7726
   25SAPC  H16X 3380   6.377   0.956   8.224 -0.1003 -1.1459  0.1825
   25SAPC  H16Y 3381   6.485   0.972   8.087  0.1485 -1.0863  2.8407
   25SAPC  C317 3382   6.270   0.944   8.030  0.0678  0.5427 -0.6087
   25SAPC  H17X 3383   6.296   0.947   7.923 -2.4964 -0.0127 -1.3328
   25SAPC  H17Y 3384   6.179   1.006   8.046  0.4894  0.6774  1.6221
   25SAPC  C318 3385   6.214   0.797   8.053 -0.3628  0.2557 -0.3494
   25SAPC  H18X 3386   6.129   0.783   7.982  0.8820 -0.8754 -1.6557
   25SAPC  H18Y 3387   6.194   0.797   8.163 -0.3118  0.0331 -0.3410
   25SAPC  H18Z 3388   6.292   0.720   8.038  0.0758  0.4878  0.6292
   26SAPC     N 3389   6.202   5.875   5.835 -0.3645  0.2182  0.1289
   26SAPC   C12 3390   6.262   5.927   5.968  0.0016  0.0822  0.5032
   26SAPC  H12A 3391   6.202   5.906   6.056  1.2691  1.2829  1.7050
   26SAPC  H12B 3392   6.276   6.033   5.958 -1.7220  0.2111 -1.1620
   26SAPC   C13 3393   6.080   5.967   5.801  0.0203  0.2309  0.2995
   26SAPC  H13A 3394   6.031   5.932   5.711 -0.0586  2.2311 -0.4763
   26SAPC  H13B 3395   5.998   5.974   5.872 -1.6712 -2.9233 -1.1264
   26SAPC  H13C 3396   6.107   6.065   5.764  1.9888 -0.8613 -1.3533
   26SAPC   C14 3397   6.300   5.886   5.720 -0.5967 -1.5064  0.2730
   26SAPC  H14A 3398   6.394   5.834   5.727  0.0008 -0.6531 -0.9945
   26SAPC  H14B 3399   6.258   5.850   5.628  0.9537 -2.9637  0.0836
   26SAPC  H14C 3400   6.331   5.988   5.704 -0.2559 -1.7462 -0.6135
   26SAPC   C15 3401   6.158   5.738   5.852 -0.3683 -0.4408 -0.1988
   26SAPC  H15A 3402   6.155   5.677   5.762 -0.6465 -1.8290  0.7150
   26SAPC  H15B 3403   6.226   5.686   5.919  1.3169  0.3271 -1.2312
   26SAPC  H15C 3404   6.061   5.731   5.897 -1.5971  2.0905 -2.1887
   26SAPC   C11 3405   6.400   5.860   6.019  0.0695  0.1654 -0.2497
   26SAPC  H11A 3406   6.426   5.919   6.109  0.2109  1.6636 -1.2438
   26SAPC  H11B 3407   6.477   5.879   5.941 -0.6473  0.1306 -0.9830
   26SAPC     P 3408   6.303   5.666   6.164  0.2065  0.5367  0.0198
   26SAPC   O13 3409   6.241   5.778   6.234 -0.4352 -0.3885  0.3924
   26SAPC   O14 3410   6.205   5.568   6.114  0.0115  0.5800 -0.6877
   26SAPC   O12 3411   6.401   5.723   6.050  0.3224  0.3678  0.0221
   26SAPC   O11 3412   6.394   5.597   6.268  0.1778  0.2680  0.5661
   26SAPC    C1 3413   6.504   5.673   6.326  0.2811 -0.2814  0.2269
   26SAPC    HA 3414   6.598   5.663   6.267 -0.5238  1.4421 -1.4483
   26SAPC    HB 3415   6.470   5.779   6.337 -5.0085 -1.9123  3.0664
   26SAPC    C2 3416   6.526   5.631   6.473  0.3795  0.0783  0.3449
   26SAPC    HS 3417   6.567   5.529   6.463 -0.6814 -0.1080 -4.0520
   26SAPC   O21 3418   6.404   5.626   6.546 -0.2175 -0.2321  0.9850
   26SAPC   C21 3419   6.331   5.515   6.534  0.0206  0.2740  0.1303
   26SAPC   O22 3420   6.377   5.409   6.491  0.0344 -0.0725 -0.3566
   26SAPC   C22 3421   6.184   5.524   6.571  0.8045  0.4385 -0.5175
   26SAPC   H2R 3422   6.148   5.624   6.538 -0.6073  0.9263  2.2370
   26SAPC   H2S 3423   6.129   5.455   6.504  1.5131  1.5842 -2.3560
   26SAPC    C3 3424   6.616   5.732   6.547 -0.0516  0.0047  0.2262
   26SAPC    HX 3425   6.565   5.830   6.538 -0.4955 -0.2208  0.2936
   26SAPC    HY 3426   6.703   5.737   6.478  0.7952  0.3535  1.2887
   26SAPC   O31 3427   6.662   5.696   6.678  0.0739 -0.0330 -0.1865
   26SAPC   C31 3428   6.753   5.770   6.733  0.0502 -0.1412 -0.1182
   26SAPC   O32 3429   6.786   5.881   6.693  0.6874 -0.0343  0.0077
   26SAPC   C32 3430   6.826   5.697   6.845 -0.4591  0.6653  0.7622
   26SAPC   H2X 3431   6.925   5.666   6.805 -1.6996 -2.2368 -0.3948
   26SAPC   H2Y 3432   6.764   5.609   6.875  0.5696 -0.6061 -0.6878
   26SAPC   C23 3433   6.133   5.490   6.714 -0.0297 -0.2009  0.3848
   26SAPC   H3R 3434   6.167   5.387   6.736  3.0065  0.6326  0.1466
   26SAPC   H3S 3435   6.022   5.492   6.718 -0.1171  0.8921 -1.3662
   26SAPC   C24 3436   6.179   5.586   6.830  0.4072  0.0181  0.7439
   26SAPC   H4R 3437   6.138   5.539   6.921 -0.4074 -0.3758  0.1859
   26SAPC   H4S 3438   6.134   5.687   6.814  1.2813  0.5369  1.4812
   26SAPC   C25 3439   6.330   5.606   6.836 -0.5278  0.1204  0.0696
   26SAPC   H5R 3440   6.368   5.688   6.773 -2.6041  1.6040  0.6662
   26SAPC   C26 3441   6.408   5.539   6.926 -0.3762  0.1392  0.4186
   26SAPC   H6R 3442   6.517   5.536   6.910 -0.6158 -2.4832 -1.2925
   26SAPC   C27 3443   6.363   5.441   7.026 -0.5669 -0.0996  0.6830
   26SAPC   H7R 3444   6.441   5.362   7.018 -2.3120 -1.8938  0.5078
   26SAPC   H7S 3445   6.270   5.393   6.988  0.9685 -2.8428  0.0979
   26SAPC   C28 3446   6.366   5.498   7.163 -0.2886  0.5570 -0.2403
   26SAPC   H8R 3447   6.463   5.534   7.202 -0.5907 -2.3623  3.7156
   26SAPC   C29 3448   6.267   5.535   7.243 -0.7900  0.2407  0.7025
   26SAPC   H9R 3449   6.298   5.584   7.337  2.1210  0.2520 -0.1753
   26SAPC  C210 3450   6.118   5.510   7.214 -0.7517 -0.0563 -0.3135
   26SAPC  H10R 3451   6.116   5.407   7.174 -0.3863  0.1350 -0.8421
   26SAPC  H10S 3452   6.080   5.588   7.145 -0.3722  1.6869  1.3402
   26SAPC  C211 3453   6.030   5.535   7.331  0.2880  0.8549 -0.9951
   26SAPC  H11R 3454   6.010   5.642   7.351  0.8609  0.8004 -0.1013
   26SAPC  C212 3455   5.969   5.445   7.410 -0.1200 -0.0767 -0.0234
   26SAPC  H12R 3456   5.902   5.480   7.490  0.2845  0.7691 -0.0511
   26SAPC  C213 3457   5.974   5.293   7.386  0.0564 -0.2053  0.4815
   26SAPC  H13R 3458   5.937   5.239   7.476 -0.4140 -0.2681  0.2560
   26SAPC  H13S 3459   6.081   5.268   7.372 -0.0965  0.3618 -2.1939
   26SAPC  C214 3460   5.899   5.242   7.264 -0.0586 -0.5038 -0.4012
   26SAPC  H14R 3461   5.954   5.253   7.169  0.1287 -0.5174 -0.2953
   26SAPC  C215 3462   5.783   5.178   7.259  0.2698  1.0735 -0.0727
   26SAPC  H15R 3463   5.750   5.143   7.160  3.1940  1.4443 -1.2708
   26SAPC  C216 3464   5.693   5.141   7.375 -0.7299 -0.3557 -0.7699
   26SAPC  H16R 3465   5.743   5.075   7.449 -2.5631  0.5152  1.3709
   26SAPC  H16S 3466   5.602   5.082   7.349  0.9087 -3.3122 -0.1901
   26SAPC  C217 3467   5.635   5.264   7.458  1.1372 -0.3767  0.5302
   26SAPC  H17R 3468   5.564   5.313   7.387  2.4816 -0.0835 -0.6417
   26SAPC  H17S 3469   5.720   5.331   7.483  0.0120  1.6911 -0.8812
   26SAPC  C218 3470   5.542   5.215   7.577  0.2366  0.0786  0.4595
   26SAPC  H18R 3471   5.605   5.145   7.635  1.4542  1.5324  0.9360
   26SAPC  H18S 3472   5.451   5.164   7.538  1.1748 -1.0943 -0.2627
   26SAPC  C219 3473   5.522   5.330   7.673  0.4532 -0.5711 -0.2752
   26SAPC  H19R 3474   5.457   5.413   7.640 -1.0643 -2.1542 -1.4567
   26SAPC  H19S 3475   5.622   5.378   7.685  0.3281  0.4636 -2.6693
   26SAPC  C220 3476   5.469   5.274   7.809  0.2920 -0.8958 -0.0488
   26SAPC  H20R 3477   5.364   5.245   7.787  0.0550  0.4134 -0.7268
   26SAPC  H20S 3478   5.460   5.355   7.884 -0.0709  0.3355 -1.3746
   26SAPC  H20T 3479   5.530   5.192   7.853  2.6351 -0.5571 -2.3763
   26SAPC   C33 3480   6.840   5.783   6.974 -0.8740  0.3901 -0.1434
   26SAPC   H3X 3481   6.740   5.830   6.987 -1.4258 -0.7165 -0.1676
   26SAPC   H3Y 3482   6.922   5.857   6.970 -2.2292  1.9189 -0.7515
   26SAPC   C34 3483   6.861   5.702   7.103 -0.1327  0.6936 -0.0385
   26SAPC   H4X 3484   6.954   5.644   7.083 -0.4384  0.0014  0.4833
   26SAPC   H4Y 3485   6.776   5.634   7.123 -0.4129  1.1818  0.4489
   26SAPC   C35 3486   6.893   5.794   7.223 -0.1478 -0.4409  0.4139
   26SAPC   H5X 3487   6.946   5.883   7.182  2.8518 -2.2132  0.1116
   26SAPC   H5Y 3488   6.946   5.733   7.299  1.8483 -0.9849 -1.3128
   26SAPC   C36 3489   6.759   5.838   7.287  0.2014 -0.2009 -0.5080
   26SAPC   H6X 3490   6.689   5.754   7.310 -0.1526  0.4592  0.9679
   26SAPC   H6Y 3491   6.706   5.905   7.216  0.8651  0.7375 -0.1426
   26SAPC   C37 3492   6.779   5.911   7.427 -0.4046  0.1743  0.7073
   26SAPC   H7X 3493   6.854   5.992   7.412 -0.7573  0.1624 -1.4731
   26SAPC   H7Y 3494   6.838   5.841   7.489 -0.7531 -0.1699  0.6507
   26SAPC   C38 3495   6.647   5.931   7.502  0.0816  0.2135 -0.0382
   26SAPC   H8X 3496   6.598   5.833   7.518 -0.7552  0.7043  0.4913
   26SAPC   H8Y 3497   6.578   5.985   7.434 -2.1844 -0.2049  1.8100
   26SAPC   C39 3498   6.669   6.008   7.630 -0.2885 -0.2730  0.9486
   26SAPC   H9X 3499   6.572   6.055   7.658 -0.9350 -0.0355 -1.4823
   26SAPC   H9Y 3500   6.739   6.093   7.610  3.2937 -3.1388  0.2086
   26SAPC  C310 3501   6.727   5.930   7.748 -0.2404 -0.3502 -0.1460
   26SAPC  H10X 3502   6.802   5.853   7.720 -0.8116 -1.5967  1.5217
   26SAPC  H10Y 3503   6.643   5.880   7.801 -1.1613 -0.9447 -2.0847
   26SAPC  C311 3504   6.789   6.027   7.845 -0.3691 -0.6676 -0.6709
   26SAPC  H11X 3505   6.719   6.112   7.857 -2.8832 -2.8132  1.3901
   26SAPC  H11Y 3506   6.882   6.068   7.801 -1.3706  0.0299 -2.2114
   26SAPC  C312 3507   6.826   5.962   7.981  0.2113 -0.0480 -0.9194
   26SAPC  H12X 3508   6.927   5.993   8.014 -0.6565 -0.1902  2.2148
   26SAPC  H12Y 3509   6.817   5.852   7.973 -0.7209 -0.1766  1.2130
   26SAPC  C313 3510   6.730   5.998   8.099  0.4794 -0.2996  0.2564
   26SAPC  H13X 3511   6.633   6.035   8.059  1.2698  3.0352  1.0959
   26SAPC  H13Y 3512   6.763   6.088   8.156  0.0168 -0.0996  0.2128
   26SAPC  C314 3513   6.703   5.884   8.197  0.2596  0.0064  1.1725
   26SAPC  H14X 3514   6.803   5.858   8.238  0.4813  0.6688  1.0661
   26SAPC  H14Y 3515   6.666   5.798   8.138  1.3724  0.6200 -0.5215
   26SAPC  C315 3516   6.600   5.926   8.296  0.4798  0.3693 -0.3295
   26SAPC  H15X 3517   6.519   5.979   8.240 -3.0006  0.5266  4.2381
   26SAPC  H15Y 3518   6.641   6.001   8.367 -1.4968  0.5066  0.7431
   26SAPC  C316 3519   6.536   5.802   8.374 -0.9661 -0.4571  0.5029
   26SAPC  H16X 3520   6.615   5.749   8.430 -0.0064  0.3741 -0.0347
   26SAPC  H16Y 3521   6.499   5.730   8.298 -1.6293 -0.4339  0.7915
   26SAPC  C317 3522   6.414   5.835   8.459 -0.0764 -1.1823 -0.0815
   26SAPC  H17X 3523   6.347   5.878   8.382 -0.3634 -0.4043  0.5967
   26SAPC  H17Y 3524   6.441   5.912   8.534  0.9176 -2.2773  0.7308
   26SAPC  C318 3525   6.344   5.724   8.532  0.5419  0.8262 -0.6720
   26SAPC  H18X 3526   6.303   5.645   8.465 -0.3399  1.2216 -0.6051
   26SAPC  H18Y 3527   6.270   5.770   8.601  0.4733  0.5598 -0.5655
   26SAPC  H18Z 3528   6.418   5.669   8.595 -0.0995 -1.4260 -1.7794
   27SAPC     N 3529   4.925   3.216   6.675  0.9073  0.2518 -0.4020
   27SAPC   C12 3530   5.021   3.111   6.630  0.0118 -0.3858 -0.9997
   27SAPC  H12A 3531   5.120   3.148   6.652 -0.3022  0.0147 -0.2337
   27SAPC  H12B 3532   5.024   3.108   6.522  0.7867 -1.2307 -0.9692
   27SAPC   C13 3533   4.950   3.245   6.817 -1.0119 -0.4180  0.1118
   27SAPC  H13A 3534   4.939   3.155   6.874  0.2997  0.8497  2.5054
   27SAPC  H13B 3535   5.051   3.279   6.838 -0.6058 -1.4065 -0.2000
   27SAPC  H13C 3536   4.881   3.312   6.866 -1.8405 -1.4609  0.3923
   27SAPC   C14 3537   4.934   3.342   6.589 -0.3910 -0.1909 -0.3120
   27SAPC  H14A 3538   4.875   3.314   6.503  2.2516 -2.5420 -1.5338
   27SAPC  H14B 3539   4.881   3.421   6.641 -0.2343  0.2758 -0.8505
   27SAPC  H14C 3540   5.038   3.366   6.568 -0.1459 -1.1268 -0.1896
   27SAPC   C15 3541   4.790   3.168   6.678 -0.3102 -0.2768  0.4682
   27SAPC  H15A 3542   4.788   3.070   6.724  1.5146 -0.4675  0.2490
   27SAPC  H15B 3543   4.719   3.240   6.714 -1.5568 -0.5308 -1.3596
   27SAPC  H15C 3544   4.762   3.149   6.575 -0.0920 -3.4516  0.8869
   27SAPC   C11 3545   5.020   2.969   6.692 -0.2288  0.0821 -0.1560
   27SAPC  H11A 3546   4.932   2.909   6.664  1.8642 -3.9343  1.0608
   27SAPC  H11B 3547   5.011   2.991   6.801 -1.3903 -1.2007  0.0253
   27SAPC     P 3548   5.268   2.911   6.755 -0.2807 -0.3376 -0.1603
   27SAPC   O13 3549   5.367   2.818   6.695 -0.0825 -0.2201 -0.5297
   27SAPC   O14 3550   5.303   3.052   6.775 -0.3241 -0.5966  0.2326
   27SAPC   O12 3551   5.141   2.908   6.654  0.3020 -0.3610  0.0485
   27SAPC   O11 3552   5.213   2.853   6.878 -0.2108  0.0570  0.3426
   27SAPC    C1 3553   5.210   2.713   6.903  0.3875 -0.2309 -1.5017
   27SAPC    HA 3554   5.144   2.663   6.828  0.1376  0.5667 -1.8273
   27SAPC    HB 3555   5.317   2.683   6.897  0.1305 -1.1532 -1.6449
   27SAPC    C2 3556   5.150   2.692   7.048 -0.2700  0.0933  0.0602
   27SAPC    HS 3557   5.048   2.735   7.044 -0.5119 -0.3057  1.3779
   27SAPC   O21 3558   5.239   2.751   7.143  0.3745 -0.5716  0.4867
   27SAPC   C21 3559   5.209   2.875   7.180 -0.1818 -0.9272 -0.1083
   27SAPC   O22 3560   5.107   2.940   7.146  0.3550 -0.2922 -0.0461
   27SAPC   C22 3561   5.304   2.935   7.288 -0.3919 -0.1338 -0.1777
   27SAPC   H2R 3562   5.407   2.929   7.248  0.2244  2.0358  0.9622
   27SAPC   H2S 3563   5.276   3.039   7.313 -2.1867 -0.0674 -2.1328
   27SAPC    C3 3564   5.134   2.538   7.073  0.4189 -0.1613  0.1829
   27SAPC    HX 3565   5.225   2.487   7.035  0.5547 -0.3098  0.7084
   27SAPC    HY 3566   5.055   2.507   7.002  2.0190 -0.7667 -1.4242
   27SAPC   O31 3567   5.117   2.503   7.207 -0.4746 -0.3201 -0.3856
   27SAPC   C31 3568   5.009   2.551   7.274 -0.8637  0.9336  0.2264
   27SAPC   O32 3569   4.914   2.612   7.231 -0.4337  0.2550  0.3902
   27SAPC   C32 3570   5.013   2.490   7.414 -0.0142  0.0768  0.0164
   27SAPC   H2X 3571   5.108   2.432   7.415 -0.6500 -1.0720 -1.4194
   27SAPC   H2Y 3572   4.936   2.410   7.420  1.4116 -1.4425 -1.0349
   27SAPC   C23 3573   5.304   2.845   7.412  0.6215  0.1517 -0.4009
   27SAPC   H3R 3574   5.340   2.741   7.395  2.0363  0.8127 -1.7749
   27SAPC   H3S 3575   5.200   2.840   7.448  1.4012  0.2596  2.0446
   27SAPC   C24 3576   5.367   2.897   7.543 -0.3429  0.1112 -0.4430
   27SAPC   H4R 3577   5.340   2.830   7.627 -1.4009  1.9088  0.6993
   27SAPC   H4S 3578   5.317   2.992   7.572 -0.7489  0.0258 -0.8355
   27SAPC   C25 3579   5.519   2.909   7.537  0.0108  0.2640 -0.3178
   27SAPC   H5R 3580   5.568   2.973   7.462 -0.4787 -0.1495 -1.0030
   27SAPC   C26 3581   5.604   2.857   7.631 -0.6630 -0.1307 -0.2180
   27SAPC   H6R 3582   5.710   2.868   7.604 -0.8583 -0.5239 -1.1799
   27SAPC   C27 3583   5.567   2.781   7.752  0.5368 -0.8408  0.5034
   27SAPC   H7R 3584   5.471   2.814   7.796 -0.2160 -0.1705 -1.5198
   27SAPC   H7S 3585   5.636   2.811   7.833  0.8929 -1.4239  0.4217
   27SAPC   C28 3586   5.558   2.626   7.732 -0.3881 -0.6670  0.8709
   27SAPC   H8R 3587   5.523   2.576   7.641 -0.6568  0.1786  0.4952
   27SAPC   C29 3588   5.586   2.550   7.839 -0.0602  0.4806  0.1474
   27SAPC   H9R 3589   5.586   2.440   7.835  1.3573  0.3080  2.6633
   27SAPC  C210 3590   5.636   2.594   7.974  0.8870  0.3764 -0.4135
   27SAPC  H10R 3591   5.544   2.631   8.026  0.4632 -1.8515  0.5103
   27SAPC  H10S 3592   5.704   2.680   7.955  1.9191 -0.1102  0.9454
   27SAPC  C211 3593   5.710   2.483   8.052  0.6768 -0.4508 -0.6005
   27SAPC  H11R 3594   5.782   2.421   7.997  0.8188 -2.8513  2.1070
   27SAPC  C212 3595   5.695   2.456   8.184  0.6271 -0.2676 -0.0240
   27SAPC  H12R 3596   5.735   2.359   8.215  0.2147 -0.3485  0.2528
   27SAPC  C213 3597   5.603   2.521   8.281  0.3341  0.1804 -0.8664
   27SAPC  H13R 3598   5.503   2.534   8.233 -0.8275 -2.2668  0.6788
   27SAPC  H13S 3599   5.647   2.617   8.315  0.2311 -0.9848  3.0143
   27SAPC  C214 3600   5.567   2.436   8.398  0.2926 -0.1870  1.1375
   27SAPC  H14R 3601   5.594   2.329   8.400  0.9713 -0.0277  0.7340
   27SAPC  C215 3602   5.495   2.482   8.497  0.1875  0.5683  0.2271
   27SAPC  H15R 3603   5.482   2.410   8.579 -1.2804 -0.1603 -0.6233
   27SAPC  C216 3604   5.436   2.619   8.526  0.2109  0.5195 -0.1276
   27SAPC  H16R 3605   5.415   2.676   8.433 -0.1195 -0.4093 -0.6403
   27SAPC  H16S 3606   5.521   2.671   8.574 -0.1452  0.1343  0.9492
   27SAPC  C217 3607   5.307   2.627   8.605 -0.8420 -0.5340  0.1358
   27SAPC  H17R 3608   5.311   2.554   8.688 -0.3539 -0.7638 -0.0861
   27SAPC  H17S 3609   5.229   2.597   8.533  0.4130  0.3815 -1.6868
   27SAPC  C218 3610   5.291   2.776   8.654  0.2328 -0.2054 -0.1057
   27SAPC  H18R 3611   5.186   2.791   8.686 -0.0082 -2.7842  0.5181
   27SAPC  H18S 3612   5.313   2.854   8.577 -0.9107  1.7657  1.4588
   27SAPC  C219 3613   5.377   2.799   8.783 -0.9107 -0.2049 -0.5898
   27SAPC  H19R 3614   5.485   2.818   8.766 -0.1854  0.1502  3.4341
   27SAPC  H19S 3615   5.372   2.706   8.843  1.1821  0.3692  0.5774
   27SAPC  C220 3616   5.317   2.920   8.858 -0.6830  0.9630  0.1126
   27SAPC  H20R 3617   5.325   3.010   8.794 -0.5842 -0.1603 -1.5043
   27SAPC  H20S 3618   5.365   2.936   8.957 -0.2943  0.5942 -0.0088
   27SAPC  H20T 3619   5.211   2.889   8.870 -0.2814 -0.5992 -0.0421
   27SAPC   C33 3620   5.003   2.589   7.532  0.1612  0.2242  0.8499
   27SAPC   H3X 3621   4.924   2.666   7.522  0.0923 -0.1528 -2.6576
   27SAPC   H3Y 3622   5.095   2.652   7.536  0.6206 -0.3200 -0.7061
   27SAPC   C34 3623   4.989   2.516   7.663 -0.1679 -0.6544 -0.0577
   27SAPC   H4X 3624   5.074   2.445   7.669  0.8590  0.6698  1.9857
   27SAPC   H4Y 3625   4.891   2.464   7.676  0.4911 -1.2211  3.6408
   27SAPC   C35 3626   5.007   2.611   7.786  0.0496 -0.8387 -0.5403
   27SAPC   H5X 3627   5.006   2.553   7.881  0.9231  0.5812  0.3791
   27SAPC   H5Y 3628   4.930   2.690   7.778  1.4970  0.9930  2.0180
   27SAPC   C36 3629   5.131   2.701   7.784  0.0763 -0.2596  0.8562
   27SAPC   H6X 3630   5.128   2.770   7.697 -0.5304 -1.2833  0.0557
   27SAPC   H6Y 3631   5.224   2.642   7.769 -0.9857 -2.3377  2.0729
   27SAPC   C37 3632   5.139   2.783   7.914  0.0250  0.0754 -0.4090
   27SAPC   H7X 3633   5.231   2.844   7.919 -1.1670  1.8779  0.4620
   27SAPC   H7Y 3634   5.136   2.727   8.010 -0.8742  2.6771  1.1982
   27SAPC   C38 3635   5.029   2.890   7.929  0.6558 -0.6398 -0.1271
   27SAPC   H8X 3636   4.938   2.832   7.955 -0.9630  1.9090  0.1939
   27SAPC   H8Y 3637   5.003   2.942   7.835  0.5059  0.8947  0.7323
   27SAPC   C39 3638   5.055   2.999   8.032 -0.2200 -0.0929 -0.2975
   27SAPC   H9X 3639   5.159   3.037   8.019  0.4923 -1.1731  1.7329
   27SAPC   H9Y 3640   5.057   2.964   8.138  2.3681 -2.4153 -1.0063
   27SAPC  C310 3641   4.965   3.127   8.025 -0.2978  0.1962 -0.5876
   27SAPC  H10X 3642   4.858   3.101   8.037 -0.5750  0.1530 -2.7309
   27SAPC  H10Y 3643   4.975   3.171   7.924 -2.3095  0.4132 -0.7307
   27SAPC  C311 3644   5.009   3.233   8.128  0.1355 -0.0612 -0.2533
   27SAPC  H11X 3645   4.977   3.325   8.077  3.0266  0.4020 -1.4291
   27SAPC  H11Y 3646   5.120   3.234   8.132  0.1768 -2.3687  0.6113
   27SAPC  C312 3647   4.953   3.237   8.273  0.1232 -0.1601 -0.2353
   27SAPC  H12X 3648   5.014   3.171   8.338  0.4525 -2.9283 -3.1314
   27SAPC  H12Y 3649   4.846   3.212   8.286  0.1673 -0.1840  0.1106
   27SAPC  C313 3650   4.969   3.380   8.335  0.1450 -0.2775 -0.2925
   27SAPC  H13X 3651   4.934   3.452   8.258 -1.7685 -1.8219 -0.9314
   27SAPC  H13Y 3652   5.076   3.405   8.349 -0.6136  2.7776  1.0831
   27SAPC  C314 3653   4.896   3.382   8.467 -0.1454 -0.6938  0.1723
   27SAPC  H14X 3654   4.956   3.321   8.538 -2.2040 -4.2180 -0.8641
   27SAPC  H14Y 3655   4.790   3.351   8.468 -0.5460  0.3940 -1.9940
   27SAPC  C315 3656   4.895   3.519   8.540 -0.6738  0.3111  0.1868
   27SAPC  H15X 3657   4.852   3.604   8.482  1.1540  1.4548  0.4083
   27SAPC  H15Y 3658   4.999   3.554   8.557 -0.5692  0.4252 -0.6443
   27SAPC  C316 3659   4.819   3.510   8.681 -0.5445 -0.2044 -0.0529
   27SAPC  H16X 3660   4.861   3.416   8.722  0.9541  1.3909  2.3483
   27SAPC  H16Y 3661   4.713   3.483   8.658  0.5368 -3.3503 -2.0794
   27SAPC  C317 3662   4.842   3.620   8.771  0.2279  0.2977 -0.4654
   27SAPC  H17X 3663   4.948   3.630   8.805  0.4948 -3.9654  0.5930
   27SAPC  H17Y 3664   4.805   3.594   8.872 -2.6546  0.5541 -1.3720
   27SAPC  C318 3665   4.795   3.750   8.724 -0.0428  0.3350  0.0760
   27SAPC  H18X 3666   4.867   3.833   8.742 -1.6954  2.5151 -2.5647
   27SAPC  H18Y 3667   4.702   3.785   8.774 -0.4729  0.8344 -1.0270
   27SAPC  H18Z 3668   4.770   3.727   8.618 -1.7051 -4.7680  1.3004
   28SAPC     N 3669   3.504   6.538   6.206  0.0089  0.3714  0.3115
   28SAPC   C12 3670   3.509   6.516   6.356 -0.0621 -0.2271 -0.1029
   28SAPC  H12A 3671   3.590   6.456   6.394  0.3122  0.3648  0.0352
   28SAPC  H12B 3672   3.425   6.452   6.379  0.2835 -1.5894 -2.3462
   28SAPC   C13 3673   3.507   6.407   6.134  0.2962  0.2019 -0.4356
   28SAPC  H13A 3674   3.501   6.416   6.026 -1.8021  0.7176 -0.3142
   28SAPC  H13B 3675   3.596   6.349   6.153  1.4416  1.1713 -2.4123
   28SAPC  H13C 3676   3.422   6.345   6.158 -0.0556  1.8596  3.3785
   28SAPC   C14 3677   3.381   6.621   6.171 -0.5212 -0.1075  0.4189
   28SAPC  H14A 3678   3.290   6.570   6.200 -0.5616  0.9143  2.2611
   28SAPC  H14B 3679   3.395   6.716   6.220 -1.7616  1.6219 -2.3506
   28SAPC  H14C 3680   3.385   6.644   6.066 -0.7196 -0.2128  0.3873
   28SAPC   C15 3681   3.616   6.623   6.160 -0.1337  0.4414  0.0765
   28SAPC  H15A 3682   3.609   6.710   6.224 -0.2821 -0.0555  0.7466
   28SAPC  H15B 3683   3.709   6.575   6.186 -0.4412  0.9773  2.3712
   28SAPC  H15C 3684   3.601   6.651   6.056 -0.6182  0.7936  0.2361
   28SAPC   C11 3685   3.499   6.636   6.459 -0.1253 -0.0009 -0.1299
   28SAPC  H11A 3686   3.504   6.595   6.563 -0.6493  3.0031  1.1904
   28SAPC  H11B 3687   3.397   6.675   6.438  0.2490  0.6319 -0.8074
   28SAPC     P 3688   3.582   6.885   6.434  0.1076  0.3523 -0.4940
   28SAPC   O13 3689   3.653   6.933   6.317  0.2274 -0.6137 -0.5433
   28SAPC   O14 3690   3.442   6.928   6.433  0.3718 -0.2589 -0.3279
   28SAPC   O12 3691   3.602   6.730   6.439  0.0586  0.2870 -0.2281
   28SAPC   O11 3692   3.654   6.937   6.564  0.0893 -0.2198  0.6406
   28SAPC    C1 3693   3.631   6.866   6.692 -0.0841  0.0672 -0.7847
   28SAPC    HA 3694   3.619   6.756   6.690  2.0914 -0.2907  1.3274
   28SAPC    HB 3695   3.716   6.887   6.760  1.1572  1.1812 -2.6165
   28SAPC    C2 3696   3.501   6.938   6.758 -0.7037  0.2000  0.6074
   28SAPC    HS 3697   3.418   6.907   6.692  1.0902 -0.5185 -1.4500
   28SAPC   O21 3698   3.521   7.081   6.781  0.2452 -0.3304  0.1821
   28SAPC   C21 3699   3.407   7.142   6.802 -0.5484 -0.1554 -0.8614
   28SAPC   O22 3700   3.299   7.088   6.793  0.1250  0.0894 -0.1374
   28SAPC   C22 3701   3.427   7.291   6.815 -0.2411  0.5087  0.3310
   28SAPC   H2R 3702   3.492   7.329   6.733 -0.8088 -1.2376 -0.9890
   28SAPC   H2S 3703   3.326   7.329   6.788 -0.4328  0.8989  1.5170
   28SAPC    C3 3704   3.475   6.859   6.893  0.4353  0.0654  0.4230
   28SAPC    HX 3705   3.448   6.756   6.860 -0.1208 -0.0745  1.2970
   28SAPC    HY 3706   3.388   6.902   6.947 -0.9896 -2.2125  0.0879
   28SAPC   O31 3707   3.599   6.845   6.967  0.2611  0.1729  0.6084
   28SAPC   C31 3708   3.614   6.936   7.066 -0.2847  0.1668  0.6777
   28SAPC   O32 3709   3.539   7.027   7.091  0.1937  0.0702 -0.3035
   28SAPC   C32 3710   3.736   6.900   7.149  0.7039 -0.0943 -0.7365
   28SAPC   H2X 3711   3.821   6.935   7.086 -0.5187 -1.0083 -3.0182
   28SAPC   H2Y 3712   3.747   6.791   7.169  2.1913  0.3129  0.9235
   28SAPC   C23 3713   3.462   7.327   6.956 -0.2288 -0.5822 -0.4528
   28SAPC   H3R 3714   3.567   7.296   6.973 -0.2599 -0.3617  0.1820
   28SAPC   H3S 3715   3.402   7.265   7.026 -1.3235  1.1369  0.2208
   28SAPC   C24 3716   3.426   7.474   6.997 -0.0316  0.3076  0.0977
   28SAPC   H4R 3717   3.468   7.537   6.916  0.2225  0.6059  0.4580
   28SAPC   H4S 3718   3.316   7.489   6.990  0.1043  0.9836 -0.8766
   28SAPC   C25 3719   3.474   7.489   7.143 -0.1297  0.0594  0.0444
   28SAPC   H5R 3720   3.412   7.458   7.228  3.0222 -0.9715  2.1517
   28SAPC   C26 3721   3.594   7.528   7.183  0.3846  0.6262 -0.5838
   28SAPC   H6R 3722   3.606   7.534   7.292 -1.0853  2.9680 -0.4759
   28SAPC   C27 3723   3.712   7.571   7.097  0.2145 -0.1609  0.6155
   28SAPC   H7R 3724   3.700   7.564   6.987  3.0195 -0.8811  0.2911
   28SAPC   H7S 3725   3.793   7.499   7.119  1.2001  0.9151  0.5963
   28SAPC   C28 3726   3.747   7.713   7.132 -0.1144  1.3060 -0.8304
   28SAPC   H8R 3727   3.678   7.787   7.089  0.4025  1.3432 -1.6198
   28SAPC   C29 3728   3.858   7.759   7.195  0.6214 -0.2154 -0.3454
   28SAPC   H9R 3729   3.869   7.868   7.199 -0.4599 -0.1221  1.2391
   28SAPC  C210 3730   3.974   7.669   7.232 -0.5335 -1.0239 -0.0267
   28SAPC  H10R 3731   3.969   7.579   7.167  0.6357 -1.7371  0.8377
   28SAPC  H10S 3732   3.949   7.631   7.333 -0.5788 -1.4204 -0.1858
   28SAPC  C211 3733   4.113   7.722   7.220 -0.0999  0.9173 -0.0090
   28SAPC  H11R 3734   4.177   7.689   7.136 -0.3915 -2.5424  0.9570
   28SAPC  C212 3735   4.153   7.826   7.298 -0.6466 -0.2532 -0.0962
   28SAPC  H12R 3736   4.248   7.874   7.272 -1.1574  0.6017 -0.4540
   28SAPC  C213 3737   4.070   7.896   7.401 -0.1320 -0.1108  0.2170
   28SAPC  H13R 3738   3.995   7.830   7.449 -1.7714  0.7008 -1.1318
   28SAPC  H13S 3739   4.006   7.974   7.355 -0.3988  0.7036  1.9132
   28SAPC  C214 3740   4.155   7.960   7.513  0.0704  0.2253  0.6209
   28SAPC  H14R 3741   4.253   7.999   7.483  0.2315 -0.4883  0.1990
   28SAPC  C215 3742   4.118   7.976   7.645 -0.2998 -0.4049  0.2409
   28SAPC  H15R 3743   4.182   8.029   7.716  0.8603  0.3439 -1.3103
   28SAPC  C216 3744   3.997   7.918   7.706 -0.4944 -0.3251 -0.0790
   28SAPC  H16R 3745   3.914   7.899   7.636 -0.3186  1.1742 -0.7360
   28SAPC  H16S 3746   3.968   7.973   7.799  1.2410  0.0462  0.2797
   28SAPC  C217 3747   4.042   7.783   7.765  0.9344 -0.4505 -0.7805
   28SAPC  H17R 3748   4.100   7.732   7.684  0.7281 -1.1041 -0.5208
   28SAPC  H17S 3749   3.954   7.719   7.783 -0.1370  2.1606  5.6868
   28SAPC  C218 3750   4.107   7.790   7.913  0.6827  0.1031  0.9508
   28SAPC  H18R 3751   4.211   7.829   7.898  0.3627  0.7004  0.2215
   28SAPC  H18S 3752   4.123   7.685   7.947  1.3264 -0.6802 -1.5419
   28SAPC  C219 3753   4.015   7.857   8.015  0.6569  0.2420  0.0021
   28SAPC  H19R 3754   4.007   7.803   8.112  0.5836  1.8986  0.9780
   28SAPC  H19S 3755   3.909   7.866   7.984  0.6155  0.3626  0.1725
   28SAPC  C220 3756   4.062   7.998   8.049  0.0079 -0.3573 -0.1182
   28SAPC  H20R 3757   4.076   8.051   7.952  0.2190 -0.3173 -0.0670
   28SAPC  H20S 3758   4.151   7.984   8.114  0.8055  1.2318 -0.8106
   28SAPC  H20T 3759   3.982   8.040   8.113  1.7246  1.2363  1.0883
   28SAPC   C33 3760   3.750   6.977   7.283  0.1584  0.1052  0.2312
   28SAPC   H3X 3761   3.728   7.084   7.264  2.0552  0.5618  0.4153
   28SAPC   H3Y 3762   3.853   6.962   7.322 -0.4726  0.9650  2.3560
   28SAPC   C34 3763   3.651   6.926   7.380 -0.1304  0.1089 -0.3504
   28SAPC   H4X 3764   3.637   6.816   7.384  0.6792  0.0058 -0.1001
   28SAPC   H4Y 3765   3.549   6.959   7.351 -1.5864 -0.4620  3.5459
   28SAPC   C35 3766   3.676   6.970   7.524 -0.3272 -0.1156  0.6689
   28SAPC   H5X 3767   3.714   7.074   7.536 -0.3832 -0.1485  1.1483
   28SAPC   H5Y 3768   3.769   6.915   7.551  0.7120  0.5490 -1.4072
   28SAPC   C36 3769   3.570   6.939   7.624  0.0169 -0.3731 -0.9724
   28SAPC   H6X 3770   3.540   6.833   7.611 -1.0639 -0.0907 -0.9164
   28SAPC   H6Y 3771   3.482   7.004   7.605 -0.4621 -0.8168 -0.3267
   28SAPC   C37 3772   3.616   6.947   7.778 -0.2997  0.4209  0.1308
   28SAPC   H7X 3773   3.694   7.027   7.785 -1.3895  1.4451  1.1733
   28SAPC   H7Y 3774   3.651   6.851   7.821  0.9572  1.2507  1.0408
   28SAPC   C38 3775   3.501   7.008   7.851  0.2710  0.0594  0.1162
   28SAPC   H8X 3776   3.408   6.954   7.824 -1.2724  0.2614  4.3301
   28SAPC   H8Y 3777   3.486   7.114   7.820  2.7203  0.2979 -0.5083
   28SAPC   C39 3778   3.514   7.021   8.002 -0.6651  0.3605  0.3122
   28SAPC   H9X 3779   3.418   7.061   8.041 -1.5954  0.3164 -1.8203
   28SAPC   H9Y 3780   3.597   7.086   8.039  0.3320 -0.7095  0.0483
   28SAPC  C310 3781   3.530   6.884   8.072 -0.6150 -0.3383  0.8134
   28SAPC  H10X 3782   3.607   6.821   8.024 -0.5518  0.2430  0.1473
   28SAPC  H10Y 3783   3.442   6.821   8.046 -1.4569  2.0940 -3.0389
   28SAPC  C311 3784   3.549   6.889   8.220  0.9083  0.1880 -0.0134
   28SAPC  H11X 3785   3.624   6.968   8.243  0.2936  0.3904  1.4013
   28SAPC  H11Y 3786   3.576   6.787   8.254 -2.7702 -0.9679 -0.0248
   28SAPC  C312 3787   3.428   6.941   8.302 -0.4019 -0.7242 -0.6948
   28SAPC  H12X 3788   3.349   6.865   8.289 -0.2291 -0.9526 -0.4292
   28SAPC  H12Y 3789   3.395   7.044   8.277  0.6516 -0.1096  0.3382
   28SAPC  C313 3790   3.449   6.939   8.457  0.2340 -0.3415  0.6555
   28SAPC  H13X 3791   3.348   6.951   8.500  0.7872  2.0079  1.4343
   28SAPC  H13Y 3792   3.506   7.031   8.477 -1.5339  0.9171  0.1566
   28SAPC  C314 3793   3.523   6.818   8.529 -0.1960 -0.2257  0.4295
   28SAPC  H14X 3794   3.632   6.822   8.505  0.2881 -1.6850  2.1519
   28SAPC  H14Y 3795   3.473   6.731   8.482  0.6575 -0.7788  0.5106
   28SAPC  C315 3796   3.507   6.796   8.676  0.6263  0.4035 -0.3333
   28SAPC  H15X 3797   3.417   6.738   8.704  0.1118 -0.0763 -2.6993
   28SAPC  H15Y 3798   3.496   6.895   8.725  1.6111  0.7048 -0.6898
   28SAPC  C316 3799   3.632   6.733   8.740 -0.7035  0.0500  0.0279
   28SAPC  H16X 3800   3.715   6.804   8.758  0.6972 -1.1703 -1.3263
   28SAPC  H16Y 3801   3.659   6.643   8.680 -1.8749 -1.0974  1.1305
   28SAPC  C317 3802   3.613   6.678   8.889  0.7293 -0.2070 -0.3763
   28SAPC  H17X 3803   3.523   6.613   8.899 -0.1764  1.3052  2.3452
   28SAPC  H17Y 3804   3.590   6.769   8.948  0.2372 -0.2415 -0.5148
   28SAPC  C318 3805   3.729   6.605   8.959  0.5519 -0.1541  0.2900
   28SAPC  H18X 3806   3.751   6.519   8.893 -0.7551  0.7022 -1.3231
   28SAPC  H18Y 3807   3.709   6.572   9.063  1.0047  1.2312  0.8410
   28SAPC  H18Z 3808   3.812   6.678   8.975 -0.5381  0.7392  2.2850
   29SAPC     N 3809   6.334   4.313   6.029 -0.1199  0.2927 -0.1613
   29SAPC   C12 3810   6.215   4.380   6.105  0.3138  0.1290  1.7025
   29SAPC  H12A 3811   6.133   4.311   6.089  1.9868 -1.9454  1.6837
   29SAPC  H12B 3812   6.200   4.471   6.049 -0.4457  0.4659  2.4156
   29SAPC   C13 3813   6.356   4.183   6.096 -0.2656  0.3405  0.0572
   29SAPC  H13A 3814   6.367   4.175   6.203 -0.1224 -1.4295 -0.0690
   29SAPC  H13B 3815   6.271   4.121   6.072 -0.2372  0.2633  0.1602
   29SAPC  H13C 3816   6.448   4.139   6.059  0.3934  3.0071 -1.8727
   29SAPC   C14 3817   6.286   4.295   5.884 -1.1360 -0.3903  0.4230
   29SAPC  H14A 3818   6.365   4.234   5.842 -0.4938  0.5639  0.2039
   29SAPC  H14B 3819   6.202   4.230   5.864 -0.9007 -1.2753  2.1715
   29SAPC  H14C 3820   6.279   4.390   5.832 -1.4699 -0.5744  0.1297
   29SAPC   C15 3821   6.453   4.404   6.041  0.0143  0.2151  0.1685
   29SAPC  H15A 3822   6.540   4.367   5.990  1.0194  1.0625  1.2176
   29SAPC  H15B 3823   6.424   4.499   5.997 -1.7332 -0.7941 -0.9583
   29SAPC  H15C 3824   6.490   4.418   6.141  2.5043 -3.9108  0.0309
   29SAPC   C11 3825   6.240   4.404   6.259  0.4035 -0.1443  0.3816
   29SAPC  H11A 3826   6.273   4.308   6.302 -1.9025 -1.0341  0.2837
   29SAPC  H11B 3827   6.141   4.422   6.305  0.5099  3.3567 -0.4455
   29SAPC     P 3828   6.353   4.545   6.436  0.1955  0.2106  0.2038
   29SAPC   O13 3829   6.480   4.623   6.434  0.2760  0.3638  0.6114
   29SAPC   O14 3830   6.230   4.622   6.477 -0.5298 -0.2967  0.1258
   29SAPC   O12 3831   6.332   4.502   6.287 -0.0214 -0.6870  0.1157
   29SAPC   O11 3832   6.364   4.409   6.517 -0.5771  0.1864  0.2333
   29SAPC    C1 3833   6.266   4.378   6.616  0.0844  0.3594 -0.3364
   29SAPC    HA 3834   6.161   4.393   6.583 -0.4344  1.0976  1.5468
   29SAPC    HB 3835   6.272   4.270   6.640 -1.0867  0.2959 -0.2604
   29SAPC    C2 3836   6.308   4.446   6.745 -0.9006 -0.4671 -0.2488
   29SAPC    HS 3837   6.304   4.555   6.726 -0.3532  0.0773  2.3290
   29SAPC   O21 3838   6.438   4.393   6.779 -0.3096  0.0666 -0.2555
   29SAPC   C21 3839   6.510   4.480   6.847 -0.7353  0.1917 -0.1766
   29SAPC   O22 3840   6.468   4.588   6.892 -0.4888  0.2009 -0.2525
   29SAPC   C22 3841   6.654   4.423   6.840 -0.0985 -0.5538 -0.1904
   29SAPC   H2R 3842   6.643   4.313   6.827 -1.6060 -0.7087  1.9505
   29SAPC   H2S 3843   6.710   4.467   6.755  1.5013  0.1322  1.1723
   29SAPC    C3 3844   6.209   4.412   6.857 -0.0552 -0.1254 -0.0234
   29SAPC    HX 3845   6.193   4.302   6.854 -0.8562 -0.0096 -0.2797
   29SAPC    HY 3846   6.113   4.460   6.828 -0.5677 -0.4983  1.0051
   29SAPC   O31 3847   6.243   4.454   6.992 -0.5143 -0.0143 -0.3679
   29SAPC   C31 3848   6.160   4.417   7.084  0.3852 -0.2558 -0.0256
   29SAPC   O32 3849   6.061   4.348   7.073 -0.0084  0.5068 -0.5393
   29SAPC   C32 3850   6.208   4.478   7.214 -0.2713  0.4458 -0.1486
   29SAPC   H2X 3851   6.114   4.503   7.267 -0.6172 -1.7364  0.3381
   29SAPC   H2Y 3852   6.253   4.577   7.191 -4.1395  2.3627 -0.2766
   29SAPC   C23 3853   6.742   4.438   6.968  0.0241 -0.0040  0.4525
   29SAPC   H3R 3854   6.772   4.541   6.995  2.9896 -0.6871  0.1474
   29SAPC   H3S 3855   6.836   4.390   6.932  1.0002  1.5688  0.7909
   29SAPC   C24 3856   6.687   4.357   7.085  0.3097  0.3550 -0.5237
   29SAPC   H4R 3857   6.775   4.305   7.126 -0.4774 -0.1170  0.6162
   29SAPC   H4S 3858   6.608   4.291   7.042  1.0217  0.2260 -1.6601
   29SAPC   C25 3859   6.630   4.446   7.193 -0.2186 -0.6066  0.2143
   29SAPC   H5R 3860   6.556   4.520   7.161  1.7602  0.8939 -1.1430
   29SAPC   C26 3861   6.680   4.474   7.311  0.1741  0.3361 -0.8277
   29SAPC   H6R 3862   6.622   4.543   7.374 -4.8762 -4.3868  0.4375
   29SAPC   C27 3863   6.798   4.407   7.373  0.3360 -0.6482  0.2127
   29SAPC   H7R 3864   6.883   4.393   7.302  0.6715  1.5986  0.0823
   29SAPC   H7S 3865   6.763   4.308   7.408 -2.5748  0.6252  1.2520
   29SAPC   C28 3866   6.850   4.490   7.490  0.1786 -0.0362 -0.0323
   29SAPC   H8R 3867   6.910   4.575   7.456  0.0190 -0.1328 -0.5618
   29SAPC   C29 3868   6.816   4.490   7.623  0.1456  0.1379  0.5319
   29SAPC   H9R 3869   6.859   4.553   7.703  0.0397 -0.2482  0.8933
   29SAPC  C210 3870   6.715   4.393   7.677 -0.3326  0.2376  0.8395
   29SAPC  H10R 3871   6.746   4.346   7.773 -0.9215 -3.0138 -0.4403
   29SAPC  H10S 3872   6.695   4.307   7.610  1.9151  0.7329 -0.5825
   29SAPC  C211 3873   6.584   4.456   7.708  0.0316 -1.5873  0.5580
   29SAPC  H11R 3874   6.509   4.447   7.628 -0.0192  0.7048  0.2866
   29SAPC  C212 3875   6.542   4.509   7.822  0.4226 -0.1415  0.5449
   29SAPC  H12R 3876   6.441   4.551   7.825  0.1483 -0.8126  1.5313
   29SAPC  C213 3877   6.611   4.521   7.955  0.0733 -0.5824  0.0988
   29SAPC  H13R 3878   6.595   4.626   7.986 -2.1692  0.0970 -2.8771
   29SAPC  H13S 3879   6.720   4.506   7.943  0.0138 -1.1907  0.2851
   29SAPC  C214 3880   6.579   4.417   8.059  0.1979  0.5475  0.0014
   29SAPC  H14R 3881   6.576   4.312   8.027 -0.9570  0.3769  0.6079
   29SAPC  C215 3882   6.557   4.439   8.190  0.6555 -0.1452 -0.4634
   29SAPC  H15R 3883   6.539   4.352   8.255  1.8904 -0.5681 -0.6600
   29SAPC  C216 3884   6.563   4.573   8.263 -0.2848  0.3451  0.3067
   29SAPC  H16R 3885   6.471   4.579   8.326  0.0340 -0.3969  0.8706
   29SAPC  H16S 3886   6.567   4.654   8.187 -1.9252 -0.9350 -1.2339
   29SAPC  C217 3887   6.683   4.583   8.359  0.0413  0.0939  0.1896
   29SAPC  H17R 3888   6.690   4.682   8.411  0.0483 -0.3547  1.0719
   29SAPC  H17S 3889   6.776   4.574   8.299  1.8987 -0.3170  2.9384
   29SAPC  C218 3890   6.696   4.483   8.467 -0.0331 -0.4083  0.4468
   29SAPC  H18R 3891   6.669   4.382   8.431  0.0586  0.2737 -1.6889
   29SAPC  H18S 3892   6.625   4.507   8.549 -0.0574  2.8912 -0.3792
   29SAPC  C219 3893   6.838   4.478   8.521 -0.3604 -0.1293  0.1142
   29SAPC  H19R 3894   6.877   4.566   8.576 -0.0281  0.6506 -1.3123
   29SAPC  H19S 3895   6.899   4.460   8.430  0.2192  2.3709 -0.0608
   29SAPC  C220 3896   6.867   4.351   8.603  0.1182 -0.4700 -0.1298
   29SAPC  H20R 3897   6.794   4.357   8.687  0.1377  1.2368 -0.1976
   29SAPC  H20S 3898   6.967   4.348   8.650  0.5716  0.8167 -0.9605
   29SAPC  H20T 3899   6.855   4.257   8.544 -0.3608  0.1099 -0.9845
   29SAPC   C33 3900   6.290   4.376   7.295 -0.6562 -0.1687  0.1520
   29SAPC   H3X 3901   6.394   4.367   7.259 -0.4096  2.1565  0.1237
   29SAPC   H3Y 3902   6.242   4.276   7.300  1.3229 -1.2459 -1.0458
   29SAPC   C34 3903   6.298   4.427   7.443 -0.0437  0.2641  0.7134
   29SAPC   H4X 3904   6.293   4.538   7.439 -1.8072  0.1837 -0.6119
   29SAPC   H4Y 3905   6.397   4.387   7.476  0.7739  2.1994  0.7101
   29SAPC   C35 3906   6.193   4.373   7.538 -0.3435 -0.0785 -0.0666
   29SAPC   H5X 3907   6.186   4.263   7.527  0.8889 -0.7789  4.1832
   29SAPC   H5Y 3908   6.092   4.413   7.514 -0.5230 -1.4462 -1.7392
   29SAPC   C36 3909   6.228   4.390   7.690 -0.0219 -0.4362  0.8389
   29SAPC   H6X 3910   6.240   4.500   7.693  0.7171 -0.3631 -1.7566
   29SAPC   H6Y 3911   6.325   4.336   7.705  0.2869 -0.5157 -1.1692
   29SAPC   C37 3912   6.136   4.340   7.796 -0.7992  0.4610  0.2795
   29SAPC   H7X 3913   6.125   4.231   7.780 -1.7044  0.3018  1.7991
   29SAPC   H7Y 3914   6.042   4.396   7.775 -0.7211 -0.2050 -2.1432
   29SAPC   C38 3915   6.194   4.349   7.940  0.4876  0.3642  0.4708
   29SAPC   H8X 3916   6.303   4.373   7.935  0.7660 -0.4361  2.0032
   29SAPC   H8Y 3917   6.165   4.257   7.994 -0.2401  2.2559  3.5576
   29SAPC   C39 3918   6.111   4.447   8.020 -0.0839 -1.0576 -0.1941
   29SAPC   H9X 3919   6.005   4.416   8.030 -1.0593  2.1909  1.0317
   29SAPC   H9Y 3920   6.109   4.546   7.970 -1.8330 -1.4102 -0.8956
   29SAPC  C310 3921   6.160   4.467   8.159  0.3596  0.5666 -0.7932
   29SAPC  H10X 3922   6.264   4.500   8.181  0.7726 -0.3849 -1.2803
   29SAPC  H10Y 3923   6.145   4.371   8.213 -0.5230  1.6581  1.0238
   29SAPC  C311 3924   6.062   4.563   8.237  0.1429 -0.4250  0.2923
   29SAPC  H11X 3925   5.958   4.528   8.220 -0.4349  1.7754 -1.1726
   29SAPC  H11Y 3926   6.058   4.659   8.182 -2.6723 -1.2508 -1.1587
   29SAPC  C312 3927   6.107   4.576   8.380  0.3556 -0.1147 -0.8792
   29SAPC  H12X 3928   6.189   4.650   8.388 -0.4021  0.5630  1.8561
   29SAPC  H12Y 3929   6.147   4.480   8.419  0.7749  0.1926 -0.5370
   29SAPC  C313 3930   5.993   4.622   8.468 -0.6975 -0.2941  0.1181
   29SAPC  H13X 3931   5.930   4.532   8.481  0.2989 -0.9448  0.5682
   29SAPC  H13Y 3932   5.936   4.704   8.418  2.0086  0.0405 -2.7484
   29SAPC  C314 3933   6.040   4.673   8.605  0.4531 -0.1651 -0.3767
   29SAPC  H14X 3934   5.951   4.727   8.644  0.2621 -2.0318  1.9785
   29SAPC  H14Y 3935   6.109   4.760   8.597  0.8507 -0.3015  1.2445
   29SAPC  C315 3936   6.101   4.577   8.705  0.2868  0.4804  1.3311
   29SAPC  H15X 3937   6.118   4.631   8.800  2.2997  1.2340  0.5832
   29SAPC  H15Y 3938   6.196   4.547   8.656 -0.6734  0.1244 -0.4051
   29SAPC  C316 3939   6.008   4.460   8.721  0.0055  0.2081  0.5849
   29SAPC  H16X 3940   6.011   4.401   8.627 -0.9152 -0.4413  0.9572
   29SAPC  H16Y 3941   5.908   4.503   8.744  1.1807  1.9953  2.7003
   29SAPC  C317 3942   6.058   4.380   8.839 -0.2164 -0.0550 -0.3555
   29SAPC  H17X 3943   6.050   4.435   8.935 -0.5621  2.4680 -1.7338
   29SAPC  H17Y 3944   6.168   4.370   8.824  0.5533 -1.4291  4.4948
   29SAPC  C318 3945   6.000   4.240   8.846  0.1105 -0.1547  0.2812
   29SAPC  H18X 3946   6.027   4.189   8.751  3.2420  1.3633  0.2194
   29SAPC  H18Y 3947   5.889   4.233   8.845  0.0583 -0.7303  2.7738
   29SAPC  H18Z 3948   6.026   4.183   8.938 -0.8123 -0.0851  0.5921
   30SAPC     N 3949   0.333   5.880   6.169  0.5237  0.6033 -0.5656
   30SAPC   C12 3950   0.186   5.864   6.133  0.5639 -0.5393  0.3757
   30SAPC  H12A 3951   0.183   5.841   6.028  0.7067 -0.3334  0.3244
   30SAPC  H12B 3952   0.133   5.958   6.134 -0.5975 -1.1422 -1.3574
   30SAPC   C13 3953   0.346   5.943   6.304 -0.1306  0.5717  0.5989
   30SAPC  H13A 3954   0.311   5.888   6.390  1.0304  1.7256  1.8341
   30SAPC  H13B 3955   0.447   5.969   6.331 -0.2278 -0.4200  2.0430
   30SAPC  H13C 3956   0.284   6.031   6.299 -0.8428  0.0144 -1.1783
   30SAPC   C14 3957   0.390   5.738   6.183 -0.5571  0.4538 -0.8885
   30SAPC  H14A 3958   0.390   5.688   6.088  2.3546  0.0286 -0.7467
   30SAPC  H14B 3959   0.493   5.735   6.215 -1.2102  0.8492  1.4778
   30SAPC  H14C 3960   0.337   5.686   6.262  0.8810  0.5195  0.1653
   30SAPC   C15 3961   0.408   5.952   6.062 -0.2835  0.1743 -0.3043
   30SAPC  H15A 3962   0.351   6.037   6.029  0.3655  1.2874  1.2941
   30SAPC  H15B 3963   0.495   5.990   6.113 -1.9000  2.7710  0.7645
   30SAPC  H15C 3964   0.436   5.887   5.981  0.1859 -1.8433  1.3652
   30SAPC   C11 3965   0.100   5.760   6.210  0.0764  0.3440  0.2152
   30SAPC  H11A 3966  -0.007   5.783   6.195 -0.5599 -0.0522  3.4597
   30SAPC  H11B 3967   0.122   5.765   6.318 -2.5466 -0.4080  0.8493
   30SAPC     P 3968   0.050   5.505   6.210  0.0433  0.4397  0.2204
   30SAPC   O13 3969  -0.079   5.482   6.139  0.2983  0.0287 -1.0349
   30SAPC   O14 3970   0.143   5.397   6.214 -0.2676 -0.2815  0.0606
   30SAPC   O12 3971   0.127   5.636   6.154  0.4256  0.6945  0.4870
   30SAPC   O11 3972   0.014   5.543   6.356  0.0302 -0.1397  1.1758
   30SAPC    C1 3973   0.103   5.544   6.469 -0.4561  0.7934 -0.1155
   30SAPC    HA 3974   0.208   5.570   6.447  0.1356 -1.1106  0.2455
   30SAPC    HB 3975   0.077   5.625   6.541  3.0399 -0.0527  2.3410
   30SAPC    C2 3976   0.103   5.414   6.556 -0.2156  0.2175  0.7607
   30SAPC    HS 3977   0.135   5.326   6.496 -3.1422 -0.3304 -0.1728
   30SAPC   O21 3978  -0.027   5.412   6.621 -0.0689 -0.0865  0.1494
   30SAPC   C21 3979  -0.089   5.289   6.621  0.0238 -0.0377 -0.3343
   30SAPC   O22 3980  -0.051   5.191   6.557  0.2465 -0.2066  0.3588
   30SAPC   C22 3981  -0.217   5.296   6.710 -0.1434 -0.1084 -0.9519
   30SAPC   H2R 3982  -0.238   5.404   6.727 -0.8653 -0.3914  0.0040
   30SAPC   H2S 3983  -0.298   5.261   6.643 -1.4552  2.2560 -0.7105
   30SAPC    C3 3984   0.217   5.437   6.658 -0.3514 -0.2760  0.1963
   30SAPC    HX 3985   0.197   5.526   6.721 -0.1008  1.2191 -1.7716
   30SAPC    HY 3986   0.306   5.470   6.601 -0.6488  0.8556  0.3652
   30SAPC   O31 3987   0.243   5.316   6.729 -0.8816  0.1371  0.2539
   30SAPC   C31 3988   0.362   5.324   6.789  0.4453 -0.2057 -0.2317
   30SAPC   O32 3989   0.436   5.418   6.788  0.4609 -0.1871 -0.1353
   30SAPC   C32 3990   0.394   5.190   6.851 -0.6905  0.0470  0.0446
   30SAPC   H2X 3991   0.464   5.144   6.778 -0.9372  2.6715 -2.0049
   30SAPC   H2Y 3992   0.302   5.129   6.862 -0.8440 -0.1049 -1.7636
   30SAPC   C23 3993  -0.199   5.218   6.847 -0.1397  0.6598 -0.5471
   30SAPC   H3R 3994  -0.157   5.118   6.823  0.0737  0.3050  1.1902
   30SAPC   H3S 3995  -0.300   5.217   6.894  0.7403  0.6910  1.4058
   30SAPC   C24 3996  -0.098   5.298   6.932  0.3621 -0.1824  0.5097
   30SAPC   H4R 3997  -0.145   5.390   6.974 -0.3862  0.1294 -0.9045
   30SAPC   H4S 3998  -0.016   5.335   6.866  0.1411 -0.4890  0.0536
   30SAPC   C25 3999  -0.034   5.207   7.031  0.1307  0.3658 -0.3458
   30SAPC   H5R 4000   0.006   5.120   6.977 -1.9015 -0.2112 -1.0107
   30SAPC   C26 4001  -0.022   5.216   7.160 -0.1797 -0.8830  0.0854
   30SAPC   H6R 4002   0.029   5.141   7.223  0.0572  0.6799  1.8591
   30SAPC   C27 4003  -0.085   5.316   7.255 -0.2318 -0.3345  0.0202
   30SAPC   H7R 4004  -0.149   5.256   7.323 -0.5951 -0.0528 -0.0696
   30SAPC   H7S 4005  -0.156   5.379   7.197  1.4529  0.7116 -0.9741
   30SAPC   C28 4006   0.013   5.410   7.319 -0.0436  0.5373  0.4775
   30SAPC   H8R 4007   0.102   5.430   7.257 -1.3375 -1.3366 -2.1891
   30SAPC   C29 4008   0.002   5.450   7.448 -0.4870  0.6011  1.1056
   30SAPC   H9R 4009   0.069   5.528   7.486  0.7086 -0.2385  0.7550
   30SAPC  C210 4010  -0.114   5.421   7.545  0.3694 -0.2705 -0.1919
   30SAPC  H10R 4011  -0.065   5.379   7.635 -0.2655 -1.3761 -0.3428
   30SAPC  H10S 4012  -0.184   5.338   7.523 -1.7024  0.9255  1.4601
   30SAPC  C211 4013  -0.184   5.552   7.583  0.1206  0.3049 -0.4006
   30SAPC  H11R 4014  -0.125   5.643   7.565  0.9927 -0.1899 -0.1234
   30SAPC  C212 4015  -0.303   5.550   7.643  0.5432  0.2976  0.3411
   30SAPC  H12R 4016  -0.348   5.650   7.655  0.1093  0.5884 -2.8783
   30SAPC  C213 4017  -0.401   5.440   7.678  0.3631  0.3203 -0.2340
   30SAPC  H13R 4018  -0.361   5.385   7.766 -2.8750 -0.6875  0.7299
   30SAPC  H13S 4019  -0.396   5.372   7.590 -2.0703  1.3778 -1.2644
   30SAPC  C214 4020  -0.542   5.493   7.693 -0.0725  0.1775 -0.2221
   30SAPC  H14R 4021  -0.563   5.598   7.668  1.4015  0.5020 -0.1833
   30SAPC  C215 4022  -0.641   5.417   7.738 -0.4858 -0.2734 -0.0234
   30SAPC  H15R 4023  -0.741   5.463   7.739 -0.7353 -0.7612 -1.1912
   30SAPC  C216 4024  -0.619   5.272   7.785 -1.1486  0.6789 -0.4020
   30SAPC  H16R 4025  -0.613   5.256   7.895  1.1178  0.5500 -0.4914
   30SAPC  H16S 4026  -0.525   5.221   7.755 -2.3812 -1.7240 -0.4135
   30SAPC  C217 4027  -0.734   5.175   7.740  0.0492  0.4861 -0.3953
   30SAPC  H17R 4028  -0.716   5.076   7.787 -1.1779  0.3985 -0.0766
   30SAPC  H17S 4029  -0.725   5.166   7.630  2.2877 -2.9959 -0.0868
   30SAPC  C218 4030  -0.869   5.212   7.794  0.4266 -0.1296  0.0255
   30SAPC  H18R 4031  -0.944   5.148   7.743  0.6183  1.9841 -3.2726
   30SAPC  H18S 4032  -0.897   5.316   7.765  1.0360  0.6115  1.9309
   30SAPC  C219 4033  -0.892   5.185   7.942 -0.8074  0.1038  0.8816
   30SAPC  H19R 4034  -0.820   5.237   8.009  1.1178 -3.2425  1.6462
   30SAPC  H19S 4035  -0.862   5.080   7.959  2.6743  0.8222  0.0348
   30SAPC  C220 4036  -1.039   5.195   7.994  0.1959 -0.0730 -0.5779
   30SAPC  H20R 4037  -1.102   5.131   7.928 -0.1167  1.9403 -2.3560
   30SAPC  H20S 4038  -1.083   5.297   7.990  0.7825  0.2790  1.1496
   30SAPC  H20T 4039  -1.050   5.158   8.098 -0.4516 -0.6647 -0.8489
   30SAPC   C33 4040   0.460   5.214   6.993  0.6318  0.1129  0.2239
   30SAPC   H3X 4041   0.533   5.298   6.996  0.5092  0.1990  1.2221
   30SAPC   H3Y 4042   0.504   5.115   7.017 -1.4155 -1.0774 -0.6457
   30SAPC   C34 4043   0.355   5.247   7.099  0.4993  0.2718 -0.4673
   30SAPC   H4X 4044   0.284   5.162   7.104  0.5313  0.3435  2.4526
   30SAPC   H4Y 4045   0.298   5.339   7.073  0.5499  0.8046  1.2212
   30SAPC   C35 4046   0.416   5.253   7.237  0.1348 -0.2159  0.0369
   30SAPC   H5X 4047   0.499   5.325   7.216 -0.0550 -0.1855 -0.6116
   30SAPC   H5Y 4048   0.467   5.156   7.253  1.8517  0.4300 -1.2106
   30SAPC   C36 4049   0.324   5.282   7.350  0.7262 -0.5538 -0.0904
   30SAPC   H6X 4050   0.240   5.209   7.348  0.1580  0.0802 -2.4035
   30SAPC   H6Y 4051   0.274   5.380   7.335 -0.1382 -1.1369 -1.2119
   30SAPC   C37 4052   0.391   5.287   7.487  0.9678  0.1365 -0.2748
   30SAPC   H7X 4053   0.464   5.371   7.482 -1.5965  2.5176  0.1311
   30SAPC   H7Y 4054   0.451   5.194   7.500  3.2292  1.6514  0.6158
   30SAPC   C38 4055   0.294   5.315   7.602  0.6762  0.2283  0.0711
   30SAPC   H8X 4056   0.242   5.218   7.617  1.6684 -0.3301 -0.0076
   30SAPC   H8Y 4057   0.227   5.397   7.570  0.7796  0.7846  1.2465
   30SAPC   C39 4058   0.356   5.372   7.732 -0.6091 -0.2262  0.4282
   30SAPC   H9X 4059   0.434   5.446   7.705 -2.2600  0.8991 -1.5490
   30SAPC   H9Y 4060   0.398   5.286   7.788 -0.6946 -2.1472 -2.2547
   30SAPC  C310 4061   0.253   5.447   7.815  0.5403  0.6471 -0.0542
   30SAPC  H10X 4062   0.171   5.377   7.841  3.2624 -2.3241  1.3375
   30SAPC  H10Y 4063   0.217   5.536   7.759 -1.3304  0.2313  0.4397
   30SAPC  C311 4064   0.318   5.495   7.949 -0.4967  0.2383 -0.1623
   30SAPC  H11X 4065   0.403   5.558   7.914  1.0917 -0.7495  1.6951
   30SAPC  H11Y 4066   0.362   5.419   8.017 -0.6352 -0.0364 -0.3782
   30SAPC  C312 4067   0.236   5.595   8.024  0.1204  0.2291  0.0293
   30SAPC  H12X 4068   0.201   5.669   7.949 -0.9050 -1.6912 -1.4814
   30SAPC  H12Y 4069   0.280   5.651   8.109  1.4769 -1.2528  0.3528
   30SAPC  C313 4070   0.105   5.543   8.085 -0.1585 -0.7489  0.0121
   30SAPC  H13X 4071   0.056   5.484   8.005  0.7265  0.3735 -1.3955
   30SAPC  H13Y 4072   0.041   5.630   8.110  0.1633 -1.0295  1.9738
   30SAPC  C314 4073   0.139   5.454   8.209  0.3155  0.3929 -0.5065
   30SAPC  H14X 4074   0.227   5.393   8.179  0.4677  1.2489 -1.9072
   30SAPC  H14Y 4075   0.050   5.390   8.226 -0.3680  0.9996 -1.6421
   30SAPC  C315 4076   0.161   5.535   8.340 -0.6790  0.5196  0.1174
   30SAPC  H15X 4077   0.059   5.568   8.371 -1.1192 -1.0167  0.3929
   30SAPC  H15Y 4078   0.211   5.627   8.303 -0.5974  0.1179 -0.7950
   30SAPC  C316 4079   0.238   5.468   8.462  0.8763 -0.1247 -0.9361
   30SAPC  H16X 4080   0.201   5.365   8.482  2.1549 -0.8764 -2.2324
   30SAPC  H16Y 4081   0.208   5.520   8.555 -2.0236 -3.3405  0.1402
   30SAPC  C317 4082   0.388   5.451   8.432 -0.0847 -0.1694  0.7902
   30SAPC  H17X 4083   0.446   5.544   8.456 -1.5133  0.6485  1.1714
   30SAPC  H17Y 4084   0.402   5.433   8.323 -1.2299  1.1647  0.4016
   30SAPC  C318 4085   0.455   5.349   8.513  0.9162  0.0621 -0.6477
   30SAPC  H18X 4086   0.393   5.257   8.502  0.6977  0.2497 -0.9862
   30SAPC  H18Y 4087   0.455   5.372   8.622  1.9918 -0.4983 -0.5205
   30SAPC  H18Z 4088   0.547   5.303   8.473  0.0447 -0.9703 -1.5353
   31SAPC     N 4089   0.548   5.247   6.034 -0.7364  0.1112  0.4091
   31SAPC   C12 4090   0.544   5.097   6.006  0.2882  0.3959 -0.0841
   31SAPC  H12A 4091   0.632   5.052   6.051 -0.5712 -0.3023  0.9412
   31SAPC  H12B 4092   0.543   5.081   5.899 -1.5655 -0.4132  0.0146
   31SAPC   C13 4093   0.412   5.300   6.017  0.9421 -0.1738  0.2465
   31SAPC  H13A 4094   0.367   5.264   5.926  1.4467 -0.7434  0.2155
   31SAPC  H13B 4095   0.349   5.258   6.094  1.2274  1.0090  1.1523
   31SAPC  H13C 4096   0.409   5.407   6.028 -0.0926 -0.2340  0.7192
   31SAPC   C14 4097   0.590   5.267   6.179 -0.7521  0.1686 -0.8264
   31SAPC  H14A 4098   0.679   5.210   6.194 -0.1726  1.1689 -0.3680
   31SAPC  H14B 4099   0.596   5.368   6.217  1.0189 -0.5517  0.8997
   31SAPC  H14C 4100   0.518   5.214   6.239 -1.5193  0.3633 -1.5523
   31SAPC   C15 4101   0.650   5.313   5.945 -0.0103 -0.4517 -0.3796
   31SAPC  H15A 4102   0.740   5.259   5.971  0.4251  0.8645  0.9483
   31SAPC  H15B 4103   0.625   5.316   5.839  2.6615 -3.9024 -1.2945
   31SAPC  H15C 4104   0.648   5.418   5.970 -3.3720  0.1714 -2.5972
   31SAPC   C11 4105   0.427   5.016   6.057 -0.4661  0.3847 -0.1910
   31SAPC  H11A 4106   0.454   4.909   6.041  0.0444  0.6069 -0.8898
   31SAPC  H11B 4107   0.346   5.045   5.987 -0.5045 -0.9853 -0.7459
   31SAPC     P 4108   0.275   4.972   6.266 -0.1961  0.4651  0.0705
   31SAPC   O13 4109   0.266   5.035   6.399  0.4195 -0.3327  0.1481
   31SAPC   O14 4110   0.154   4.964   6.182  0.2080 -0.1391  0.0922
   31SAPC   O12 4111   0.390   5.041   6.191  0.2296  0.4497 -0.1146
   31SAPC   O11 4112   0.306   4.818   6.290 -0.5388  0.8111 -0.1431
   31SAPC    C1 4113   0.427   4.755   6.310  0.1487 -0.2857  0.0287
   31SAPC    HA 4114   0.446   4.681   6.229  1.8205  0.8000 -0.6097
   31SAPC    HB 4115   0.508   4.830   6.304  0.1298 -0.2891 -0.2871
   31SAPC    C2 4116   0.426   4.659   6.434  0.2147 -0.1718  0.5929
   31SAPC    HS 4117   0.351   4.586   6.397 -0.5213  1.4192 -1.1937
   31SAPC   O21 4118   0.382   4.732   6.552  0.2297  0.2716  0.7797
   31SAPC   C21 4119   0.314   4.653   6.639  0.1293 -0.3626 -0.6036
   31SAPC   O22 4120   0.275   4.538   6.619  0.1145 -0.1396  0.1157
   31SAPC   C22 4121   0.281   4.731   6.766  0.0144  0.0736 -0.6021
   31SAPC   H2R 4122   0.322   4.834   6.761  0.4946 -0.0210  0.9375
   31SAPC   H2S 4123   0.171   4.744   6.774  0.2704  1.9022  0.8446
   31SAPC    C3 4124   0.573   4.596   6.454  0.3141  0.2952 -0.1068
   31SAPC    HX 4125   0.643   4.682   6.459 -1.2871  1.5851  1.6522
   31SAPC    HY 4126   0.614   4.547   6.363  1.7340 -0.3888  0.8566
   31SAPC   O31 4127   0.570   4.518   6.576  0.2773 -0.1035  0.4293
   31SAPC   C31 4128   0.543   4.395   6.552  0.7837 -0.1271 -0.0714
   31SAPC   O32 4129   0.486   4.354   6.449 -0.4417 -0.1798  0.2285
   31SAPC   C32 4130   0.561   4.313   6.675 -0.5771 -0.3731 -0.0547
   31SAPC   H2X 4131   0.514   4.215   6.653 -2.4276  0.4127  0.2947
   31SAPC   H2Y 4132   0.516   4.371   6.758  0.3080  0.7974 -0.3657
   31SAPC   C23 4133   0.343   4.668   6.893  0.5787  0.0073  0.1415
   31SAPC   H3R 4134   0.451   4.697   6.892  1.1022 -1.7627 -0.7243
   31SAPC   H3S 4135   0.343   4.558   6.881  0.0755  0.0438 -0.2124
   31SAPC   C24 4136   0.263   4.689   7.019 -0.1671 -0.3935 -0.3460
   31SAPC   H4R 4137   0.309   4.624   7.096  1.0224  1.7093  0.8267
   31SAPC   H4S 4138   0.160   4.648   7.013 -0.5097  0.2109  1.0385
   31SAPC   C25 4139   0.261   4.829   7.065  0.3178 -0.1008  0.5254
   31SAPC   H5R 4140   0.297   4.898   6.986  2.1866  0.6961  1.9893
   31SAPC   C26 4141   0.229   4.876   7.190  0.1951 -0.2048 -0.6358
   31SAPC   H6R 4142   0.232   4.984   7.209 -1.1443  0.3158 -2.9750
   31SAPC   C27 4143   0.193   4.796   7.310 -0.3576 -0.0064  0.0288
   31SAPC   H7R 4144   0.269   4.795   7.391  1.8363 -1.0724 -1.9467
   31SAPC   H7S 4145   0.179   4.690   7.279  0.2096  0.2312 -1.0672
   31SAPC   C28 4146   0.057   4.826   7.365 -0.1211  0.1274 -0.0473
   31SAPC   H8R 4147  -0.026   4.777   7.313  1.3195 -1.9212 -0.5526
   31SAPC   C29 4148   0.034   4.898   7.475 -0.4158 -0.7275 -0.7487
   31SAPC   H9R 4149  -0.068   4.893   7.517 -0.4074  0.1973 -0.6154
   31SAPC  C210 4150   0.133   4.973   7.568 -0.1464  0.2875 -0.1274
   31SAPC  H10R 4151   0.080   5.039   7.639  1.0346 -0.7020  1.7573
   31SAPC  H10S 4152   0.187   5.044   7.501  2.0268  1.5598  2.7691
   31SAPC  C211 4153   0.238   4.894   7.644 -0.0924 -0.3510 -0.0090
   31SAPC  H11R 4154   0.325   4.858   7.586  0.2937  0.6127 -0.0410
   31SAPC  C212 4155   0.229   4.864   7.775 -0.0774  0.5662 -0.4123
   31SAPC  H12R 4156   0.308   4.809   7.827 -1.1007 -0.0022  0.5974
   31SAPC  C213 4157   0.114   4.896   7.874 -0.3607  1.0832  0.6166
   31SAPC  H13R 4158   0.125   4.827   7.961  0.3659  2.1068  1.3676
   31SAPC  H13S 4159   0.014   4.868   7.838  0.5076  0.6705 -1.6111
   31SAPC  C214 4160   0.128   5.033   7.924  0.1019 -0.2283  0.2673
   31SAPC  H14R 4161   0.171   5.112   7.860 -2.1353  1.7713  1.0584
   31SAPC  C215 4162   0.073   5.064   8.041  0.8236 -0.3926 -0.6575
   31SAPC  H15R 4163   0.082   5.168   8.079 -1.7404 -0.3132 -0.1276
   31SAPC  C216 4164  -0.013   4.973   8.127  1.0366  1.1877  0.8814
   31SAPC  H16R 4165   0.050   4.896   8.174 -2.0861 -1.8959  0.4038
   31SAPC  H16S 4166  -0.084   4.917   8.062  0.0951  3.5021 -0.2425
   31SAPC  C217 4167  -0.102   5.044   8.233 -0.4081 -0.1652 -0.5120
   31SAPC  H17R 4168  -0.175   4.972   8.276  0.6225 -0.7423  0.3363
   31SAPC  H17S 4169  -0.161   5.117   8.174  0.0360 -0.5054 -1.4060
   31SAPC  C218 4170  -0.033   5.101   8.349  0.0532 -0.0292 -0.8115
   31SAPC  H18R 4171   0.058   5.159   8.320  0.5891 -1.1207 -1.4147
   31SAPC  H18S 4172  -0.012   5.023   8.426 -0.5557  1.0036  0.4409
   31SAPC  C219 4173  -0.126   5.213   8.407  0.4856 -0.5401 -0.1481
   31SAPC  H19R 4174  -0.221   5.172   8.448 -0.2907  1.7614  0.4613
   31SAPC  H19S 4175  -0.168   5.274   8.324  1.1812  0.3117  0.1087
   31SAPC  C220 4176  -0.086   5.303   8.530  0.0999 -0.1659 -0.1521
   31SAPC  H20R 4177  -0.022   5.242   8.597 -1.8135 -0.0084  1.9097
   31SAPC  H20S 4178  -0.177   5.336   8.584  2.2256  1.0024  2.9297
   31SAPC  H20T 4179  -0.025   5.387   8.490 -1.3228  0.5727 -0.8397
   31SAPC   C33 4180   0.708   4.303   6.724  0.4276  0.5166 -0.1165
   31SAPC   H3X 4181   0.751   4.396   6.767  1.1618  0.5261 -0.8585
   31SAPC   H3Y 4182   0.769   4.268   6.638 -0.9238 -0.8483 -0.5562
   31SAPC   C34 4183   0.720   4.193   6.821 -0.0499  0.6915 -0.5030
   31SAPC   H4X 4184   0.827   4.192   6.853  0.0617  1.0029 -0.8648
   31SAPC   H4Y 4185   0.703   4.096   6.770  2.9010 -0.4217  0.3888
   31SAPC   C35 4186   0.624   4.205   6.945 -0.7462 -0.1135  0.1229
   31SAPC   H5X 4187   0.637   4.118   7.013 -2.8704 -0.4349  0.1925
   31SAPC   H5Y 4188   0.519   4.178   6.919 -1.3853 -0.0831  2.4144
   31SAPC   C36 4189   0.627   4.338   7.021 -0.0703 -0.0637  0.5619
   31SAPC   H6X 4190   0.577   4.411   6.955  0.0785 -1.1761 -0.8194
   31SAPC   H6Y 4191   0.726   4.384   7.041 -0.5336  0.5724  1.4701
   31SAPC   C37 4192   0.567   4.332   7.160 -0.5127 -0.0261  0.0151
   31SAPC   H7X 4193   0.614   4.251   7.220 -0.2131 -0.2897 -0.5659
   31SAPC   H7Y 4194   0.460   4.302   7.156 -0.0732 -1.8031  0.6252
   31SAPC   C38 4195   0.577   4.461   7.240 -0.1884 -0.7463  0.6878
   31SAPC   H8X 4196   0.548   4.547   7.175  2.7479  0.1767  0.4546
   31SAPC   H8Y 4197   0.679   4.476   7.279  0.5142  0.1842 -1.3475
   31SAPC   C39 4198   0.484   4.463   7.364 -0.0070 -0.7251  0.0055
   31SAPC   H9X 4199   0.380   4.464   7.324 -0.2664  4.4786  0.0836
   31SAPC   H9Y 4200   0.482   4.566   7.405 -0.3789 -0.6201 -0.2645
   31SAPC  C310 4201   0.518   4.373   7.489  0.2365 -0.1321 -0.0310
   31SAPC  H10X 4202   0.622   4.397   7.521 -0.3309  1.7178  0.5300
   31SAPC  H10Y 4203   0.508   4.265   7.465 -1.8834  0.3263 -1.4434
   31SAPC  C311 4204   0.423   4.403   7.606  0.7374  1.3470  0.0168
   31SAPC  H11X 4205   0.328   4.384   7.553  0.6248  0.3316  0.5686
   31SAPC  H11Y 4206   0.440   4.509   7.634 -0.3939  0.9363  2.5690
   31SAPC  C312 4207   0.440   4.307   7.715  0.8083  0.9288  0.4175
   31SAPC  H12X 4208   0.549   4.311   7.736  1.1482  1.9419 -1.3597
   31SAPC  H12Y 4209   0.414   4.202   7.688 -1.2882  0.9219  2.1764
   31SAPC  C313 4210   0.366   4.336   7.845 -0.3745  0.2488  0.4131
   31SAPC  H13X 4211   0.261   4.300   7.846 -0.6986  1.0626 -0.8722
   31SAPC  H13Y 4212   0.362   4.447   7.856  0.9760  0.2119  1.5091
   31SAPC  C314 4213   0.441   4.291   7.972  0.4498 -1.1251  0.1521
   31SAPC  H14X 4214   0.544   4.332   7.963  0.6013 -1.8494 -2.1799
   31SAPC  H14Y 4215   0.441   4.180   7.978  1.0963 -1.1361  0.0643
   31SAPC  C315 4216   0.363   4.358   8.089 -0.8346 -0.2114  0.2707
   31SAPC  H15X 4217   0.257   4.324   8.091 -0.1364 -2.7414 -0.6720
   31SAPC  H15Y 4218   0.375   4.465   8.065  2.0742 -0.9621 -2.3143
   31SAPC  C316 4219   0.417   4.327   8.222 -0.6779  0.4464  0.3547
   31SAPC  H16X 4220   0.522   4.291   8.230 -0.9989 -0.7969 -0.6742
   31SAPC  H16Y 4221   0.368   4.230   8.246  2.1610 -1.0625  0.4544
   31SAPC  C317 4222   0.416   4.437   8.318  0.5072 -0.0369 -0.3081
   31SAPC  H17X 4223   0.310   4.467   8.332 -0.7195 -2.8264 -2.6183
   31SAPC  H17Y 4224   0.474   4.525   8.281  0.0765 -0.1428 -1.2561
   31SAPC  C318 4225   0.478   4.394   8.453 -0.2519  0.6763  0.0921
   31SAPC  H18X 4226   0.417   4.321   8.509  2.3980 -1.6664  0.1074
   31SAPC  H18Y 4227   0.456   4.481   8.519 -0.0811  1.5003 -0.8983
   31SAPC  H18Z 4228   0.586   4.371   8.443 -0.4411  0.1650 -0.9352
   32SAPC     N 4229   3.120   5.669   5.691 -0.1390 -0.9011  0.0636
   32SAPC   C12 4230   3.142   5.830   5.702 -0.3939 -0.1776  0.6655
   32SAPC  H12A 4231   3.094   5.883   5.621 -0.1857 -0.2316  0.5053
   32SAPC  H12B 4232   3.249   5.839   5.691 -0.3412 -1.2551  0.2358
   32SAPC   C13 4233   3.171   5.617   5.559 -0.2194  0.2743 -0.9846
   32SAPC  H13A 4234   3.114   5.666   5.482  0.5532  0.7493 -1.2740
   32SAPC  H13B 4235   3.279   5.617   5.546  0.0391  1.3863  0.8053
   32SAPC  H13C 4236   3.134   5.516   5.554 -0.1362  0.3026 -3.0262
   32SAPC   C14 4237   3.195   5.596   5.797  0.1644 -0.5708  0.4867
   32SAPC  H14A 4238   3.160   5.623   5.895 -0.6806 -2.3331  0.7126
   32SAPC  H14B 4239   3.183   5.489   5.791 -0.7353 -0.4904  0.7163
   32SAPC  H14C 4240   3.302   5.609   5.797  0.3549 -2.0187  0.2991
   32SAPC   C15 4241   2.973   5.625   5.698 -0.7070 -0.2215  0.9248
   32SAPC  H15A 4242   2.930   5.660   5.791 -1.2200  0.3586  0.4822
   32SAPC  H15B 4243   2.909   5.680   5.631 -0.0627  0.4661  0.8677
   32SAPC  H15C 4244   2.961   5.518   5.685 -0.5122 -0.0982 -0.3961
   32SAPC   C11 4245   3.107   5.901   5.838 -0.6421  0.0871  0.0777
   32SAPC  H11A 4246   3.111   6.008   5.810  0.4600 -0.0834 -0.4879
   32SAPC  H11B 4247   3.184   5.874   5.913 -0.4027  0.9491  0.1501
   32SAPC     P 4248   2.943   5.801   6.010  0.1575 -0.0926  0.1267
   32SAPC   O13 4249   2.815   5.731   5.981  0.2323 -0.7517 -0.2407
   32SAPC   O14 4250   3.054   5.718   6.055 -0.7814 -0.5037  0.0834
   32SAPC   O12 4251   2.975   5.885   5.881  0.5891 -0.4839 -0.1155
   32SAPC   O11 4252   2.914   5.913   6.110 -0.2798  0.0548  0.3524
   32SAPC    C1 4253   2.863   6.039   6.072  0.7009 -0.4980  0.7332
   32SAPC    HA 4254   2.943   6.105   6.031  0.6356 -1.8721 -1.8435
   32SAPC    HB 4255   2.786   6.018   5.995  1.6399  1.0841 -0.7042
   32SAPC    C2 4256   2.790   6.109   6.187 -0.5258 -0.0766 -0.6732
   32SAPC    HS 4257   2.875   6.141   6.250  0.6907 -0.0429 -2.2568
   32SAPC   O21 4258   2.702   6.011   6.245  0.5639  0.1147 -0.0149
   32SAPC   C21 4259   2.723   6.002   6.379  0.9204  0.5081  0.0078
   32SAPC   O22 4260   2.808   6.063   6.442  0.6533  0.0475 -0.6297
   32SAPC   C22 4261   2.617   5.904   6.438 -0.3939  0.1238  0.2420
   32SAPC   H2R 4262   2.512   5.941   6.430 -1.2030 -1.8168  1.2938
   32SAPC   H2S 4263   2.618   5.810   6.379  0.7199 -0.3626  1.0063
   32SAPC    C3 4264   2.709   6.232   6.148 -0.2971 -0.2834  0.5231
   32SAPC    HX 4265   2.630   6.200   6.077  1.4690 -1.5066 -0.9969
   32SAPC    HY 4266   2.780   6.294   6.089 -0.0850 -0.2615  0.7959
   32SAPC   O31 4267   2.647   6.312   6.259  0.2805  0.0531 -0.6128
   32SAPC   C31 4268   2.726   6.374   6.339  0.0203  0.0258  0.2415
   32SAPC   O32 4269   2.845   6.383   6.330 -0.4818 -0.3991  0.2318
   32SAPC   C32 4270   2.640   6.447   6.443 -0.4137  0.3567 -0.6559
   32SAPC   H2X 4271   2.536   6.429   6.409 -0.3223  0.5249 -1.0334
   32SAPC   H2Y 4272   2.674   6.552   6.444  1.5268 -0.1887  1.9930
   32SAPC   C23 4273   2.654   5.893   6.582  0.1508  0.2003  0.3777
   32SAPC   H3R 4274   2.648   5.994   6.627  1.0327  0.0690  0.8225
   32SAPC   H3S 4275   2.750   5.838   6.594 -0.0464 -0.1461  0.3874
   32SAPC   C24 4276   2.543   5.813   6.667 -1.0176  0.3521  0.3398
   32SAPC   H4R 4277   2.451   5.874   6.652  0.1316  2.3230  0.9381
   32SAPC   H4S 4278   2.573   5.817   6.774 -0.4791 -0.9301  0.2536
   32SAPC   C25 4279   2.531   5.674   6.611  0.0032 -1.3623  0.0617
   32SAPC   H5R 4280   2.515   5.681   6.502  2.2488  1.9967 -0.1886
   32SAPC   C26 4281   2.561   5.563   6.681 -0.0160  0.7180 -0.1387
   32SAPC   H6R 4282   2.578   5.468   6.629  0.6022  0.4219  0.5765
   32SAPC   C27 4283   2.595   5.549   6.829  0.3178  0.8837  0.5542
   32SAPC   H7R 4284   2.611   5.649   6.875  2.7305  0.4638  0.7558
   32SAPC   H7S 4285   2.695   5.501   6.841 -0.4287 -0.9024 -0.1662
   32SAPC   C28 4286   2.500   5.462   6.904  0.4220  0.0411  0.1279
   32SAPC   H8R 4287   2.411   5.425   6.850 -0.8234  0.5915  1.6996
   32SAPC   C29 4288   2.478   5.446   7.036 -0.4320 -0.0559  0.4515
   32SAPC   H9R 4289   2.394   5.383   7.068  1.2645 -2.9977 -0.4683
   32SAPC  C210 4290   2.553   5.514   7.147  0.1476  0.8539 -0.2387
   32SAPC  H10R 4291   2.641   5.569   7.107  1.8610 -1.4819  0.1236
   32SAPC  H10S 4292   2.597   5.434   7.211  1.5596  1.6159 -0.2167
   32SAPC  C211 4293   2.476   5.617   7.225 -0.2611  0.1587 -0.5424
   32SAPC  H11R 4294   2.415   5.686   7.166  1.1811  2.9805  1.0688
   32SAPC  C212 4295   2.479   5.634   7.365 -0.9305  0.3239  0.9589
   32SAPC  H12R 4296   2.425   5.720   7.409  1.5026  1.9866  0.8684
   32SAPC  C213 4297   2.553   5.548   7.469  0.2559  0.2423  0.5390
   32SAPC  H13R 4298   2.589   5.611   7.553 -0.8824  0.2846  1.0008
   32SAPC  H13S 4299   2.646   5.501   7.428  0.4306 -0.2538  1.4575
   32SAPC  C214 4300   2.460   5.449   7.524  0.7951  0.5353  0.3834
   32SAPC  H14R 4301   2.388   5.409   7.452  0.9936  2.8526 -1.2298
   32SAPC  C215 4302   2.457   5.398   7.646  0.0526 -0.3333 -0.4650
   32SAPC  H15R 4303   2.396   5.309   7.667  0.5955 -0.3995  0.9608
   32SAPC  C216 4304   2.558   5.426   7.753  0.6871  0.2091  0.1266
   32SAPC  H16R 4305   2.572   5.535   7.768  0.4663  0.3613 -0.7269
   32SAPC  H16S 4306   2.658   5.393   7.719 -0.1315 -0.2816 -1.9993
   32SAPC  C217 4307   2.533   5.364   7.892 -0.3590  0.0654 -0.6423
   32SAPC  H17R 4308   2.465   5.277   7.887 -2.0274  1.2570  0.3578
   32SAPC  H17S 4309   2.472   5.433   7.954 -1.1377  0.0236 -1.3352
   32SAPC  C218 4310   2.660   5.338   7.967 -0.0445  0.4703  0.3432
   32SAPC  H18R 4311   2.721   5.430   7.953 -0.8282  0.6024 -3.5447
   32SAPC  H18S 4312   2.712   5.247   7.929  0.1361  1.1880 -1.2375
   32SAPC  C219 4313   2.638   5.303   8.117 -0.5514 -0.5601  0.2636
   32SAPC  H19R 4314   2.588   5.388   8.168  2.6171  0.9162  1.2070
   32SAPC  H19S 4315   2.733   5.281   8.171 -0.0170  0.5484 -0.1778
   32SAPC  C220 4316   2.552   5.180   8.131  0.6786  0.3125 -0.4007
   32SAPC  H20R 4317   2.532   5.135   8.230  0.7952  2.1376  0.4921
   32SAPC  H20S 4318   2.588   5.095   8.069 -0.4116 -0.3999 -0.0814
   32SAPC  H20T 4319   2.449   5.197   8.093  0.5205 -2.2205 -1.3501
   32SAPC   C33 4320   2.659   6.402   6.585 -0.0894 -0.6498 -0.1239
   32SAPC   H3X 4321   2.627   6.482   6.655 -0.5803 -0.1449 -0.9155
   32SAPC   H3Y 4322   2.762   6.371   6.613  0.1881  1.0792  0.8835
   32SAPC   C34 4323   2.566   6.286   6.619  0.2277 -0.1816 -0.5638
   32SAPC   H4X 4324   2.608   6.199   6.563 -2.5376 -1.1292 -1.3117
   32SAPC   H4Y 4325   2.466   6.308   6.574  0.6973 -0.0096 -1.5661
   32SAPC   C35 4326   2.560   6.244   6.763 -0.2675  0.5755 -0.1816
   32SAPC   H5X 4327   2.662   6.251   6.808 -0.3576 -0.0041  0.1131
   32SAPC   H5Y 4328   2.528   6.138   6.767  0.5257  0.3565  1.2732
   32SAPC   C36 4329   2.472   6.330   6.854  0.4227  0.2384  0.5060
   32SAPC   H6X 4330   2.375   6.348   6.802 -0.4107  1.2955  2.3544
   32SAPC   H6Y 4331   2.530   6.424   6.860  3.4164 -1.2868 -1.5706
   32SAPC   C37 4332   2.454   6.261   6.991  0.2508  0.0518 -0.2906
   32SAPC   H7X 4333   2.548   6.282   7.047 -2.0632  0.3602  3.8757
   32SAPC   H7Y 4334   2.444   6.150   6.982  1.7513 -0.1118 -0.2640
   32SAPC   C38 4335   2.349   6.329   7.073  0.1228  0.4849 -0.3362
   32SAPC   H8X 4336   2.247   6.339   7.029 -0.6316 -1.8368  0.7313
   32SAPC   H8Y 4337   2.380   6.433   7.096  1.0057  0.6083 -1.9192
   32SAPC   C39 4338   2.321   6.259   7.207 -0.1596  0.1750 -0.0716
   32SAPC   H9X 4339   2.290   6.154   7.187  1.8587 -0.5392  0.2924
   32SAPC   H9Y 4340   2.231   6.299   7.258  0.4224 -0.0759  1.2033
   32SAPC  C310 4341   2.433   6.285   7.311  0.0227 -0.3361 -0.6096
   32SAPC  H10X 4342   2.434   6.389   7.350  2.5295  0.8262 -3.3842
   32SAPC  H10Y 4343   2.528   6.283   7.254  0.7476 -2.1241  0.5752
   32SAPC  C311 4344   2.428   6.181   7.422 -0.8283 -0.0661  0.6415
   32SAPC  H11X 4345   2.408   6.082   7.378 -1.3720  0.6694 -0.8347
   32SAPC  H11Y 4346   2.347   6.213   7.492  0.0948  0.7948  1.3544
   32SAPC  C312 4347   2.557   6.178   7.501  0.1590 -0.4938  0.1150
   32SAPC  H12X 4348   2.549   6.133   7.602  0.4418  0.2910  0.4957
   32SAPC  H12Y 4349   2.587   6.285   7.511 -0.4549 -0.1197 -1.6700
   32SAPC  C313 4350   2.665   6.114   7.406  0.3048 -0.4712  0.0179
   32SAPC  H13X 4351   2.759   6.110   7.464 -0.6153 -0.2274  1.5943
   32SAPC  H13Y 4352   2.677   6.177   7.315 -0.2071  1.0653  0.9710
   32SAPC  C314 4353   2.649   5.967   7.365  0.3968  0.2986  0.0388
   32SAPC  H14X 4354   2.592   5.967   7.269  3.0071  1.5109 -1.6108
   32SAPC  H14Y 4355   2.586   5.918   7.443 -0.5607 -1.0328 -1.4950
   32SAPC  C315 4356   2.777   5.886   7.333  0.4801 -0.0393  0.4795
   32SAPC  H15X 4357   2.739   5.787   7.300 -1.1549  1.1751 -1.5345
   32SAPC  H15Y 4358   2.848   5.889   7.418  2.1434  0.0516 -0.8660
   32SAPC  C316 4359   2.853   5.930   7.207  0.1572 -0.5207  0.7415
   32SAPC  H16X 4360   2.905   5.835   7.181 -0.8875 -1.8577  3.1164
   32SAPC  H16Y 4361   2.937   5.999   7.229  0.3674 -0.1311 -1.1305
   32SAPC  C317 4362   2.769   5.975   7.083 -0.3816 -0.0328  0.2370
   32SAPC  H17X 4363   2.729   6.077   7.097  1.1610  0.2737  3.1866
   32SAPC  H17Y 4364   2.682   5.905   7.079 -1.0931  0.8536 -0.2082
   32SAPC  C318 4365   2.845   5.986   6.950 -0.1709  0.1810 -0.0806
   32SAPC  H18X 4366   2.909   6.076   6.943 -0.4241  0.3583 -0.1565
   32SAPC  H18Y 4367   2.767   5.995   6.871 -2.7563  1.3553  2.4250
   32SAPC  H18Z 4368   2.903   5.893   6.930 -0.3604  0.3308 -1.4094
   33POPC     N 4369   2.972   2.429  10.652 -0.1965 -0.2672  0.0322
   33POPC   C12 4370   2.979   2.435  10.503  0.0075  0.7816  0.4995
   33POPC  H12A 4371   2.917   2.518  10.473 -1.4900 -0.6267 -0.4692
   33POPC  H12B 4372   2.935   2.349  10.454  3.8927  0.4603 -3.0344
   33POPC   C13 4373   3.020   2.304  10.708 -0.4764  0.8816 -0.0057
   33POPC  H13A 4374   2.957   2.219  10.684 -1.7474  1.6088  0.6598
   33POPC  H13B 4375   3.122   2.287  10.677 -1.0602  0.1091 -1.6606
   33POPC  H13C 4376   3.022   2.305  10.816  2.9139 -2.4568  0.1714
   33POPC   C14 4377   3.062   2.535  10.700 -0.1468  0.2258 -0.5490
   33POPC  H14A 4378   3.166   2.515  10.679 -0.0751 -1.1909  0.9143
   33POPC  H14B 4379   3.036   2.633  10.664 -3.8718 -0.1924  0.5385
   33POPC  H14C 4380   3.062   2.534  10.808  0.2378  0.7459 -0.5412
   33POPC   C15 4381   2.832   2.456  10.688 -0.0713  0.5577 -0.4465
   33POPC  H15A 4382   2.806   2.470  10.792 -1.8754  2.5266 -1.0815
   33POPC  H15B 4383   2.771   2.379  10.643  0.8853 -0.1427 -0.5525
   33POPC  H15C 4384   2.788   2.545  10.644 -1.8851  0.7349  1.5661
   33POPC   C11 4385   3.118   2.465  10.438 -0.0066 -0.0742 -0.1468
   33POPC  H11A 4386   3.152   2.568  10.460  1.0388 -0.4111 -0.1094
   33POPC  H11B 4387   3.103   2.450  10.329  0.4505  0.8704 -0.3426
   33POPC     P 4388   3.376   2.409  10.483  0.1050  0.3057 -0.2768
   33POPC   O13 4389   3.450   2.280  10.499 -0.4563 -0.3685  0.1756
   33POPC   O14 4390   3.404   2.521  10.578 -0.9407  0.2475  0.5122
   33POPC   O12 4391   3.218   2.384  10.490  0.5627  0.3351 -0.3267
   33POPC   O11 4392   3.392   2.464  10.337  0.4521  0.1009  0.5749
   33POPC    C1 4393   3.360   2.386  10.219 -0.2027 -0.1800 -0.8951
   33POPC    HA 4394   3.454   2.340  10.181 -0.4307 -0.7400 -0.7947
   33POPC    HB 4395   3.279   2.317  10.250  1.4675 -1.1588  1.6857
   33POPC    C2 4396   3.306   2.475  10.095 -0.2676  0.0246 -0.7250
   33POPC    HS 4397   3.390   2.519  10.036  0.2403 -0.0495 -0.0712
   33POPC   O21 4398   3.216   2.579  10.139  0.3627 -0.0262 -0.2735
   33POPC   C21 4399   3.277   2.682  10.189  0.0887 -0.1055  0.1447
   33POPC   O22 4400   3.397   2.706  10.172 -0.4794 -0.3185  1.0527
   33POPC   C22 4401   3.180   2.782  10.252  1.1151 -0.4206  0.4935
   33POPC   H2R 4402   3.243   2.837  10.324 -0.2828  0.6521  0.9332
   33POPC   H2S 4403   3.104   2.737  10.319 -1.3023  3.5811  0.7555
   33POPC    C3 4404   3.228   2.380   9.999  0.3003  0.0288 -0.1879
   33POPC    HX 4405   3.237   2.445   9.909 -1.0773 -0.1966 -0.4987
   33POPC    HY 4406   3.122   2.358  10.021  0.4324  0.2749  0.7280
   33POPC   O31 4407   3.295   2.258   9.988 -0.1622  0.9222  0.6379
   33POPC   C31 4408   3.289   2.205   9.873 -0.6633  0.0298  0.2838
   33POPC   O32 4409   3.238   2.250   9.775 -0.2713 -0.7910  0.3008
   33POPC   C32 4410   3.347   2.066   9.871 -0.1941  0.5225  0.3517
   33POPC   H2X 4411   3.300   1.997   9.945  2.0827  1.9365  3.3740
   33POPC   H2Y 4412   3.454   2.075   9.901  0.0428 -0.5484 -0.1452
   33POPC   C23 4413   3.132   2.893  10.155  0.5648 -0.2052 -0.5823
   33POPC   H3R 4414   3.214   2.921  10.085  0.7946 -0.3058 -0.3506
   33POPC   H3S 4415   3.112   2.990  10.205 -0.0600 -0.2229 -0.7830
   33POPC   C24 4416   3.003   2.842  10.081 -0.1074  0.3155 -0.1159
   33POPC   H4R 4417   2.917   2.833  10.151  0.6269 -1.4175  0.6117
   33POPC   H4S 4418   3.035   2.741  10.048 -1.5120 -1.2077  2.7260
   33POPC   C25 4419   2.957   2.938   9.970 -0.5499 -0.5579  0.1883
   33POPC   H5R 4420   2.901   2.891   9.885  0.5398 -2.0582  0.2692
   33POPC   H5S 4421   3.050   2.976   9.922 -1.7308  2.4592  0.0466
   33POPC   C26 4422   2.883   3.066  10.037 -0.4377  0.9809  0.5721
   33POPC   H6R 4423   2.936   3.102  10.127  0.6829  0.3682  0.1792
   33POPC   H6S 4424   2.781   3.031  10.062  0.0687 -1.0170  0.0436
   33POPC   C27 4425   2.880   3.189   9.950  0.6936 -0.0355  0.2727
   33POPC   H7R 4426   2.820   3.174   9.858  0.1944 -0.7412  0.6982
   33POPC   H7S 4427   2.984   3.206   9.915  1.2066  0.2927  1.8313
   33POPC   C28 4428   2.825   3.316  10.023  0.1368  0.7986 -0.1993
   33POPC   H8R 4429   2.720   3.301  10.055  0.3154 -1.4911 -0.5161
   33POPC   H8S 4430   2.833   3.385   9.936  3.8792 -0.5563 -1.1671
   33POPC   C29 4431   2.915   3.353  10.133 -0.3955 -0.1156 -0.5077
   33POPC   H91 4432   3.023   3.360  10.115 -0.4002  0.8698 -0.2120
   33POPC  C210 4433   2.882   3.390  10.262 -0.0387 -0.3228 -0.6879
   33POPC  H101 4434   2.959   3.395  10.340 -1.1095  0.0530  0.3739
   33POPC  C211 4435   2.736   3.403  10.301 -0.0413  0.4811  0.2330
   33POPC  H11R 4436   2.670   3.447  10.224 -0.2955 -0.1534  0.0824
   33POPC  H11S 4437   2.716   3.479  10.380 -2.0288  0.0281  0.2131
   33POPC  C212 4438   2.668   3.273  10.341 -0.3258  0.1326 -0.3989
   33POPC  H12R 4439   2.716   3.250  10.439  1.4001  3.5426 -0.2806
   33POPC  H12S 4440   2.700   3.198  10.265  2.9206  0.2952  0.6567
   33POPC  C213 4441   2.516   3.282  10.360 -0.4622  0.0244  0.0078
   33POPC  H13R 4442   2.452   3.263  10.271 -2.1146  1.4966  0.8211
   33POPC  H13S 4443   2.506   3.388  10.390 -3.1935  0.2335 -1.3321
   33POPC  C214 4444   2.449   3.198  10.474  0.6221  0.1211 -0.0915
   33POPC  H14R 4445   2.458   3.090  10.449  1.8830 -0.1561  1.4255
   33POPC  H14S 4446   2.342   3.227  10.483  0.6512  1.2627 -2.6093
   33POPC  C215 4447   2.512   3.207  10.619  0.6165 -0.0783  0.4528
   33POPC  H15R 4448   2.607   3.150  10.610  2.1780  2.5263 -0.3877
   33POPC  H15S 4449   2.430   3.158  10.677  0.2696  1.3088  1.1631
   33POPC  C216 4450   2.545   3.350  10.659 -0.2738 -0.3476 -0.4697
   33POPC  H16R 4451   2.451   3.409  10.670  1.1533  1.8151  0.9088
   33POPC  H16S 4452   2.607   3.401  10.583 -0.5435  2.5935  1.1226
   33POPC  C217 4453   2.603   3.359  10.804  0.9653 -0.0822  0.3310
   33POPC  H17R 4454   2.692   3.295  10.824  0.8328  0.0254  1.2714
   33POPC  H17S 4455   2.517   3.316  10.860  0.0488 -0.9001 -1.6003
   33POPC  C218 4456   2.629   3.506  10.851 -0.1224  0.2784  0.2207
   33POPC  H18R 4457   2.543   3.574  10.835  0.1133  0.4856 -0.1858
   33POPC  H18S 4458   2.707   3.550  10.786 -0.7496  4.9563  2.2150
   33POPC  H18T 4459   2.665   3.504  10.957  0.1943 -0.0445  0.1100
   33POPC   C33 4460   3.333   1.993   9.733 -0.7794 -0.0724 -0.2647
   33POPC   H3X 4461   3.377   2.059   9.655  0.7207 -1.4855 -0.6591
   33POPC   H3Y 4462   3.227   1.981   9.700 -0.9914  1.6528 -0.3246
   33POPC   C34 4463   3.396   1.854   9.728 -0.4032 -0.4917 -0.4191
   33POPC   H4X 4464   3.366   1.795   9.817  0.5377 -0.6893 -0.2258
   33POPC   H4Y 4465   3.506   1.859   9.724 -0.4203 -0.8502 -2.3132
   33POPC   C35 4466   3.356   1.760   9.614 -0.6966 -0.8051 -0.7981
   33POPC   H5X 4467   3.248   1.733   9.611 -1.2551  1.3067 -1.7882
   33POPC   H5Y 4468   3.419   1.669   9.613 -1.8340 -1.6271 -2.1870
   33POPC   C36 4469   3.400   1.822   9.478 -0.1444 -0.4737 -0.4521
   33POPC   H6X 4470   3.503   1.860   9.492 -0.0796 -0.5068 -0.8284
   33POPC   H6Y 4471   3.337   1.908   9.444  0.1053  0.3720  1.1512
   33POPC   C37 4472   3.392   1.716   9.367  0.8946  0.2759 -1.1504
   33POPC   H7X 4473   3.285   1.686   9.370  0.6585  1.0029 -1.8852
   33POPC   H7Y 4474   3.438   1.616   9.382 -0.3293 -0.2302 -0.6338
   33POPC   C38 4475   3.430   1.754   9.225  0.1864 -0.4030  0.5702
   33POPC   H8X 4476   3.537   1.775   9.246 -0.1679  1.0222  1.0511
   33POPC   H8Y 4477   3.375   1.847   9.198 -1.4190 -1.6759 -0.7564
   33POPC   C39 4478   3.407   1.642   9.116 -0.5018  0.3499 -0.6261
   33POPC   H9X 4479   3.302   1.606   9.123 -0.6145  0.6757 -0.5997
   33POPC   H9Y 4480   3.464   1.549   9.137  0.1131  0.5419 -1.4229
   33POPC  C310 4481   3.435   1.689   8.971 -0.9522  0.6823 -0.0718
   33POPC  H10X 4482   3.536   1.731   8.952 -0.0077 -1.5932 -0.3165
   33POPC  H10Y 4483   3.374   1.781   8.952  0.0110  1.1534 -1.0021
   33POPC  C311 4484   3.374   1.595   8.871  0.0310  0.7687  1.0830
   33POPC  H11X 4485   3.264   1.601   8.885 -0.1253 -0.0046  0.2910
   33POPC  H11Y 4486   3.397   1.489   8.891 -0.8387  0.3369 -0.1063
   33POPC  C312 4487   3.400   1.633   8.724 -0.5052  0.6586  0.2284
   33POPC  H12X 4488   3.499   1.602   8.685  0.0242  0.4073  1.7367
   33POPC  H12Y 4489   3.390   1.743   8.708 -0.8075  0.6491  0.3454
   33POPC  C313 4490   3.301   1.558   8.637  0.7529  0.2080  0.3515
   33POPC  H13X 4491   3.323   1.577   8.529  0.0728  0.2741  0.2173
   33POPC  H13Y 4492   3.203   1.601   8.669  0.7447 -0.5964  1.4500
   33POPC  C314 4493   3.301   1.406   8.654 -0.4210  0.2640  0.4907
   33POPC  H14X 4494   3.261   1.387   8.756  1.5428 -0.5850  1.1554
   33POPC  H14Y 4495   3.406   1.369   8.649  0.0483  1.6082 -0.0369
   33POPC  C315 4496   3.222   1.327   8.550  0.1830 -0.1585 -0.1322
   33POPC  H15X 4497   3.115   1.355   8.562  0.3992  0.0338  1.7423
   33POPC  H15Y 4498   3.226   1.218   8.569 -1.4048 -0.3303 -0.6009
   33POPC  C316 4499   3.257   1.358   8.403  0.2918  0.4511 -0.0484
   33POPC  H16X 4500   3.212   1.288   8.329  0.8069  0.5629 -0.4722
   33POPC  H16Y 4501   3.366   1.358   8.386  0.2976 -0.2079 -0.0228
   33POPC  H16Z 4502   3.219   1.461   8.389 -0.9133 -0.0408 -0.5717
   34POPC     N 4503   2.523   1.717  10.999 -0.5071 -0.5105  0.4324
   34POPC   C12 4504   2.516   1.758  10.857  0.2546 -0.4207  0.2519
   34POPC  H12A 4505   2.495   1.864  10.858 -1.6168 -0.7307 -0.9763
   34POPC  H12B 4506   2.427   1.724  10.806 -1.0223  2.4519  0.3592
   34POPC   C13 4507   2.569   1.574  11.015  0.8347 -0.2249 -0.8008
   34POPC  H13A 4508   2.482   1.513  10.996  1.1716 -0.5666 -1.2549
   34POPC  H13B 4509   2.640   1.558  10.935  1.6722  0.6568 -0.2605
   34POPC  H13C 4510   2.599   1.561  11.118 -2.6599 -0.5211  0.2964
   34POPC   C14 4511   2.621   1.817  11.062  1.0692 -0.2235  0.0651
   34POPC  H14A 4512   2.626   1.794  11.168  0.9083  0.9202  0.3288
   34POPC  H14B 4513   2.715   1.823  11.010  1.2475  1.4580  0.5121
   34POPC  H14C 4514   2.576   1.914  11.049 -0.3863 -1.0344 -1.2988
   34POPC   C15 4515   2.392   1.746  11.064  0.1817 -0.1158  0.6105
   34POPC  H15A 4516   2.369   1.852  11.064  0.0386 -0.1462  0.7223
   34POPC  H15B 4517   2.388   1.706  11.164 -1.8800 -2.4723 -0.3280
   34POPC  H15C 4518   2.305   1.702  11.017 -0.8677  0.6981  1.7099
   34POPC   C11 4519   2.643   1.732  10.773  0.2049  0.5767 -0.8138
   34POPC  H11A 4520   2.729   1.780  10.824  0.3705 -0.9576  0.4539
   34POPC  H11B 4521   2.634   1.779  10.673  1.4147  1.8142 -0.3696
   34POPC     P 4522   2.611   1.496  10.661  0.4938 -0.1328 -0.0739
   34POPC   O13 4523   2.468   1.478  10.707  0.5066  0.1622  0.3629
   34POPC   O14 4524   2.688   1.370  10.652  0.4573 -0.1613  0.1658
   34POPC   O12 4525   2.681   1.593  10.769 -0.1796 -0.5570  0.4446
   34POPC   O11 4526   2.609   1.580  10.527  0.1345  0.5972 -0.1681
   34POPC    C1 4527   2.714   1.643  10.460 -0.3693  0.3641  0.5052
   34POPC    HA 4528   2.812   1.630  10.511 -0.4577 -1.8091  0.1881
   34POPC    HB 4529   2.704   1.754  10.455  0.5006  0.3890 -1.6576
   34POPC    C2 4530   2.737   1.607  10.314  0.7617 -0.6610 -0.1631
   34POPC    HS 4531   2.817   1.677  10.282  0.8329 -1.2742 -1.3519
   34POPC   O21 4532   2.619   1.615  10.232 -0.0839 -0.3561 -0.5273
   34POPC   C21 4533   2.576   1.740  10.212  0.6670  0.0323 -0.1100
   34POPC   O22 4534   2.640   1.843  10.218 -0.4396 -0.4343 -0.2741
   34POPC   C22 4535   2.434   1.741  10.166  0.4260 -0.3696 -0.0573
   34POPC   H2R 4536   2.374   1.685  10.241  1.0167 -0.4417  0.3719
   34POPC   H2S 4537   2.426   1.672  10.079  0.1051 -0.5239  0.0943
   34POPC    C3 4538   2.800   1.465  10.298  0.0301  0.5309  0.4517
   34POPC    HX 4539   2.753   1.380  10.351 -1.3727 -1.0042 -2.9685
   34POPC    HY 4540   2.907   1.464  10.326  0.1913  1.5489 -0.0780
   34POPC   O31 4541   2.797   1.426  10.157 -0.0078  0.8728  0.5887
   34POPC   C31 4542   2.856   1.309  10.127 -0.1146  0.2788 -0.5627
   34POPC   O32 4543   2.902   1.227  10.202 -0.3473  0.3922  0.6891
   34POPC   C32 4544   2.852   1.289   9.976  0.5784 -0.0234  0.2982
   34POPC   H2X 4545   2.785   1.204   9.953 -1.3149  1.6020 -0.5495
   34POPC   H2Y 4546   2.949   1.260   9.930  0.7155 -2.4522  1.9297
   34POPC   C23 4547   2.375   1.891  10.148  0.2669  0.4424  0.2768
   34POPC   H3R 4548   2.430   1.963  10.212 -0.5557  1.1901  0.1670
   34POPC   H3S 4549   2.267   1.895  10.172  0.3808  1.4627  0.6894
   34POPC   C24 4550   2.401   1.943  10.013 -0.1709 -0.5458  0.3296
   34POPC   H4R 4551   2.510   1.953   9.997  0.4222 -3.6787  1.7392
   34POPC   H4S 4552   2.353   2.043  10.001  0.1233 -0.4736 -0.2624
   34POPC   C25 4553   2.345   1.844   9.906  0.4208  0.3238  0.0021
   34POPC   H5R 4554   2.249   1.798   9.938  1.1049 -1.5690 -0.5494
   34POPC   H5S 4555   2.418   1.764   9.881 -0.8867 -0.7273 -0.5467
   34POPC   C26 4556   2.332   1.916   9.778 -0.4350 -0.3187  0.0532
   34POPC   H6R 4557   2.416   1.989   9.773  1.3067 -2.3314 -2.6766
   34POPC   H6S 4558   2.233   1.965   9.788 -0.3340 -0.1838  0.4611
   34POPC   C27 4559   2.333   1.835   9.652  0.0821 -0.4542 -0.3393
   34POPC   H7R 4560   2.255   1.757   9.660 -1.7980  1.5030  2.1755
   34POPC   H7S 4561   2.431   1.784   9.637  0.7874 -0.3511  3.0435
   34POPC   C28 4562   2.301   1.930   9.538 -0.5604 -0.0928 -0.1142
   34POPC   H8R 4563   2.224   2.000   9.577 -1.0990 -1.3011  1.0959
   34POPC   H8S 4564   2.242   1.872   9.464  0.2456 -1.3133  0.1715
   34POPC   C29 4565   2.409   2.012   9.477 -0.1839  0.2356  0.0512
   34POPC   H91 4566   2.451   2.083   9.551  1.4012 -0.9497  0.3447
   34POPC  C210 4567   2.452   2.029   9.347 -0.3870  0.6213  0.2774
   34POPC  H101 4568   2.547   2.080   9.328  0.9273 -1.0347  2.1005
   34POPC  C211 4569   2.394   1.938   9.241 -0.8511 -0.7539  0.0972
   34POPC  H11R 4570   2.312   1.872   9.277 -1.4483 -0.7520 -1.1892
   34POPC  H11S 4571   2.474   1.869   9.207 -2.1350 -1.3929 -1.8405
   34POPC  C212 4572   2.349   2.019   9.118  0.4388 -0.3115 -0.0004
   34POPC  H12R 4573   2.294   2.110   9.149  1.1925  1.2896 -3.0223
   34POPC  H12S 4574   2.292   1.952   9.050 -1.6977 -0.3089  1.6983
   34POPC  C213 4575   2.467   2.067   9.027 -0.0259  0.2544  0.1624
   34POPC  H13R 4576   2.536   1.983   9.009  0.5336  1.2690 -2.9586
   34POPC  H13S 4577   2.523   2.137   9.093 -0.2820 -1.0422  1.8057
   34POPC  C214 4578   2.427   2.117   8.886  0.3028 -0.0263  0.8702
   34POPC  H14R 4579   2.336   2.180   8.883 -0.1726 -0.5448  2.7759
   34POPC  H14S 4580   2.397   2.024   8.834  1.0633  1.1518 -1.8309
   34POPC  C215 4581   2.542   2.193   8.816  0.8356 -0.8651  0.8338
   34POPC  H15R 4582   2.634   2.136   8.840  2.2280  0.8937 -0.1273
   34POPC  H15S 4583   2.551   2.297   8.856 -1.2980 -1.3230  2.6952
   34POPC  C216 4584   2.535   2.187   8.665 -0.1122  0.2756 -0.3464
   34POPC  H16R 4585   2.525   2.078   8.650 -1.7144  0.2418  0.7552
   34POPC  H16S 4586   2.625   2.222   8.610  0.3523  4.0335  2.3800
   34POPC  C217 4587   2.407   2.248   8.605 -0.5768  0.0724 -0.2741
   34POPC  H17R 4588   2.319   2.207   8.658  0.7991  0.4748  2.4876
   34POPC  H17S 4589   2.402   2.213   8.499 -2.1040  0.4327 -0.3428
   34POPC  C218 4590   2.397   2.395   8.606 -0.0795 -0.6515 -0.1076
   34POPC  H18R 4591   2.302   2.427   8.557 -0.4076 -2.2206 -0.5825
   34POPC  H18S 4592   2.486   2.443   8.562  0.4010  0.0587  1.5890
   34POPC  H18T 4593   2.390   2.422   8.713 -0.6325 -0.0671 -0.2875
   34POPC   C33 4594   2.816   1.413   9.888  0.4261  0.0392  0.3139
   34POPC   H3X 4595   2.894   1.490   9.911  0.1209  0.9295 -1.4514
   34POPC   H3Y 4596   2.719   1.458   9.918  0.6776  0.6882  0.1866
   34POPC   C34 4597   2.837   1.387   9.740 -0.6654  0.2060 -0.1467
   34POPC   H4X 4598   2.771   1.307   9.700 -0.2979  0.0667 -0.4790
   34POPC   H4Y 4599   2.933   1.337   9.719 -0.3778  0.3966  0.6980
   34POPC   C35 4600   2.821   1.524   9.658 -0.4843  0.2739 -0.1008
   34POPC   H5X 4601   2.922   1.569   9.660 -0.1189 -0.5341  1.0107
   34POPC   H5Y 4602   2.760   1.594   9.719  0.0976  0.5920  0.1221
   34POPC   C36 4603   2.755   1.513   9.529  0.8574  0.3247  0.3343
   34POPC   H6X 4604   2.799   1.434   9.465 -1.8399 -0.6371 -0.4626
   34POPC   H6Y 4605   2.782   1.612   9.484 -1.6096  1.2047  0.6573
   34POPC   C37 4606   2.603   1.508   9.553 -0.1322  0.2116 -0.1615
   34POPC   H7X 4607   2.572   1.591   9.620  0.4246 -1.4496  2.3117
   34POPC   H7Y 4608   2.579   1.409   9.598  0.6681 -0.1487 -0.5011
   34POPC   C38 4609   2.532   1.507   9.417 -0.4611  0.7874  0.5929
   34POPC   H8X 4610   2.594   1.440   9.354  0.6894  0.8238  1.6515
   34POPC   H8Y 4611   2.530   1.610   9.378 -0.6531  1.5823  2.5560
   34POPC   C39 4612   2.387   1.459   9.422  0.4231  0.0704  0.1149
   34POPC   H9X 4613   2.323   1.515   9.493  0.3216  0.9225 -0.6434
   34POPC   H9Y 4614   2.390   1.356   9.464  0.9510 -0.1341 -0.4088
   34POPC  C310 4615   2.325   1.441   9.286  0.7444 -0.0055  0.0761
   34POPC  H10X 4616   2.351   1.341   9.246  0.6983 -0.2852  0.7214
   34POPC  H10Y 4617   2.333   1.528   9.218  1.5467  2.0911  2.6423
   34POPC  C311 4618   2.168   1.424   9.321  0.4910  0.2963 -0.2123
   34POPC  H11X 4619   2.118   1.517   9.355 -2.4350 -1.2336 -0.0554
   34POPC  H11Y 4620   2.159   1.353   9.406 -1.1236  0.4453 -0.2459
   34POPC  C312 4621   2.083   1.364   9.205 -1.1688 -0.5275 -0.1983
   34POPC  H12X 4622   1.975   1.371   9.233 -0.9362  0.1174  0.5727
   34POPC  H12Y 4623   2.113   1.258   9.195 -0.4145 -0.3892  0.5064
   34POPC  C313 4624   2.099   1.454   9.071 -0.2672 -0.1736 -0.2238
   34POPC  H13X 4625   2.198   1.433   9.024  0.2246  0.7569  0.3843
   34POPC  H13Y 4626   2.089   1.562   9.091 -1.6443  0.1069 -2.0883
   34POPC  C314 4627   1.993   1.393   8.968 -0.3896 -0.0246  0.5540
   34POPC  H14X 4628   1.890   1.405   9.006 -0.7121 -0.6967 -0.0944
   34POPC  H14Y 4629   2.018   1.286   8.953  0.3693  0.1045  0.8145
   34POPC  C315 4630   2.018   1.447   8.823  0.6723 -0.1479 -0.3452
   34POPC  H15X 4631   2.124   1.442   8.790  0.7144 -0.4173 -0.1764
   34POPC  H15Y 4632   1.987   1.552   8.807 -0.3149 -0.4898 -0.6975
   34POPC  C316 4633   1.931   1.368   8.723  0.4057 -0.2012 -0.4641
   34POPC  H16X 4634   1.960   1.260   8.723 -1.7663 -0.8291 -0.8301
   34POPC  H16Y 4635   1.959   1.390   8.617 -0.8042 -3.6242 -1.6582
   34POPC  H16Z 4636   1.821   1.373   8.737  0.4406 -0.2360 -0.1737
   35POPC     N 4637   1.042   0.268  11.064 -0.1788  0.1349 -0.5439
   35POPC   C12 4638   1.050   0.165  11.180  0.9058 -0.2988  0.4496
   35POPC  H12A 4639   0.996   0.076  11.152 -0.9608 -0.4591  3.8764
   35POPC  H12B 4640   0.998   0.212  11.262  1.6005  1.0440  0.1514
   35POPC   C13 4641   1.121   0.223  10.940 -0.6016  0.2166 -0.2205
   35POPC  H13A 4642   1.222   0.210  10.977 -0.1191  0.2876 -1.4616
   35POPC  H13B 4643   1.079   0.129  10.907  0.3107  0.1394 -1.2090
   35POPC  H13C 4644   1.120   0.298  10.863  0.8194  2.3070  1.7013
   35POPC   C14 4645   0.900   0.280  11.023 -0.3877 -0.1757  0.7750
   35POPC  H14A 4646   0.871   0.189  10.972  2.0345 -0.0923 -0.9313
   35POPC  H14B 4647   0.837   0.289  11.109 -2.1885  1.3968 -0.6246
   35POPC  H14C 4648   0.875   0.352  10.946  1.5733 -0.6319 -0.3611
   35POPC   C15 4649   1.096   0.404  11.101  0.3180  0.1422  0.1608
   35POPC  H15A 4650   1.076   0.461  11.011 -0.5760 -1.3597 -0.6196
   35POPC  H15B 4651   1.203   0.412  11.117  0.1237  0.3236  1.5079
   35POPC  H15C 4652   1.030   0.446  11.175  0.5704 -0.1807  0.5720
   35POPC   C11 4653   1.193   0.125  11.222 -0.7894 -0.0001  0.2035
   35POPC  H11A 4654   1.177   0.084  11.324  0.3155  1.7924  1.1665
   35POPC  H11B 4655   1.248   0.221  11.233  0.8655 -0.9484  0.6667
   35POPC     P 4656   1.407   0.049  11.092  0.2335  0.3291  0.4656
   35POPC   O13 4657   1.492   0.025  11.211  0.1498  0.1343  0.5988
   35POPC   O14 4658   1.427   0.176  11.021 -0.0986 -0.3039  0.3552
   35POPC   O12 4659   1.255   0.031  11.133 -0.0452  0.1697 -0.3965
   35POPC   O11 4660   1.443  -0.061  10.989  0.7425 -0.3365  0.1834
   35POPC    C1 4661   1.360  -0.106  10.882 -0.4941 -0.1998 -0.2392
   35POPC    HA 4662   1.256  -0.067  10.887  0.3115  1.9542  0.9983
   35POPC    HB 4663   1.342  -0.215  10.889 -0.4312 -0.1115  3.4109
   35POPC    C2 4664   1.418  -0.063  10.743  0.0687  0.0780 -0.6566
   35POPC    HS 4665   1.524  -0.096  10.735  0.5151  1.2940 -0.0530
   35POPC   O21 4666   1.409   0.081  10.721 -0.3094  0.5647 -0.5382
   35POPC   C21 4667   1.516   0.129  10.659 -0.4809  0.2338  0.0666
   35POPC   O22 4668   1.621   0.066  10.644  0.4846  0.1972  0.1740
   35POPC   C22 4669   1.462   0.256  10.583 -0.3420 -0.0071 -0.5176
   35POPC   H2R 4670   1.510   0.338  10.641 -0.4608 -0.1713 -0.1852
   35POPC   H2S 4671   1.353   0.264  10.603  0.2166  2.5180  2.4546
   35POPC    C3 4672   1.343  -0.135  10.627  0.0311 -0.2996 -0.3916
   35POPC    HX 4673   1.236  -0.106  10.628  0.1005 -0.0434 -0.1370
   35POPC    HY 4674   1.346  -0.243  10.651 -0.3647  0.2299  2.4585
   35POPC   O31 4675   1.400  -0.108  10.497 -0.0696 -0.5372 -0.2985
   35POPC   C31 4676   1.519  -0.161  10.477  0.2142  0.2371 -0.6231
   35POPC   O32 4677   1.565  -0.248  10.549 -0.1844  0.5137  0.2808
   35POPC   C32 4678   1.589  -0.103  10.357  0.2597  0.9115 -0.4195
   35POPC   H2X 4679   1.666  -0.175  10.321 -1.9901 -1.8410 -0.0383
   35POPC   H2Y 4680   1.650  -0.014  10.385  3.0308 -0.1447 -2.6100
   35POPC   C23 4681   1.503   0.259  10.435  0.4272 -0.0233  0.4116
   35POPC   H3R 4682   1.458   0.176  10.376  3.4683  0.0942 -2.3063
   35POPC   H3S 4683   1.612   0.239  10.438  0.2065 -1.1860  1.2484
   35POPC   C24 4684   1.449   0.382  10.363 -0.1315  0.1828 -0.3089
   35POPC   H4R 4685   1.488   0.468  10.422 -0.8195  1.4403 -1.6215
   35POPC   H4S 4686   1.338   0.387  10.362 -0.2100  0.1543  2.0159
   35POPC   C25 4687   1.509   0.370  10.223 -0.7238  0.4716 -0.2085
   35POPC   H5R 4688   1.590   0.293  10.219 -1.6962 -0.6785  1.3727
   35POPC   H5S 4689   1.549   0.471  10.199 -1.9736  0.9176 -0.4578
   35POPC   C26 4690   1.406   0.319  10.125  0.5459  0.1260  0.4184
   35POPC   H6R 4691   1.324   0.393  10.124 -1.3900 -1.9238 -0.9307
   35POPC   H6S 4692   1.363   0.226  10.168  0.4405 -0.5269 -1.0363
   35POPC   C27 4693   1.460   0.289   9.981  0.0507 -0.7827 -0.3635
   35POPC   H7R 4694   1.551   0.226   9.989  0.0941 -0.5614  1.1194
   35POPC   H7S 4695   1.498   0.381   9.930  0.4252 -0.7254  0.0145
   35POPC   C28 4696   1.357   0.215   9.894 -0.2219  0.2527 -0.1195
   35POPC   H8R 4697   1.306   0.143   9.961 -0.7900  0.6376 -0.1262
   35POPC   H8S 4698   1.422   0.158   9.825 -0.6404 -1.6674  1.0129
   35POPC   C29 4699   1.243   0.287   9.824 -0.1128  0.2637 -0.0962
   35POPC   H91 4700   1.151   0.307   9.881 -0.0987 -1.1061  0.4647
   35POPC  C210 4701   1.226   0.315   9.697 -0.3279 -0.3381 -0.7969
   35POPC  H101 4702   1.138   0.372   9.662 -0.5621 -0.8868 -1.1259
   35POPC  C211 4703   1.315   0.277   9.584 -0.2645  0.1847  0.4226
   35POPC  H11R 4704   1.249   0.241   9.502 -2.2499  0.3021  1.9114
   35POPC  H11S 4705   1.387   0.199   9.616 -0.8446  0.0493  1.4076
   35POPC  C212 4706   1.413   0.388   9.548  0.0609 -0.1924 -0.0144
   35POPC  H12R 4707   1.488   0.361   9.471  0.6149  0.1224  0.4071
   35POPC  H12S 4708   1.468   0.392   9.644 -0.7409  1.4287  0.4198
   35POPC  C213 4709   1.359   0.525   9.501 -0.0141 -0.5549 -0.3181
   35POPC  H13R 4710   1.451   0.587   9.497 -0.2088 -0.2688 -0.3417
   35POPC  H13S 4711   1.288   0.556   9.580 -0.4038 -2.2756  0.0470
   35POPC  C214 4712   1.280   0.538   9.371  0.4933  0.0815 -0.0462
   35POPC  H14R 4713   1.243   0.639   9.343  1.2642 -0.1342 -1.9177
   35POPC  H14S 4714   1.195   0.467   9.372  2.6186 -2.6468  1.2504
   35POPC  C215 4715   1.359   0.486   9.249  0.3156 -0.0664  1.1378
   35POPC  H15R 4716   1.403   0.387   9.274 -1.2193 -1.2842 -0.7175
   35POPC  H15S 4717   1.444   0.557   9.234  0.3005 -0.4115 -0.8908
   35POPC  C216 4718   1.278   0.484   9.119 -0.3857  0.0510 -0.6249
   35POPC  H16R 4719   1.265   0.586   9.078  0.3665 -0.4826 -2.3013
   35POPC  H16S 4720   1.177   0.446   9.148 -1.0575  2.6655  0.7523
   35POPC  C217 4721   1.320   0.383   9.011  0.0398 -0.2213 -0.0440
   35POPC  H17R 4722   1.429   0.363   9.017  0.3151  1.1607 -0.2898
   35POPC  H17S 4723   1.304   0.433   8.913 -0.5977  0.6771  0.5042
   35POPC  C218 4724   1.252   0.249   9.006 -0.5214  0.8431 -0.2322
   35POPC  H18R 4725   1.235   0.211   9.110 -0.1725  1.5467  0.0842
   35POPC  H18S 4726   1.310   0.167   8.958 -1.9373  0.1088 -0.7810
   35POPC  H18T 4727   1.150   0.261   8.964 -0.0836  2.2669 -0.9344
   35POPC   C33 4728   1.505  -0.067  10.234 -0.4180  0.0113  0.1918
   35POPC   H3X 4729   1.559   0.016  10.184  0.6621 -1.6194 -1.4614
   35POPC   H3Y 4730   1.402  -0.033  10.256 -0.7125 -1.7861  1.8708
   35POPC   C34 4731   1.496  -0.184  10.128 -0.5800  0.1170 -0.0109
   35POPC   H4X 4732   1.439  -0.267  10.175  0.0117  0.0670  0.6308
   35POPC   H4Y 4733   1.599  -0.216  10.101  0.3652  0.2699  2.9780
   35POPC   C35 4734   1.424  -0.126  10.006 -0.1476 -0.1273  0.1150
   35POPC   H5X 4735   1.471  -0.034   9.965  0.6460  0.5621  2.4096
   35POPC   H5Y 4736   1.318  -0.099  10.028 -1.1488 -3.2152 -0.4857
   35POPC   C36 4737   1.412  -0.232   9.891 -0.3129  0.1003 -0.1668
   35POPC   H6X 4738   1.370  -0.331   9.919 -0.1472 -0.2271 -1.0378
   35POPC   H6Y 4739   1.515  -0.253   9.854  0.0402 -0.6267  1.1671
   35POPC   C37 4740   1.334  -0.177   9.774  0.2548 -0.2929 -0.2138
   35POPC   H7X 4741   1.306  -0.072   9.793 -0.1355 -0.4740  0.2303
   35POPC   H7Y 4742   1.237  -0.232   9.767  1.3650 -2.2734 -0.8948
   35POPC   C38 4743   1.418  -0.189   9.643  0.1531  0.4264 -0.2625
   35POPC   H8X 4744   1.500  -0.114   9.637 -0.5814  1.1389 -2.3843
   35POPC   H8Y 4745   1.341  -0.158   9.569 -1.4458 -0.4032  0.9804
   35POPC   C39 4746   1.439  -0.339   9.613  0.2063  0.3474 -0.3363
   35POPC   H9X 4747   1.339  -0.386   9.621  0.1033  0.1711 -2.3062
   35POPC   H9Y 4748   1.501  -0.394   9.688  0.7086  0.9524 -0.3022
   35POPC  C310 4749   1.496  -0.377   9.475 -0.1924 -0.4630  0.1145
   35POPC  H10X 4750   1.504  -0.485   9.454  2.8162 -0.1144 -0.9277
   35POPC  H10Y 4751   1.600  -0.339   9.478  0.4799 -2.2955  1.6016
   35POPC  C311 4752   1.418  -0.323   9.362 -0.4964  0.5294  0.1676
   35POPC  H11X 4753   1.430  -0.213   9.354 -1.1040  0.5792 -0.1127
   35POPC  H11Y 4754   1.310  -0.339   9.379 -0.2657 -2.6872 -0.6549
   35POPC  C312 4755   1.462  -0.387   9.225 -0.1319 -0.2858  0.3525
   35POPC  H12X 4756   1.417  -0.487   9.208 -1.3723  0.0943  1.3145
   35POPC  H12Y 4757   1.573  -0.391   9.211  0.1788 -2.0413  2.8028
   35POPC  C313 4758   1.413  -0.308   9.100 -0.7237 -0.6631  0.3267
   35POPC  H13X 4759   1.451  -0.204   9.100 -1.2565 -0.4319 -1.3674
   35POPC  H13Y 4760   1.304  -0.294   9.118 -0.5669  2.0309 -0.3300
   35POPC  C314 4761   1.446  -0.386   8.973 -0.3936 -0.2888  0.1479
   35POPC  H14X 4762   1.367  -0.465   8.970 -1.6557  0.9616 -1.8543
   35POPC  H14Y 4763   1.549  -0.422   8.993 -0.7335 -0.8650  0.9163
   35POPC  C315 4764   1.432  -0.296   8.845 -0.2100  0.6633 -0.6295
   35POPC  H15X 4765   1.492  -0.204   8.864 -0.3008  0.3677  1.3420
   35POPC  H15Y 4766   1.326  -0.269   8.828 -0.2511 -0.4951 -2.5379
   35POPC  C316 4767   1.474  -0.373   8.721 -1.0360  0.1254 -0.3330
   35POPC  H16X 4768   1.416  -0.462   8.690 -3.0918  0.6831  1.6327
   35POPC  H16Y 4769   1.581  -0.393   8.739 -1.2444 -0.3615  0.4006
   35POPC  H16Z 4770   1.470  -0.303   8.635  1.4500 -0.9336 -1.4047
   36POPC     N 4771   1.691   6.249  11.162  0.1247 -0.5211  0.1500
   36POPC   C12 4772   1.655   6.125  11.074  0.7768  0.8274  0.5735
   36POPC  H12A 4773   1.556   6.089  11.096  0.7392  0.0613 -0.7429
   36POPC  H12B 4774   1.713   6.043  11.113 -1.6251 -0.2807  2.0420
   36POPC   C13 4775   1.675   6.205  11.310  0.2066 -0.3056  0.0567
   36POPC  H13A 4776   1.572   6.199  11.340  0.6688 -2.2193  1.4577
   36POPC  H13B 4777   1.715   6.106  11.327 -1.0955 -1.1054 -1.3041
   36POPC  H13C 4778   1.729   6.282  11.364 -0.3589 -1.0792  1.7800
   36POPC   C14 4779   1.828   6.287  11.128  0.2581 -0.0446  0.1429
   36POPC  H14A 4780   1.873   6.355  11.200  0.8743 -0.6020  0.2952
   36POPC  H14B 4781   1.896   6.204  11.120  0.0471 -0.2184  0.1602
   36POPC  H14C 4782   1.836   6.332  11.030 -0.1005  0.0048  0.1362
   36POPC   C15 4783   1.600   6.362  11.150 -0.0225  0.0609  0.4413
   36POPC  H15A 4784   1.629   6.455  11.197  1.0920  0.2411 -0.5455
   36POPC  H15B 4785   1.499   6.347  11.184 -0.0184 -2.1391 -0.3387
   36POPC  H15C 4786   1.609   6.389  11.046  0.8610  1.4833  0.8551
   36POPC   C11 4787   1.651   6.142  10.916 -0.2026  0.0111 -0.2662
   36POPC  H11A 4788   1.624   6.054  10.853 -1.2983 -0.1205  0.3641
   36POPC  H11B 4789   1.756   6.163  10.887 -1.0208  0.2310 -3.5493
   36POPC     P 4790   1.409   6.221  10.873  0.4846 -0.0482  0.1652
   36POPC   O13 4791   1.335   6.347  10.885  0.2921 -1.0050 -0.6627
   36POPC   O14 4792   1.374   6.115  10.971  0.6539 -0.1051 -0.8088
   36POPC   O12 4793   1.563   6.251  10.880  0.5122  0.2031  0.5754
   36POPC   O11 4794   1.385   6.159  10.723  0.4121  0.2538  0.2609
   36POPC    C1 4795   1.436   6.227  10.608 -0.7292 -0.6700 -0.2055
   36POPC    HA 4796   1.543   6.199  10.596 -0.2435  0.3804  1.4515
   36POPC    HB 4797   1.426   6.337  10.615 -1.7428 -0.8847  4.0173
   36POPC    C2 4798   1.359   6.183  10.481  0.5733 -0.2523  0.3039
   36POPC    HS 4799   1.249   6.193  10.500  0.6546  1.3674  0.0564
   36POPC   O21 4800   1.410   6.057  10.429  0.6335 -0.1032  0.6242
   36POPC   C21 4801   1.324   5.961  10.424  0.7601  0.2012 -0.0204
   36POPC   O22 4802   1.202   5.971  10.439  0.6039  0.6498 -0.0412
   36POPC   C22 4803   1.407   5.833  10.404 -0.1851 -0.7700  0.1899
   36POPC   H2R 4804   1.330   5.758  10.374 -1.6542  0.6002  0.3496
   36POPC   H2S 4805   1.427   5.797  10.507  1.1678 -0.3640  0.0832
   36POPC    C3 4806   1.389   6.282  10.366 -0.1345 -1.1478  0.0713
   36POPC    HX 4807   1.499   6.295  10.364 -0.3105  0.5391 -0.3374
   36POPC    HY 4808   1.342   6.380  10.389 -0.6667 -0.9554 -1.6864
   36POPC   O31 4809   1.345   6.242  10.234  0.0130  0.4676 -0.4856
   36POPC   C31 4810   1.215   6.269  10.216  0.8203 -0.7035  0.0602
   36POPC   O32 4811   1.141   6.337  10.287  0.2609 -0.3008 -0.5206
   36POPC   C32 4812   1.170   6.209  10.086 -0.3638  0.5091 -0.6045
   36POPC   H2X 4813   1.231   6.242  10.000  4.2211  0.0602  2.1791
   36POPC   H2Y 4814   1.065   6.245  10.074 -0.1827  0.8506 -1.1958
   36POPC   C23 4815   1.535   5.836  10.314  0.0934 -0.0094 -0.4735
   36POPC   H3R 4816   1.609   5.758  10.345 -0.1411  0.7677  2.3364
   36POPC   H3S 4817   1.595   5.928  10.328 -0.8290  0.4500  0.5750
   36POPC   C24 4818   1.506   5.808  10.165 -0.5863 -0.7884 -0.2281
   36POPC   H4R 4819   1.410   5.862  10.152  0.0915  1.0511  1.7888
   36POPC   H4S 4820   1.501   5.697  10.156  0.6023 -1.2130  2.8810
   36POPC   C25 4821   1.609   5.861  10.077  0.0941 -0.5332  0.2009
   36POPC   H5R 4822   1.703   5.807  10.101  0.2601 -0.0123  0.7624
   36POPC   H5S 4823   1.621   5.971  10.089 -1.2447 -0.3400 -0.1496
   36POPC   C26 4824   1.567   5.835   9.935  0.1129 -0.3515  0.7243
   36POPC   H6R 4825   1.468   5.785   9.926 -0.1710  0.1388  1.0554
   36POPC   H6S 4826   1.647   5.782   9.880  0.3737  1.5580 -0.8771
   36POPC   C27 4827   1.545   5.970   9.866 -0.1126 -0.0106  0.1087
   36POPC   H7R 4828   1.636   6.034   9.868 -0.8709  1.2101 -1.5373
   36POPC   H7S 4829   1.459   6.033   9.897  2.3619  3.2085  0.9998
   36POPC   C28 4830   1.519   5.936   9.707  0.0944  0.1043  0.3801
   36POPC   H8R 4831   1.494   6.037   9.667  1.6896 -0.0671 -1.1778
   36POPC   H8S 4832   1.432   5.867   9.694  2.2402 -2.5932 -0.6232
   36POPC   C29 4833   1.638   5.875   9.638 -0.3213 -0.2138 -0.4657
   36POPC   H91 4834   1.693   5.803   9.700 -1.5951 -0.9730 -0.1934
   36POPC  C210 4835   1.674   5.897   9.506  0.0086 -0.0066 -0.0259
   36POPC  H101 4836   1.764   5.855   9.459  0.7169  0.9286  0.4514
   36POPC  C211 4837   1.591   5.977   9.411  0.6205 -0.5692 -0.0956
   36POPC  H11R 4838   1.628   6.081   9.408  0.5495 -0.5402  0.0084
   36POPC  H11S 4839   1.487   5.970   9.449  0.3033  2.2756 -0.2340
   36POPC  C212 4840   1.614   5.930   9.264 -0.2481 -0.0478 -0.5617
   36POPC  H12R 4841   1.573   5.829   9.246  3.9638 -1.7336 -1.9158
   36POPC  H12S 4842   1.720   5.923   9.232 -0.7095  1.7989 -2.8211
   36POPC  C213 4843   1.558   6.022   9.157 -0.7413 -0.3833  0.0852
   36POPC  H13R 4844   1.615   6.117   9.166 -0.0509 -0.6449 -1.2225
   36POPC  H13S 4845   1.453   6.047   9.181 -0.2770  1.6002  0.1878
   36POPC  C214 4846   1.573   5.979   9.011 -0.0701 -0.0107  0.2463
   36POPC  H14R 4847   1.564   5.868   9.005  1.1762 -0.0634 -1.9365
   36POPC  H14S 4848   1.681   5.994   8.989  1.0779 -2.5553  3.3804
   36POPC  C215 4849   1.482   6.053   8.912 -0.2625 -1.1524 -0.0970
   36POPC  H15R 4850   1.487   6.164   8.919  1.8958 -1.2578  0.6037
   36POPC  H15S 4851   1.379   6.026   8.942 -0.7944  1.7192  1.0147
   36POPC  C216 4852   1.502   6.009   8.763 -0.5611  0.2510  0.5796
   36POPC  H16R 4853   1.525   5.900   8.767 -0.7145  0.2196  0.6146
   36POPC  H16S 4854   1.589   6.065   8.725  0.1871  0.4916  2.5413
   36POPC  C217 4855   1.373   6.028   8.689 -0.0787  0.0832 -0.0998
   36POPC  H17R 4856   1.402   6.050   8.584 -1.7785  2.8166 -0.0960
   36POPC  H17S 4857   1.318   6.117   8.727 -1.1925  0.4292 -2.3640
   36POPC  C218 4858   1.282   5.905   8.688 -0.3577 -0.1086 -0.2500
   36POPC  H18R 4859   1.199   5.927   8.618 -2.7600 -1.7425  1.9101
   36POPC  H18S 4860   1.234   5.880   8.785 -1.5894 -1.3631 -1.1503
   36POPC  H18T 4861   1.337   5.816   8.651 -1.0819 -0.8911  0.5074
   36POPC   C33 4862   1.167   6.054  10.101 -0.2149 -0.6910 -0.1441
   36POPC   H3X 4863   1.104   6.021  10.186  0.1832 -1.6433 -0.1995
   36POPC   H3Y 4864   1.273   6.037  10.128  0.0753  1.7258  0.3827
   36POPC   C34 4865   1.127   5.989   9.967 -0.2533 -1.1024 -0.3809
   36POPC   H4X 4866   1.203   6.021   9.893  1.2174  2.2326  2.2549
   36POPC   H4Y 4867   1.029   6.028   9.932  0.8882  3.9749  1.2789
   36POPC   C35 4868   1.141   5.841   9.977  0.1642 -0.1397 -0.0234
   36POPC   H5X 4869   1.048   5.799  10.020  0.2532 -0.0684  0.2382
   36POPC   H5Y 4870   1.212   5.817  10.058 -0.2909 -0.1718  0.3691
   36POPC   C36 4871   1.162   5.770   9.836 -0.0498  0.8667 -0.6608
   36POPC   H6X 4872   1.161   5.659   9.849  0.3456  0.7944 -1.2273
   36POPC   H6Y 4873   1.267   5.788   9.805  0.7925 -0.4944  1.2329
   36POPC   C37 4874   1.062   5.805   9.729  0.0627  0.3086 -0.3422
   36POPC   H7X 4875   1.054   5.914   9.707 -1.3032  0.3318  0.1320
   36POPC   H7Y 4876   0.958   5.779   9.761  0.6488 -0.6291  0.9216
   36POPC   C38 4877   1.101   5.729   9.606 -0.4670  0.5087  0.3944
   36POPC   H8X 4878   1.089   5.620   9.625 -2.2730  0.9506  2.0640
   36POPC   H8Y 4879   1.206   5.758   9.584 -0.3457 -1.2674 -1.7823
   36POPC   C39 4880   1.016   5.769   9.483 -0.3875 -0.1405 -0.4788
   36POPC   H9X 4881   1.004   5.879   9.479  1.1324  0.0471 -0.6350
   36POPC   H9Y 4882   0.913   5.730   9.498 -0.6739  1.0010  0.7583
   36POPC  C310 4883   1.067   5.710   9.348 -0.1761  0.2170 -0.3513
   36POPC  H10X 4884   1.069   5.601   9.368 -1.4681  0.4758  1.4013
   36POPC  H10Y 4885   1.167   5.752   9.321 -0.6556  2.0154  0.4935
   36POPC  C311 4886   0.968   5.745   9.232 -0.4248  0.2415 -0.1899
   36POPC  H11X 4887   0.963   5.856   9.220  1.6150  0.2415 -1.4052
   36POPC  H11Y 4888   0.869   5.706   9.266  0.7357 -0.9167  2.0867
   36POPC  C312 4889   1.000   5.673   9.106 -0.5540 -0.1890  0.2460
   36POPC  H12X 4890   0.978   5.565   9.115 -0.5215 -0.1385  0.9869
   36POPC  H12Y 4891   1.109   5.690   9.093 -0.5892 -0.3334 -0.2658
   36POPC  C313 4892   0.921   5.725   8.984 -0.1619 -0.0273  0.0297
   36POPC  H13X 4893   0.961   5.823   8.949 -1.5240  0.6726  0.3472
   36POPC  H13Y 4894   0.814   5.737   9.013 -0.2827  1.1988 -0.8571
   36POPC  C314 4895   0.920   5.632   8.869 -0.0494  0.8595 -0.4265
   36POPC  H14X 4896   0.853   5.545   8.887  1.5538 -0.1969  0.6098
   36POPC  H14Y 4897   1.018   5.585   8.850 -1.3087 -2.9532  1.5631
   36POPC  C315 4898   0.871   5.700   8.741 -0.6361  0.0278  0.6027
   36POPC  H15X 4899   0.925   5.797   8.746  1.1456 -0.9576  1.3451
   36POPC  H15Y 4900   0.762   5.722   8.741 -0.3377  1.6264  0.3125
   36POPC  C316 4901   0.922   5.624   8.621 -0.6036  0.0649  0.6228
   36POPC  H16X 4902   0.861   5.642   8.530  0.0272 -0.3240  0.1075
   36POPC  H16Y 4903   0.933   5.514   8.626 -1.2099 -0.0398 -0.2105
   36POPC  H16Z 4904   1.024   5.666   8.605 -0.2753 -1.7271 -2.8637
   37POPC     N 4905   3.743   5.890   6.598  0.4485  0.2657  0.0483
   37POPC   C12 4906   3.623   5.975   6.576 -0.1025 -0.3127  0.1548
   37POPC  H12A 4907   3.542   5.912   6.541 -0.8125  0.7507 -0.1685
   37POPC  H12B 4908   3.642   6.033   6.487 -0.2280 -0.9019 -0.2616
   37POPC   C13 4909   3.734   5.802   6.713  0.1187 -0.2643  0.3093
   37POPC  H13A 4910   3.656   5.727   6.702  0.6676 -0.9386  0.8835
   37POPC  H13B 4911   3.822   5.739   6.716 -1.3038 -2.3443  0.6509
   37POPC  H13C 4912   3.721   5.853   6.807  0.8905  1.8065 -0.6671
   37POPC   C14 4913   3.767   5.808   6.473  0.1120 -0.1504  0.4003
   37POPC  H14A 4914   3.843   5.737   6.500  1.3431  1.4995  1.4650
   37POPC  H14B 4915   3.681   5.754   6.437  0.2781  1.0562 -1.9994
   37POPC  H14C 4916   3.807   5.871   6.394 -0.4744 -0.4137 -0.1188
   37POPC   C15 4917   3.858   5.983   6.612  0.3889  0.2771 -0.1135
   37POPC  H15A 4918   3.941   5.914   6.604  1.2610  1.3998 -1.1082
   37POPC  H15B 4919   3.874   6.037   6.705 -0.8740 -1.6948  1.3331
   37POPC  H15C 4920   3.869   6.047   6.526 -0.4005 -0.2798 -0.6454
   37POPC   C11 4921   3.554   6.059   6.686 -0.6863 -0.1237 -0.3979
   37POPC  H11A 4922   3.538   5.990   6.771  3.2278 -1.5010 -0.5669
   37POPC  H11B 4923   3.457   6.105   6.658 -1.2387 -0.6239  0.6689
   37POPC     P 4924   3.668   6.290   6.637 -0.5218 -0.1624 -0.1294
   37POPC   O13 4925   3.557   6.291   6.538  0.2787  0.2275  0.0748
   37POPC   O14 4926   3.808   6.309   6.587  0.0130  0.1598  0.2054
   37POPC   O12 4927   3.655   6.160   6.714 -0.0529 -0.3325 -0.0456
   37POPC   O11 4928   3.650   6.411   6.742  0.6409 -1.0498 -0.2124
   37POPC    C1 4929   3.540   6.425   6.834 -0.9826  0.2529  0.1638
   37POPC    HA 4930   3.484   6.329   6.832  0.4470 -0.6013 -0.0967
   37POPC    HB 4931   3.479   6.509   6.792 -0.1816  1.2279  0.8955
   37POPC    C2 4932   3.583   6.446   6.985 -0.5380 -0.1446 -0.1503
   37POPC    HS 4933   3.631   6.545   6.991 -2.2284  0.6245  2.7891
   37POPC   O21 4934   3.670   6.335   7.021  0.4107  0.5263 -0.4490
   37POPC   C21 4935   3.801   6.353   6.995 -0.2726 -0.4613  0.8748
   37POPC   O22 4936   3.856   6.463   6.972  0.3310 -0.7943  0.4940
   37POPC   C22 4937   3.880   6.223   7.011  0.0146 -0.4089 -0.3495
   37POPC   H2R 4938   3.925   6.210   6.910 -1.2741  0.7901 -1.1083
   37POPC   H2S 4939   3.804   6.145   7.030 -0.9710  0.1831 -1.7734
   37POPC    C3 4940   3.465   6.434   7.080  0.4137  0.9550 -0.2111
   37POPC    HX 4941   3.491   6.421   7.187  1.2541 -3.0234 -0.7490
   37POPC    HY 4942   3.418   6.337   7.053  0.1795  0.4085  1.9255
   37POPC   O31 4943   3.375   6.543   7.063  0.1427  0.2279 -0.1503
   37POPC   C31 4944   3.402   6.649   7.151  0.0374 -0.6343  0.5832
   37POPC   O32 4945   3.499   6.664   7.224  0.2910  0.1387  0.0573
   37POPC   C32 4946   3.289   6.754   7.134  0.0105 -1.4405  0.1039
   37POPC   H2X 4947   3.222   6.737   7.047 -3.8767 -0.3018  2.6022
   37POPC   H2Y 4948   3.342   6.851   7.135 -0.3791 -1.2245  0.5493
   37POPC   C23 4949   3.995   6.210   7.122  0.3601  0.5181 -0.0099
   37POPC   H3R 4950   4.073   6.284   7.094  0.3293  1.0080  1.1387
   37POPC   H3S 4951   4.045   6.112   7.112  1.6739  1.0682  0.9086
   37POPC   C24 4952   3.943   6.196   7.266 -0.0432 -0.4960 -0.2899
   37POPC   H4R 4953   3.877   6.106   7.274 -0.4700 -0.3884 -2.0255
   37POPC   H4S 4954   3.872   6.278   7.289 -0.5253 -0.6951 -1.0016
   37POPC   C25 4955   4.050   6.179   7.369 -0.8863  0.0238  0.5859
   37POPC   H5R 4956   4.107   6.274   7.381 -0.1886 -0.5381  1.8486
   37POPC   H5S 4957   4.118   6.099   7.334 -1.9809 -0.3929 -0.6711
   37POPC   C26 4958   3.987   6.139   7.501 -0.3038  0.1445 -1.0738
   37POPC   H6R 4959   3.957   6.033   7.493 -2.0050  0.4092  0.7880
   37POPC   H6S 4960   3.892   6.197   7.509 -1.1083 -1.2262 -0.0985
   37POPC   C27 4961   4.066   6.177   7.625 -0.0216 -0.4616 -0.9050
   37POPC   H7R 4962   4.095   6.283   7.610 -0.1372 -0.2574  0.2192
   37POPC   H7S 4963   4.161   6.122   7.641 -0.0718 -0.3192 -0.0584
   37POPC   C28 4964   3.991   6.153   7.759  0.5734 -0.6311  0.6982
   37POPC   H8R 4965   4.060   6.128   7.842 -1.5011 -0.7289  2.4605
   37POPC   H8S 4966   3.915   6.074   7.743 -0.3251  0.5890 -1.5671
   37POPC   C29 4967   3.913   6.285   7.790  0.6909  0.1803  0.2162
   37POPC   H91 4968   3.871   6.335   7.702 -0.0943 -1.9616 -0.6925
   37POPC  C210 4969   3.902   6.351   7.910 -0.8760  0.2887 -0.7116
   37POPC  H101 4970   3.838   6.439   7.926 -1.3716 -0.1196 -0.4111
   37POPC  C211 4971   3.966   6.308   8.041  1.1426  0.0494  1.0260
   37POPC  H11R 4972   4.013   6.397   8.089  2.3440 -0.7335  1.3470
   37POPC  H11S 4973   4.041   6.229   8.021 -0.9159 -1.9128  0.6776
   37POPC  C212 4974   3.866   6.235   8.143 -0.2091  0.4748 -0.2280
   37POPC  H12R 4975   3.835   6.135   8.105 -2.6885  0.8217  0.7615
   37POPC  H12S 4976   3.771   6.291   8.147 -0.5738 -0.0955 -0.6713
   37POPC  C213 4977   3.918   6.221   8.285 -0.1129 -0.4529  0.9463
   37POPC  H13R 4978   3.846   6.163   8.348 -0.0532 -1.0407  0.4793
   37POPC  H13S 4979   3.927   6.324   8.327 -1.1368  1.2262 -2.5722
   37POPC  C214 4980   4.050   6.144   8.293  0.4511  0.3723 -0.2822
   37POPC  H14R 4981   4.137   6.176   8.231 -0.2680  2.5416 -0.2636
   37POPC  H14S 4982   4.011   6.047   8.255  1.0180  0.4664 -1.1330
   37POPC  C215 4983   4.084   6.118   8.442  0.2978 -0.2509  0.3598
   37POPC  H15R 4984   4.004   6.061   8.494  0.7738  0.3318  1.7627
   37POPC  H15S 4985   4.105   6.214   8.494  0.1512 -0.6091  1.1021
   37POPC  C216 4986   4.210   6.033   8.454 -0.3630  0.0206  1.1887
   37POPC  H16R 4987   4.295   6.089   8.411 -1.5080  0.7676 -0.2329
   37POPC  H16S 4988   4.194   5.943   8.390  2.5695 -0.6203  1.2465
   37POPC  C217 4989   4.247   5.987   8.590  0.3332 -0.1947  0.7286
   37POPC  H17R 4990   4.340   5.929   8.569  0.5573  0.2183  0.5549
   37POPC  H17S 4991   4.168   5.925   8.636 -0.1489 -1.1740 -1.3085
   37POPC  C218 4992   4.286   6.099   8.685  0.2230  0.1944 -0.7955
   37POPC  H18R 4993   4.334   6.183   8.630 -0.2114  0.7336 -0.3703
   37POPC  H18S 4994   4.352   6.053   8.761 -1.8376  0.4061  1.2253
   37POPC  H18T 4995   4.193   6.143   8.729  0.6044  1.9081 -1.6122
   37POPC   C33 4996   3.190   6.740   7.255  0.7931  0.5172 -0.4663
   37POPC   H3X 4997   3.164   6.632   7.256  0.9444  0.4640 -1.5005
   37POPC   H3Y 4998   3.100   6.797   7.222  1.3479  2.7134  1.5712
   37POPC   C34 4999   3.243   6.804   7.385 -0.5346  0.4851  0.4800
   37POPC   H4X 5000   3.217   6.911   7.368 -0.9025  0.5477  1.3743
   37POPC   H4Y 5001   3.353   6.794   7.400 -0.0292 -3.7177 -3.7272
   37POPC   C35 5002   3.167   6.746   7.496 -0.7646  0.4493 -0.2276
   37POPC   H5X 5003   3.182   6.636   7.504  3.6652  0.8711 -0.0988
   37POPC   H5Y 5004   3.061   6.764   7.469 -0.6519  1.0186 -0.3017
   37POPC   C36 5005   3.203   6.814   7.628 -0.3001 -0.6046  0.5597
   37POPC   H6X 5006   3.147   6.909   7.646 -2.0206 -1.1128 -1.7121
   37POPC   H6Y 5007   3.312   6.834   7.636  0.2215 -3.2008  0.6166
   37POPC   C37 5008   3.152   6.735   7.750 -0.7292  0.2675  0.3121
   37POPC   H7X 5009   3.184   6.628   7.747 -2.3391 -0.3467  2.5034
   37POPC   H7Y 5010   3.041   6.732   7.744 -0.8073  1.1063  1.2167
   37POPC   C38 5011   3.182   6.801   7.892 -0.3055  0.7284  0.5367
   37POPC   H8X 5012   3.147   6.906   7.884  0.8905  1.0846 -0.3889
   37POPC   H8Y 5013   3.292   6.786   7.898 -0.7093 -3.2856  1.0647
   37POPC   C39 5014   3.112   6.731   8.003  0.5412  0.2726  0.1011
   37POPC   H9X 5015   3.128   6.622   7.996  0.2797  0.0267  2.6013
   37POPC   H9Y 5016   3.010   6.746   7.962  1.3457 -1.9721 -3.1039
   37POPC  C310 5017   3.136   6.792   8.142  0.4309 -0.0124  0.2057
   37POPC  H10X 5018   3.153   6.901   8.124  0.2564 -0.1352 -0.7409
   37POPC  H10Y 5019   3.226   6.748   8.190  1.5935  0.0676 -1.7863
   37POPC  C311 5020   3.027   6.761   8.240 -0.4386 -0.5893 -0.7104
   37POPC  H11X 5021   2.930   6.816   8.235 -1.2144 -1.4434  2.6483
   37POPC  H11Y 5022   3.081   6.794   8.331  0.2836 -1.7595 -0.6867
   37POPC  C312 5023   3.001   6.607   8.254 -0.2512  0.2965 -0.1840
   37POPC  H12X 5024   3.091   6.543   8.238 -1.5365 -1.6308 -0.0459
   37POPC  H12Y 5025   2.933   6.584   8.168 -0.3925 -1.1812  0.2960
   37POPC  C313 5026   2.932   6.547   8.380  0.2775 -0.4979  0.2258
   37POPC  H13X 5027   2.889   6.447   8.357  0.7899 -0.8043  0.5772
   37POPC  H13Y 5028   2.845   6.614   8.397  0.2591 -0.3898 -0.3017
   37POPC  C314 5029   3.012   6.542   8.515 -0.4612  0.2505 -0.1550
   37POPC  H14X 5030   2.953   6.490   8.593 -0.1014  0.6483  0.3969
   37POPC  H14Y 5031   3.049   6.638   8.557  0.4876 -0.9083  1.8047
   37POPC  C315 5032   3.145   6.465   8.509 -0.3707 -0.7242 -0.4562
   37POPC  H15X 5033   3.220   6.518   8.446  0.1850  0.0575  0.8261
   37POPC  H15Y 5034   3.128   6.363   8.467 -0.2414 -0.0125 -2.3557
   37POPC  C316 5035   3.204   6.457   8.651  0.5455 -0.0519 -0.2253
   37POPC  H16X 5036   3.197   6.559   8.694 -0.5538 -0.1541 -0.1397
   37POPC  H16Y 5037   3.312   6.432   8.648  0.7184  0.1299  2.4298
   37POPC  H16Z 5038   3.132   6.389   8.701  0.2610  0.2697 -0.1972
   38POPC     N 5039   5.769   3.323   6.024  0.3939 -0.1743 -0.1580
   38POPC   C12 5040   5.831   3.400   6.139  0.3981  0.0360  1.3917
   38POPC  H12A 5041   5.777   3.370   6.228 -2.3157  1.1579  0.2520
   38POPC  H12B 5042   5.806   3.505   6.132  0.8277  0.1243  1.1816
   38POPC   C13 5043   5.854   3.349   5.896  0.0780  0.2850 -0.0110
   38POPC  H13A 5044   5.853   3.454   5.873 -1.0798  0.8288  2.2380
   38POPC  H13B 5045   5.952   3.309   5.917 -0.0037  0.1369  0.0961
   38POPC  H13C 5046   5.824   3.288   5.812  1.3043  1.5482 -1.4382
   38POPC   C14 5047   5.757   3.178   6.047  0.1521  0.1855 -0.4848
   38POPC  H14A 5048   5.711   3.135   5.959 -0.1468  0.5913 -0.5296
   38POPC  H14B 5049   5.860   3.147   6.055  1.2806  3.7564  0.7735
   38POPC  H14C 5050   5.712   3.154   6.142  0.3236  2.0763  0.1028
   38POPC   C15 5051   5.632   3.372   5.990 -0.5951 -0.1479 -0.0665
   38POPC  H15A 5052   5.603   3.337   5.892 -1.9658  0.5405  0.0750
   38POPC  H15B 5053   5.631   3.478   5.974 -2.9660 -0.5105 -3.3825
   38POPC  H15C 5054   5.556   3.342   6.061 -0.4730 -1.3843 -0.4259
   38POPC   C11 5055   5.974   3.381   6.175 -0.2512 -0.3271 -0.1530
   38POPC  H11A 5056   6.000   3.449   6.258 -1.2840 -0.6241  0.4296
   38POPC  H11B 5057   6.034   3.414   6.088  0.4859 -1.1161  0.0496
   38POPC     P 5058   5.980   3.170   6.336 -0.3275  0.2992  0.4842
   38POPC   O13 5059   6.089   3.071   6.341 -0.8495  0.3767  0.4680
   38POPC   O14 5060   5.845   3.112   6.340  0.7340  0.4207  0.1658
   38POPC   O12 5061   6.002   3.249   6.200 -0.0361 -0.2476  0.1226
   38POPC   O11 5062   5.998   3.290   6.440 -0.4896 -0.2242  0.1344
   38POPC    C1 5063   6.130   3.317   6.483 -0.7057 -0.6102  0.0298
   38POPC    HA 5064   6.134   3.426   6.504  0.9386 -0.6787  0.2385
   38POPC    HB 5065   6.217   3.289   6.419 -3.4120 -1.9555 -3.3491
   38POPC    C2 5066   6.173   3.258   6.623 -0.6020  0.4231  0.7623
   38POPC    HS 5067   6.204   3.152   6.611 -0.8723  0.5286 -1.0942
   38POPC   O21 5068   6.058   3.268   6.712 -0.0041  0.5049  1.3378
   38POPC   C21 5069   5.978   3.160   6.716 -0.0379 -0.1439  0.5910
   38POPC   O22 5070   5.998   3.051   6.672 -0.0823  0.5432 -0.6068
   38POPC   C22 5071   5.852   3.208   6.780 -0.6645  0.2298  0.3019
   38POPC   H2R 5072   5.771   3.135   6.758  0.8807 -2.8370  3.6184
   38POPC   H2S 5073   5.823   3.303   6.731  0.8948  0.4045 -0.3379
   38POPC    C3 5074   6.300   3.334   6.679 -0.4428 -0.0964 -0.1832
   38POPC    HX 5075   6.282   3.443   6.670  1.8392  0.2633 -0.8409
   38POPC    HY 5076   6.375   3.308   6.601 -0.8263 -1.0865 -0.2478
   38POPC   O31 5077   6.321   3.276   6.813 -0.3858 -0.2635  0.1900
   38POPC   C31 5078   6.284   3.357   6.917 -0.6827  0.1720 -0.1083
   38POPC   O32 5079   6.217   3.455   6.902  0.5251  0.2930  0.5785
   38POPC   C32 5080   6.322   3.286   7.045  0.8455  0.4171  0.1378
   38POPC   H2X 5081   6.425   3.246   7.039  0.6831  0.1033 -0.7327
   38POPC   H2Y 5082   6.256   3.200   7.068  0.4143  1.3375  2.7019
   38POPC   C23 5083   5.865   3.235   6.934  0.1378 -0.5117  0.3202
   38POPC   H3R 5084   5.773   3.278   6.979 -0.7237 -1.9731  0.0076
   38POPC   H3S 5085   5.952   3.304   6.943  2.0171 -2.7433  0.0645
   38POPC   C24 5086   5.918   3.118   7.020 -0.3397 -0.2271  0.8589
   38POPC   H4R 5087   6.005   3.070   6.970 -1.2180  1.0652 -2.1969
   38POPC   H4S 5088   5.840   3.039   7.019  0.1928 -0.8136 -1.5381
   38POPC   C25 5089   5.939   3.171   7.155 -0.1823  0.0731 -0.2079
   38POPC   H5R 5090   5.847   3.231   7.173 -0.3853 -0.0592 -0.7710
   38POPC   H5S 5091   6.025   3.240   7.157 -0.3516  0.3202 -0.9777
   38POPC   C26 5092   5.970   3.074   7.269  0.5887 -0.2304  0.1947
   38POPC   H6R 5093   6.068   3.029   7.242  0.7227  0.0897  0.1452
   38POPC   H6S 5094   5.893   2.994   7.270 -0.7661  1.0094 -0.9589
   38POPC   C27 5095   5.988   3.146   7.401  0.0727  0.2271  0.6828
   38POPC   H7R 5096   5.895   3.205   7.416 -1.3729 -0.8559 -3.0575
   38POPC   H7S 5097   6.072   3.219   7.388  1.5433 -1.2717  1.3329
   38POPC   C28 5098   6.009   3.073   7.533 -0.4832  0.5601  0.0578
   38POPC   H8R 5099   5.907   3.037   7.558 -0.3773 -0.1050 -0.4441
   38POPC   H8S 5100   6.044   3.140   7.615  0.7731 -0.4672  0.3853
   38POPC   C29 5101   6.104   2.958   7.523 -0.2592  0.6449  0.1994
   38POPC   H91 5102   6.178   2.970   7.443  1.7613 -1.4585  1.6366
   38POPC  C210 5103   6.115   2.848   7.599  0.3033  0.3000  0.2677
   38POPC  H101 5104   6.181   2.765   7.569 -0.0842 -0.4212  1.3222
   38POPC  C211 5105   6.038   2.813   7.722  0.7668  0.1974 -0.0401
   38POPC  H11R 5106   5.950   2.746   7.707 -1.6978  2.5870  2.4120
   38POPC  H11S 5107   5.998   2.908   7.763 -0.8245  0.2033 -1.4962
   38POPC  C212 5108   6.106   2.745   7.845 -0.0847  0.2959  0.1978
   38POPC  H12R 5109   6.185   2.816   7.877  0.2984  0.3838 -0.9107
   38POPC  H12S 5110   6.160   2.653   7.813 -0.2863  0.9890 -2.2818
   38POPC  C213 5111   6.022   2.708   7.966  0.6087  0.2363 -0.6252
   38POPC  H13R 5112   6.088   2.673   8.048  0.6106  0.0317 -0.7140
   38POPC  H13S 5113   5.962   2.619   7.937  2.6886 -1.5764  0.3051
   38POPC  C214 5114   5.927   2.816   8.019 -0.1571 -0.4879 -0.2476
   38POPC  H14R 5115   5.865   2.768   8.098 -0.5859  0.5084  0.0303
   38POPC  H14S 5116   5.860   2.854   7.939  0.7203 -2.0361 -1.7982
   38POPC  C215 5117   6.000   2.931   8.099  1.1483 -0.7095  1.1522
   38POPC  H15R 5118   5.932   3.018   8.110  0.4412 -1.3912  2.3040
   38POPC  H15S 5119   6.096   2.967   8.057  0.8166  0.4591  1.3677
   38POPC  C216 5120   6.036   2.897   8.242  0.4845 -0.1485 -0.4229
   38POPC  H16R 5121   6.089   2.799   8.245 -3.3447 -2.3931  1.4433
   38POPC  H16S 5122   5.942   2.884   8.300  0.1880  0.5048 -0.7528
   38POPC  C217 5123   6.112   3.009   8.316 -0.0810  0.1011 -0.4463
   38POPC  H17R 5124   6.214   3.035   8.281 -0.1538  0.7860 -0.1485
   38POPC  H17S 5125   6.128   2.961   8.415  1.2370  0.0577 -0.6634
   38POPC  C218 5126   6.025   3.137   8.340  0.0067 -0.1194  0.0908
   38POPC  H18R 5127   6.052   3.189   8.435  0.0648  1.5032 -0.7845
   38POPC  H18S 5128   5.918   3.110   8.356  0.4910 -2.0451  0.2848
   38POPC  H18T 5129   6.032   3.218   8.265  0.0145  0.4519  0.6954
   38POPC   C33 5130   6.314   3.387   7.161 -0.0685 -0.4025 -0.3970
   38POPC   H3X 5131   6.212   3.429   7.156  0.3162  0.4419 -1.3958
   38POPC   H3Y 5132   6.384   3.470   7.139  1.2157 -0.9469  1.3699
   38POPC   C34 5133   6.346   3.310   7.289 -0.2681  0.4684 -0.3048
   38POPC   H4X 5134   6.444   3.261   7.270 -0.5489  0.1588 -0.9822
   38POPC   H4Y 5135   6.267   3.233   7.305  1.0281 -0.8166  0.1768
   38POPC   C35 5136   6.355   3.401   7.413 -0.0253 -0.2023 -0.8457
   38POPC   H5X 5137   6.270   3.470   7.397  0.5733  1.6462  2.9368
   38POPC   H5Y 5138   6.449   3.460   7.415 -0.0756  0.0107  2.8478
   38POPC   C36 5139   6.328   3.323   7.543 -0.2259  0.4403  0.4947
   38POPC   H6X 5140   6.224   3.284   7.543 -0.0452 -0.1234 -1.0495
   38POPC   H6Y 5141   6.328   3.394   7.628 -0.5423  1.0109  0.0237
   38POPC   C37 5142   6.440   3.222   7.581 -0.5264 -0.5580 -0.5033
   38POPC   H7X 5143   6.534   3.277   7.562 -0.7169  0.4748  1.3335
   38POPC   H7Y 5144   6.435   3.137   7.508  2.5044  0.1771 -1.6959
   38POPC   C38 5145   6.435   3.164   7.721 -0.7456  0.0449  0.2994
   38POPC   H8X 5146   6.338   3.110   7.726 -1.6675  1.7177  1.5793
   38POPC   H8Y 5147   6.423   3.247   7.794 -3.3129  0.4715 -0.5192
   38POPC   C39 5148   6.553   3.074   7.763  0.0067  0.3581  0.3052
   38POPC   H9X 5149   6.651   3.125   7.772 -0.1333  0.6570  0.1813
   38POPC   H9Y 5150   6.562   2.994   7.687 -1.2869  0.4362  0.0483
   38POPC  C310 5151   6.531   3.011   7.901  1.0194 -0.1103  0.1974
   38POPC  H10X 5152   6.619   2.948   7.926  1.2083 -0.9426 -2.3488
   38POPC  H10Y 5153   6.440   2.950   7.889  1.4262 -0.5650 -0.6380
   38POPC  C311 5154   6.512   3.108   8.010  0.4777 -0.1021 -0.7190
   38POPC  H11X 5155   6.419   3.165   7.993  0.4625  0.2723  0.5207
   38POPC  H11Y 5156   6.599   3.177   8.013  1.0852 -0.8147 -1.4892
   38POPC  C312 5157   6.505   3.036   8.141 -0.2092 -0.1675  0.2572
   38POPC  H12X 5158   6.587   2.962   8.152  0.8113  0.6947 -1.2986
   38POPC  H12Y 5159   6.405   2.987   8.139 -1.6187  2.5679 -0.1484
   38POPC  C313 5160   6.523   3.130   8.260 -0.6190 -0.0403 -0.0059
   38POPC  H13X 5161   6.484   3.066   8.342 -0.9131 -0.2787 -0.3245
   38POPC  H13Y 5162   6.466   3.225   8.254  0.4842  0.6412  0.2451
   38POPC  C314 5163   6.676   3.158   8.285  0.6891 -0.4102  0.0796
   38POPC  H14X 5164   6.706   3.239   8.216 -1.8361  1.0968  0.6051
   38POPC  H14Y 5165   6.742   3.071   8.265  1.1421 -0.0388 -0.0462
   38POPC  C315 5166   6.720   3.205   8.426  0.0106  0.4901  0.0316
   38POPC  H15X 5167   6.654   3.291   8.452 -1.1812  0.2023 -1.8663
   38POPC  H15Y 5168   6.826   3.230   8.404  0.0413 -1.7435 -3.0288
   38POPC  C316 5169   6.712   3.093   8.530  0.8083 -0.3372  0.1180
   38POPC  H16X 5170   6.761   3.003   8.486 -0.5946 -0.6464 -0.8595
   38POPC  H16Y 5171   6.608   3.057   8.540  0.4711 -0.7796 -3.6189
   38POPC  H16Z 5172   6.749   3.124   8.630 -1.5813  1.1098  0.6333
   39POPC     N 5173   2.898   0.427   5.903 -0.0983 -0.1574  0.5495
   39POPC   C12 5174   2.978   0.312   5.964  0.3985 -0.1538 -0.4253
   39POPC  H12A 5175   3.039   0.344   6.047 -1.5238 -2.5110  2.0954
   39POPC  H12B 5176   3.039   0.263   5.890  2.0464 -1.2398  1.5445
   39POPC   C13 5177   2.810   0.382   5.791 -0.3712 -0.2757  0.4757
   39POPC  H13A 5178   2.735   0.314   5.829  1.6122 -1.9748  1.6484
   39POPC  H13B 5179   2.790   0.474   5.740 -0.5388  0.1752  1.3275
   39POPC  H13C 5180   2.870   0.320   5.726 -0.9748 -0.9875  0.5723
   39POPC   C14 5181   2.806   0.488   5.997  0.2300 -0.6662 -0.6452
   39POPC  H14A 5182   2.766   0.419   6.069  0.7254  0.0645  0.3625
   39POPC  H14B 5183   2.842   0.571   6.057 -1.0253 -0.4658 -0.1480
   39POPC  H14C 5184   2.721   0.531   5.946  0.8342  2.3716  0.6960
   39POPC   C15 5185   2.995   0.531   5.863  0.9261  0.1039 -0.6594
   39POPC  H15A 5186   3.060   0.492   5.787  0.2937 -0.8254 -0.7406
   39POPC  H15B 5187   3.058   0.548   5.950  0.2643 -2.1685  0.3335
   39POPC  H15C 5188   2.963   0.625   5.821 -0.6597 -0.7890 -1.5292
   39POPC   C11 5189   2.889   0.206   6.033 -0.2740  0.5238  0.8023
   39POPC  H11A 5190   2.940   0.108   6.041 -0.1642  0.5355  0.3139
   39POPC  H11B 5191   2.808   0.176   5.962  2.0313 -2.2419 -0.8788
   39POPC     P 5192   2.930   0.270   6.287  0.3952  0.2928  0.2318
   39POPC   O13 5193   3.003   0.399   6.258  0.2125  0.9438  0.0978
   39POPC   O14 5194   3.020   0.158   6.307 -0.0134 -0.5849 -0.1889
   39POPC   O12 5195   2.835   0.240   6.161  1.6356  0.3673  0.0463
   39POPC   O11 5196   2.837   0.284   6.412  0.2119  0.8614  0.0662
   39POPC    C1 5197   2.714   0.210   6.443  0.3514  0.2747 -0.0902
   39POPC    HA 5198   2.686   0.153   6.351  1.6755  0.0088 -0.3619
   39POPC    HB 5199   2.627   0.271   6.476 -0.1430 -1.0466  1.1265
   39POPC    C2 5200   2.731   0.118   6.565 -0.0547  0.2198  0.0051
   39POPC    HS 5201   2.753   0.186   6.650 -1.0192  1.6368 -0.8473
   39POPC   O21 5202   2.827   0.022   6.530  0.4160 -0.3396  0.4939
   39POPC   C21 5203   2.892  -0.036   6.631  0.0010 -0.8046 -0.7744
   39POPC   O22 5204   2.877  -0.002   6.749 -0.2417 -0.2706  0.1499
   39POPC   C22 5205   2.957  -0.165   6.588  0.6031  0.5269  0.4638
   39POPC   H2R 5206   2.977  -0.166   6.479 -0.4977 -2.6693  0.1828
   39POPC   H2S 5207   2.883  -0.246   6.603  2.3048 -1.1196  0.3155
   39POPC    C3 5208   2.593   0.053   6.590  0.3666 -0.2156 -0.0167
   39POPC    HX 5209   2.572  -0.007   6.499  1.0185  0.2340 -0.4765
   39POPC    HY 5210   2.512   0.128   6.599 -0.6885 -1.2686 -0.4815
   39POPC   O31 5211   2.593  -0.049   6.694 -0.0396  0.2766  0.1477
   39POPC   C31 5212   2.581  -0.005   6.813 -0.1438 -0.2500  0.4906
   39POPC   O32 5213   2.562   0.112   6.846  0.6511  0.4013  0.2073
   39POPC   C32 5214   2.578  -0.125   6.921  0.0991 -0.5136  0.4493
   39POPC   H2X 5215   2.489  -0.191   6.909  1.1367 -1.9673  0.4557
   39POPC   H2Y 5216   2.667  -0.187   6.898 -0.4119 -0.2127 -2.8161
   39POPC   C23 5217   3.085  -0.213   6.662 -1.1273 -0.3459 -0.9980
   39POPC   H3R 5218   3.160  -0.130   6.670 -0.1383 -1.3286  0.5173
   39POPC   H3S 5219   3.125  -0.299   6.605 -1.2651 -0.5923 -0.7276
   39POPC   C24 5220   3.074  -0.258   6.815  0.4312  0.1441  0.7297
   39POPC   H4R 5221   3.037  -0.176   6.880 -4.2434 -0.6059 -0.6212
   39POPC   H4S 5222   3.172  -0.291   6.855  1.5223 -0.2340 -2.0691
   39POPC   C25 5223   2.967  -0.368   6.837  0.0596 -0.6938 -0.5355
   39POPC   H5R 5224   2.962  -0.429   6.744  0.7502 -1.7957  0.1341
   39POPC   H5S 5225   2.875  -0.308   6.853  0.6841 -0.2436  1.6813
   39POPC   C26 5226   2.989  -0.447   6.960 -0.6057  0.5237  0.9392
   39POPC   H6R 5227   3.080  -0.510   6.948 -0.0681  1.1522  1.6039
   39POPC   H6S 5228   2.906  -0.519   6.967  0.2328 -0.5834 -0.0029
   39POPC   C27 5229   3.013  -0.363   7.082 -0.0346  0.4221 -0.4211
   39POPC   H7R 5230   2.935  -0.285   7.075 -0.7888 -0.4491 -2.2832
   39POPC   H7S 5231   3.109  -0.308   7.078 -0.6204  1.4014 -1.4532
   39POPC   C28 5232   3.006  -0.434   7.211 -0.7164  0.5424 -0.5601
   39POPC   H8R 5233   2.916  -0.500   7.214  0.0710 -0.6019  3.1870
   39POPC   H8S 5234   2.987  -0.365   7.296  1.6902 -0.5425  0.9809
   39POPC   C29 5235   3.130  -0.517   7.228  0.0281  0.1115  0.0369
   39POPC   H91 5236   3.206  -0.521   7.149 -0.2548 -1.9506 -0.1795
   39POPC  C210 5237   3.157  -0.584   7.344  0.6371  0.1677 -1.0057
   39POPC  H101 5238   3.259  -0.622   7.356  0.9461  1.5140  1.0145
   39POPC  C211 5239   3.073  -0.594   7.469 -0.1868 -0.0854 -0.1026
   39POPC  H11R 5240   3.078  -0.701   7.498  1.3460  0.0039  0.0568
   39POPC  H11S 5241   2.970  -0.559   7.447 -1.1981 -1.6457  1.8479
   39POPC  C212 5242   3.132  -0.507   7.580 -0.0378 -0.5206  0.3844
   39POPC  H12R 5243   3.123  -0.399   7.552  2.3247 -0.1165  0.9736
   39POPC  H12S 5244   3.241  -0.522   7.595  0.0542 -0.8986 -0.5690
   39POPC  C213 5245   3.056  -0.523   7.712  0.1826 -0.4729 -0.1618
   39POPC  H13R 5246   2.948  -0.542   7.692 -0.8738  3.3404  1.0305
   39POPC  H13S 5247   3.064  -0.432   7.774  1.1158  0.1029 -1.1018
   39POPC  C214 5248   3.128  -0.619   7.813 -0.0502 -0.1961  0.0459
   39POPC  H14R 5249   3.229  -0.578   7.832 -1.2103  2.1021  1.7740
   39POPC  H14S 5250   3.135  -0.724   7.776 -0.9833  0.5994 -2.6007
   39POPC  C215 5251   3.059  -0.609   7.945 -0.0727 -0.2103 -0.5734
   39POPC  H15R 5252   2.950  -0.626   7.933 -0.4176 -0.6389  2.2767
   39POPC  H15S 5253   3.052  -0.510   7.995 -1.4236  0.0214 -1.1823
   39POPC  C216 5254   3.116  -0.698   8.054 -0.3627  0.1602 -0.4593
   39POPC  H16R 5255   3.227  -0.693   8.058 -0.1444 -1.1124 -3.2199
   39POPC  H16S 5256   3.097  -0.800   8.016 -1.6596 -0.4210  1.5473
   39POPC  C217 5257   3.078  -0.673   8.201 -0.3019  0.2439  0.2408
   39POPC  H17R 5258   3.113  -0.574   8.238 -2.9847  0.9909  1.0640
   39POPC  H17S 5259   3.114  -0.751   8.272  0.0342  1.4774  1.4670
   39POPC  C218 5260   2.928  -0.678   8.234 -0.0408 -0.0906  0.0859
   39POPC  H18R 5261   2.883  -0.601   8.168  0.8583 -1.2926 -2.0191
   39POPC  H18S 5262   2.904  -0.644   8.337  1.0231  1.4838 -0.1542
   39POPC  H18T 5263   2.881  -0.777   8.215 -0.0542  0.3098 -2.2922
   39POPC   C33 5264   2.576  -0.074   7.068  0.6230 -0.9184 -0.4366
   39POPC   H3X 5265   2.482  -0.018   7.083  1.9729  1.5486 -0.5522
   39POPC   H3Y 5266   2.663  -0.007   7.085 -0.1807  0.3474 -1.1575
   39POPC   C34 5267   2.612  -0.183   7.169  0.2063  0.1089 -0.5282
   39POPC   H4X 5268   2.701  -0.230   7.120  0.8399 -0.6694  1.2910
   39POPC   H4Y 5269   2.529  -0.257   7.168 -0.0523  0.4047 -1.2807
   39POPC   C35 5270   2.655  -0.137   7.310 -0.2711  0.0085 -0.7431
   39POPC   H5X 5271   2.566  -0.079   7.344 -0.7448  0.7125 -3.0246
   39POPC   H5Y 5272   2.748  -0.079   7.292 -0.5212  1.0566  1.0671
   39POPC   C36 5273   2.685  -0.249   7.412 -0.9231  0.2174  0.1684
   39POPC   H6X 5274   2.761  -0.319   7.371 -1.1824  0.3033 -0.4775
   39POPC   H6Y 5275   2.584  -0.291   7.431 -0.2769 -1.0293  0.9855
   39POPC   C37 5276   2.736  -0.192   7.550  1.0601  0.2465 -0.0259
   39POPC   H7X 5277   2.673  -0.104   7.573 -1.7343 -1.4333 -0.7848
   39POPC   H7Y 5278   2.844  -0.166   7.546  1.0128  0.3151 -2.0889
   39POPC   C38 5279   2.722  -0.301   7.656 -0.4076 -1.0712  0.7915
   39POPC   H8X 5280   2.804  -0.374   7.641  2.3551  2.2209 -1.8107
   39POPC   H8Y 5281   2.617  -0.338   7.659 -1.3446  1.3365  0.0944
   39POPC   C39 5282   2.762  -0.242   7.791  0.9377 -0.1793  0.4715
   39POPC   H9X 5283   2.689  -0.166   7.827  0.8768  0.4866 -0.9692
   39POPC   H9Y 5284   2.864  -0.199   7.793  0.7669  0.3256 -0.6330
   39POPC  C310 5285   2.742  -0.353   7.907  0.1745  0.2040 -0.1662
   39POPC  H10X 5286   2.778  -0.305   8.000  0.6283 -0.7772  0.1662
   39POPC  H10Y 5287   2.789  -0.454   7.904  1.2472  0.6379  0.9856
   39POPC  C311 5288   2.595  -0.401   7.940 -0.5302  0.4605  0.2960
   39POPC  H11X 5289   2.553  -0.445   7.847  2.1340  1.1759 -1.3698
   39POPC  H11Y 5290   2.525  -0.317   7.961  0.5097  0.7591  2.9024
   39POPC  C312 5291   2.591  -0.497   8.053 -0.4172  0.8245 -0.6232
   39POPC  H12X 5292   2.644  -0.451   8.139 -0.6731 -0.5145  0.2819
   39POPC  H12Y 5293   2.648  -0.588   8.025 -0.5576  0.9540 -1.3585
   39POPC  C313 5294   2.445  -0.540   8.090  0.1612 -0.4770  0.1336
   39POPC  H13X 5295   2.399  -0.610   8.017 -1.3962 -1.0378  1.5841
   39POPC  H13Y 5296   2.384  -0.448   8.099  1.4456  0.6049 -1.5471
   39POPC  C314 5297   2.451  -0.617   8.224 -1.1607  0.3441  0.8127
   39POPC  H14X 5298   2.511  -0.549   8.288  0.7019  0.8975 -1.3342
   39POPC  H14Y 5299   2.513  -0.707   8.203 -2.8209  0.1014 -4.5531
   39POPC  C315 5300   2.320  -0.660   8.291 -0.3359 -0.0198 -0.6236
   39POPC  H15X 5301   2.260  -0.568   8.308 -1.4421 -0.5393 -1.5597
   39POPC  H15Y 5302   2.338  -0.692   8.395 -1.5920 -1.1033 -0.7171
   39POPC  C316 5303   2.230  -0.765   8.225 -0.6712  0.0863  0.1787
   39POPC  H16X 5304   2.209  -0.726   8.123 -0.8108  0.1484  0.2300
   39POPC  H16Y 5305   2.132  -0.779   8.276 -1.2717  2.2427 -0.2520
   39POPC  H16Z 5306   2.289  -0.859   8.226 -2.1177 -0.8613 -0.3602
   40POPC     N 5307   1.818   3.403   6.341  0.0729 -0.9561 -0.0098
   40POPC   C12 5308   1.863   3.453   6.476 -0.6623  0.0887 -0.0567
   40POPC  H12A 5309   1.806   3.409   6.556  0.8012  1.5254  1.8841
   40POPC  H12B 5310   1.854   3.559   6.494 -0.0329 -0.3522  3.5961
   40POPC   C13 5311   1.669   3.387   6.336  0.2059  0.0772 -1.0216
   40POPC  H13A 5312   1.625   3.465   6.397  1.9981 -0.4608  1.0687
   40POPC  H13B 5313   1.628   3.379   6.236  0.9117 -0.8590 -1.2527
   40POPC  H13C 5314   1.638   3.296   6.385  0.0076  0.8478  0.3318
   40POPC   C14 5315   1.851   3.514   6.240  0.5025  0.8218 -0.2474
   40POPC  H14A 5316   1.956   3.537   6.226  0.2680  2.0741 -0.0645
   40POPC  H14B 5317   1.808   3.498   6.142 -1.6721  2.0169  0.4384
   40POPC  H14C 5318   1.814   3.608   6.277  0.8744  1.0118 -0.3522
   40POPC   C15 5319   1.889   3.281   6.293 -0.1657  0.0682 -0.1960
   40POPC  H15A 5320   1.883   3.211   6.375 -3.2293  0.0945 -0.2967
   40POPC  H15B 5321   1.993   3.295   6.268 -0.9608  1.8789 -3.0098
   40POPC  H15C 5322   1.844   3.234   6.206  0.7063 -1.0909 -0.0468
   40POPC   C11 5323   2.019   3.433   6.498  0.6759 -0.5295  0.2771
   40POPC  H11A 5324   2.042   3.325   6.507  1.0981 -0.5279 -0.6609
   40POPC  H11B 5325   2.038   3.478   6.597  0.8457 -1.7732  0.8309
   40POPC     P 5326   2.223   3.433   6.347  0.0478  0.3756  0.0738
   40POPC   O13 5327   2.269   3.505   6.219  0.1385 -0.0178 -0.3990
   40POPC   O14 5328   2.210   3.288   6.349 -0.1688 -0.1461 -0.0666
   40POPC   O12 5329   2.092   3.499   6.393 -0.2952 -0.1772 -0.3843
   40POPC   O11 5330   2.315   3.477   6.465 -0.2845  0.1363  0.3879
   40POPC    C1 5331   2.369   3.610   6.472  0.0281 -0.1531 -0.6683
   40POPC    HA 5332   2.338   3.686   6.397  0.9374  1.4074  0.4620
   40POPC    HB 5333   2.480   3.604   6.462  0.2648 -3.2485  2.2101
   40POPC    C2 5334   2.330   3.683   6.605  0.1255 -0.1941  0.1017
   40POPC    HS 5335   2.410   3.754   6.635 -0.9807  1.4096 -0.5964
   40POPC   O21 5336   2.297   3.597   6.705  0.1120  0.2344 -0.3720
   40POPC   C21 5337   2.389   3.514   6.745  0.0821 -0.3165  0.0006
   40POPC   O22 5338   2.509   3.520   6.736 -0.6760 -0.2692  0.0447
   40POPC   C22 5339   2.318   3.394   6.812  0.3050  1.0208 -0.5224
   40POPC   H2R 5340   2.394   3.336   6.869 -0.1388  0.5917 -0.3636
   40POPC   H2S 5341   2.277   3.331   6.731  0.7069  0.0712 -0.0042
   40POPC    C3 5342   2.210   3.781   6.579 -0.4057 -0.6324  0.6451
   40POPC    HX 5343   2.125   3.722   6.538 -1.1659 -0.7785  2.3475
   40POPC    HY 5344   2.243   3.851   6.499 -1.2841  2.8410  3.0892
   40POPC   O31 5345   2.180   3.857   6.690  0.3680 -0.3225 -0.5936
   40POPC   C31 5346   2.121   3.971   6.665  0.6306 -0.1358 -0.0877
   40POPC   O32 5347   2.111   4.016   6.553 -0.1012  0.4074  0.7393
   40POPC   C32 5348   2.079   4.032   6.794  0.4370  0.3050 -0.2505
   40POPC   H2X 5349   2.154   4.112   6.814  0.2424 -0.3688  4.2916
   40POPC   H2Y 5350   2.080   3.964   6.882  0.2956  0.7617  0.1116
   40POPC   C23 5351   2.197   3.432   6.905 -0.2879 -0.3440 -0.1275
   40POPC   H3R 5352   2.155   3.332   6.932  0.1923  0.2087  3.0942
   40POPC   H3S 5353   2.120   3.483   6.843  1.8132  2.1714 -0.8419
   40POPC   C24 5354   2.232   3.496   7.036 -0.5900 -0.5531 -0.4111
   40POPC   H4R 5355   2.337   3.474   7.065 -1.8157 -3.2917  2.4770
   40POPC   H4S 5356   2.163   3.474   7.121  0.1895  2.6663  1.2283
   40POPC   C25 5357   2.208   3.652   7.039 -0.1075 -0.1686 -0.3018
   40POPC   H5R 5358   2.136   3.684   6.960 -0.2389 -3.5636 -1.7768
   40POPC   H5S 5359   2.310   3.694   7.022  0.1609  0.0283  1.6200
   40POPC   C26 5360   2.144   3.710   7.169  0.4025 -0.6000 -0.7245
   40POPC   H6R 5361   2.041   3.670   7.177 -0.0215  0.6657  0.4184
   40POPC   H6S 5362   2.139   3.817   7.141  0.6800 -0.5296 -0.5138
   40POPC   C27 5363   2.202   3.682   7.306 -0.6288 -0.1676  0.2726
   40POPC   H7R 5364   2.311   3.701   7.298 -0.5027 -1.5237 -2.4329
   40POPC   H7S 5365   2.201   3.574   7.332  3.6214 -0.8253 -1.4618
   40POPC   C28 5366   2.144   3.769   7.429 -0.0602  0.1564  0.4105
   40POPC   H8R 5367   2.035   3.752   7.444 -0.6168  3.1522  0.4517
   40POPC   H8S 5368   2.146   3.872   7.386 -0.1022  0.3123  0.7786
   40POPC   C29 5369   2.222   3.771   7.558 -0.6517 -0.8244  0.1383
   40POPC   H91 5370   2.327   3.799   7.539 -1.2344  1.0861 -0.4880
   40POPC  C210 5371   2.187   3.736   7.681  0.0857 -0.0255 -0.0671
   40POPC  H101 5372   2.262   3.748   7.761  0.1936 -2.4870  0.2607
   40POPC  C211 5373   2.047   3.692   7.716  0.8037 -0.7837 -0.7762
   40POPC  H11R 5374   2.030   3.595   7.767  0.9961  0.3141  1.5182
   40POPC  H11S 5375   1.970   3.708   7.637 -1.3709  0.1171  1.3831
   40POPC  C212 5376   1.988   3.791   7.823 -0.5166 -0.3523 -0.5957
   40POPC  H12R 5377   1.878   3.777   7.829 -0.1273 -3.3804  1.1722
   40POPC  H12S 5378   2.015   3.897   7.801 -1.2567  0.6020  2.4729
   40POPC  C213 5379   2.037   3.739   7.960  0.2778 -0.7317 -0.4237
   40POPC  H13R 5380   2.147   3.725   7.966  0.9323  3.1655 -0.3736
   40POPC  H13S 5381   1.991   3.641   7.982 -0.4387 -0.0678  1.2280
   40POPC  C214 5382   2.008   3.834   8.080  0.0422 -0.6170  0.1255
   40POPC  H14R 5383   1.904   3.820   8.118 -0.2010 -0.8758 -0.6200
   40POPC  H14S 5384   2.006   3.935   8.034  0.4446 -0.8461 -0.4043
   40POPC  C215 5385   2.101   3.813   8.195 -0.2279 -1.2351 -0.9412
   40POPC  H15R 5386   2.208   3.836   8.175  0.3026 -0.1432  2.4749
   40POPC  H15S 5387   2.080   3.709   8.228 -1.5603 -0.2817  1.4924
   40POPC  C216 5388   2.063   3.910   8.312 -0.0742 -0.8520  0.0533
   40POPC  H16R 5389   1.953   3.923   8.325  0.0644 -0.5890  1.0407
   40POPC  H16S 5390   2.092   4.012   8.281  1.7295 -1.5802 -0.7775
   40POPC  C217 5391   2.115   3.884   8.452  0.5594  0.0516  0.0934
   40POPC  H17R 5392   2.067   3.797   8.503  0.5601  0.3349  0.5842
   40POPC  H17S 5393   2.088   3.975   8.509  1.3981  1.0677 -1.0937
   40POPC  C218 5394   2.266   3.858   8.449 -0.2741 -0.1002  0.3861
   40POPC  H18R 5395   2.293   3.857   8.557  0.5792  2.3359  0.2607
   40POPC  H18S 5396   2.318   3.943   8.400  3.0265 -1.9997  0.3468
   40POPC  H18T 5397   2.302   3.766   8.400 -0.7475 -0.4080  0.6126
   40POPC   C33 5398   1.952   4.119   6.789 -0.2901  0.3465 -0.7055
   40POPC   H3X 5399   1.868   4.052   6.759  0.6938 -0.8049 -0.9753
   40POPC   H3Y 5400   1.969   4.201   6.716 -0.3369  0.2818 -0.7899
   40POPC   C34 5401   1.934   4.180   6.928  0.3084  0.0421  0.1316
   40POPC   H4X 5402   1.868   4.269   6.930  1.0484  0.5953  1.9185
   40POPC   H4Y 5403   2.027   4.229   6.965 -0.3421  0.4733  1.2358
   40POPC   C35 5404   1.878   4.090   7.037  0.1424  0.3580  0.9120
   40POPC   H5X 5405   1.927   3.991   7.045 -1.7250 -0.5880  1.0975
   40POPC   H5Y 5406   1.777   4.057   7.005  1.5070 -1.1330 -2.3214
   40POPC   C36 5407   1.882   4.158   7.169 -1.2965  0.3397 -0.5207
   40POPC   H6X 5408   1.821   4.250   7.156 -1.6823  0.2948  0.8159
   40POPC   H6Y 5409   1.988   4.188   7.184 -0.9358 -1.6866  1.5785
   40POPC   C37 5410   1.841   4.060   7.276  0.2361 -0.4046  0.5912
   40POPC   H7X 5411   1.879   3.956   7.263 -0.8374 -0.8778  1.1001
   40POPC   H7Y 5412   1.734   4.034   7.261  0.2599  0.8361 -2.3757
   40POPC   C38 5413   1.879   4.096   7.426 -0.0628  0.1161  0.1292
   40POPC   H8X 5414   1.988   4.113   7.421  0.1181 -1.2061 -0.8847
   40POPC   H8Y 5415   1.868   3.999   7.479 -0.4342  0.5642  0.8881
   40POPC   C39 5416   1.798   4.211   7.488  0.3620  0.0561  0.0712
   40POPC   H9X 5417   1.692   4.191   7.460 -0.1109  1.0094  1.1351
   40POPC   H9Y 5418   1.846   4.295   7.434  0.4975 -0.9493 -1.4595
   40POPC  C310 5419   1.815   4.227   7.633 -0.0235  0.0951 -0.2101
   40POPC  H10X 5420   1.791   4.332   7.663  1.0185  0.7631 -1.6089
   40POPC  H10Y 5421   1.925   4.222   7.645  0.1145 -0.2860 -1.4892
   40POPC  C311 5422   1.730   4.137   7.727 -0.1358 -0.7868  0.6476
   40POPC  H11X 5423   1.754   4.033   7.699  1.2184  0.1583 -2.0225
   40POPC  H11Y 5424   1.622   4.148   7.705  0.0082  0.3185  0.4320
   40POPC  C312 5425   1.765   4.159   7.870  0.0900  0.6305 -0.4923
   40POPC  H12X 5426   1.717   4.256   7.891 -0.8859  0.2576 -0.9263
   40POPC  H12Y 5427   1.874   4.138   7.881 -0.1194 -0.2053  0.1376
   40POPC  C313 5428   1.695   4.057   7.955  0.4769 -0.8225 -0.0333
   40POPC  H13X 5429   1.745   3.958   7.954  2.1110 -0.0463  1.0410
   40POPC  H13Y 5430   1.587   4.050   7.930  0.1999  1.4372  0.2543
   40POPC  C314 5431   1.703   4.094   8.105  0.0461  0.2187 -0.2336
   40POPC  H14X 5432   1.654   4.194   8.111  1.0216  0.9163 -2.4800
   40POPC  H14Y 5433   1.807   4.109   8.141 -0.7961  1.1163  1.9760
   40POPC  C315 5434   1.641   4.002   8.211  0.3244 -0.3597  0.2409
   40POPC  H15X 5435   1.690   3.903   8.212  1.1934  0.0527 -0.0312
   40POPC  H15Y 5436   1.532   3.990   8.194  0.1364 -0.9119  1.7097
   40POPC  C316 5437   1.656   4.059   8.351  0.3390 -0.2275 -0.4434
   40POPC  H16X 5438   1.754   4.040   8.399 -1.1785  0.0202  3.0579
   40POPC  H16Y 5439   1.572   4.013   8.408  0.4574  0.0493 -0.0407
   40POPC  H16Z 5440   1.637   4.168   8.355 -0.2507 -0.2974 -1.0413
   41CHL1    C3 5441   4.038   4.524  10.038 -0.5446 -0.3616 -0.7328
   41CHL1    H3 5442   3.951   4.454  10.036 -2.0968  1.2714  2.2942
   41CHL1    O3 5443   4.082   4.533  10.179  0.3066 -0.4250 -0.0423
   41CHL1   H3' 5444   4.171   4.499  10.187  0.5582  0.1220 -0.4416
   41CHL1    C4 5445   4.151   4.463   9.955 -0.6266  0.3949 -0.3366
   41CHL1   H4A 5446   4.235   4.536   9.951 -0.4796  0.5715  2.8712
   41CHL1   H4B 5447   4.184   4.369  10.005 -0.7868  1.1821  1.3169
   41CHL1    C5 5448   4.108   4.437   9.816 -0.4591 -0.3674  0.6540
   41CHL1    C6 5449   4.121   4.316   9.755  0.2157  0.5107  0.6597
   41CHL1    H6 5450   4.167   4.234   9.812  3.2395  1.0432 -0.7999
   41CHL1    C7 5451   4.088   4.285   9.612 -0.2263  0.1442  0.0827
   41CHL1   H7A 5452   4.176   4.240   9.562 -2.2141 -1.3550 -2.3507
   41CHL1   H7B 5453   4.005   4.213   9.596 -1.2836  1.3879 -0.3152
   41CHL1    C8 5454   4.053   4.414   9.540  0.5340  0.1342  0.2584
   41CHL1    H8 5455   4.150   4.457   9.509  0.9003 -0.1223  1.0065
   41CHL1   C14 5456   3.966   4.370   9.423  0.8849 -0.4615 -0.1640
   41CHL1   H14 5457   3.866   4.334   9.455  0.1146  2.7536  1.4566
   41CHL1   C15 5458   4.025   4.252   9.340  0.4913  0.7327 -0.1890
   41CHL1  H15A 5459   4.136   4.255   9.348  0.6171 -0.4261 -1.2070
   41CHL1  H15B 5460   3.984   4.154   9.373  1.2476  0.2199 -0.7403
   41CHL1   C16 5461   3.971   4.277   9.198 -0.6352  0.7304  0.2447
   41CHL1  H16A 5462   4.052   4.281   9.122  1.3214  2.3289  2.2872
   41CHL1  H16B 5463   3.901   4.197   9.164  0.2816  0.1757 -0.4163
   41CHL1   C17 5464   3.885   4.404   9.203 -0.1573 -0.0856  0.4605
   41CHL1   H17 5465   3.781   4.370   9.224 -1.3910  1.3060 -2.7520
   41CHL1   C13 5466   3.937   4.489   9.325  0.2966  0.5848  0.3823
   41CHL1   C18 5467   4.067   4.563   9.285  0.4683  0.1695  0.3905
   41CHL1  H18A 5468   4.038   4.651   9.224  2.0908  0.0136 -0.6748
   41CHL1  H18B 5469   4.125   4.601   9.373  1.8453 -0.3940 -0.2379
   41CHL1  H18C 5470   4.131   4.497   9.223 -0.2441  0.6455 -0.8685
   41CHL1   C12 5471   3.842   4.589   9.395 -0.1035 -0.1945  0.3382
   41CHL1  H12A 5472   3.808   4.676   9.335 -1.7273 -1.1503 -0.2020
   41CHL1  H12B 5473   3.754   4.528   9.425 -0.3696  0.8628  1.8002
   41CHL1   C11 5474   3.917   4.632   9.532  1.1210  0.0953 -0.0596
   41CHL1  H11A 5475   3.998   4.706   9.510  1.2296  0.5347  1.6289
   41CHL1  H11B 5476   3.842   4.688   9.591 -0.1816  0.2116 -1.7761
   41CHL1    C9 5477   3.967   4.517   9.618 -0.7229  0.9822 -0.2403
   41CHL1    H9 5478   3.878   4.457   9.649 -1.5761  0.4959 -3.3501
   41CHL1   C10 5479   4.039   4.563   9.747 -0.8309 -0.7752  0.5240
   41CHL1   C19 5480   4.157   4.655   9.711 -0.5189 -0.6370  0.4251
   41CHL1  H19A 5481   4.204   4.694   9.805 -0.0389 -1.2848  0.4584
   41CHL1  H19B 5482   4.240   4.604   9.657 -0.2109  1.0484 -0.7840
   41CHL1  H19C 5483   4.127   4.738   9.644 -0.0998  1.0822  2.2366
   41CHL1    C1 5484   3.942   4.637   9.842  0.3646 -0.3618  0.2184
   41CHL1   H1A 5485   3.932   4.737   9.794  0.1062 -0.4433  0.1066
   41CHL1   H1B 5486   3.847   4.581   9.832  0.5422 -0.4048 -1.5662
   41CHL1    C2 5487   3.990   4.659   9.982  0.1649  0.2241 -0.3165
   41CHL1   H2A 5488   3.911   4.690  10.053 -0.8958 -2.4752 -0.1927
   41CHL1   H2B 5489   4.068   4.737   9.991  0.4441 -0.2802  2.5242
   41CHL1   C20 5490   3.881   4.473   9.066 -0.6812  0.5548  0.1253
   41CHL1   H20 5491   3.981   4.510   9.037  0.1990 -1.3933  0.5354
   41CHL1   C21 5492   3.769   4.576   9.065  0.1431 -0.1426 -0.5401
   41CHL1  H21A 5493   3.755   4.621   8.964  0.9273  0.6492 -0.3173
   41CHL1  H21B 5494   3.794   4.665   9.127 -1.8662  0.2851 -0.2779
   41CHL1  H21C 5495   3.675   4.529   9.099  0.0631 -0.1291 -0.7431
   41CHL1   C22 5496   3.860   4.372   8.947 -0.3067 -0.2711 -0.7994
   41CHL1  H22A 5497   3.873   4.424   8.850 -1.5870 -0.9472 -1.3660
   41CHL1  H22B 5498   3.939   4.296   8.957 -1.0017 -0.8913  0.2515
   41CHL1   C23 5499   3.720   4.295   8.941  0.2507  0.2716 -0.0787
   41CHL1  H23A 5500   3.678   4.254   9.035  1.1906  0.2684  0.3476
   41CHL1  H23B 5501   3.656   4.382   8.914 -0.0141  0.0039 -0.3265
   41CHL1   C24 5502   3.709   4.188   8.830  0.0383  0.1327  0.3920
   41CHL1  H24A 5503   3.693   4.233   8.730  2.6165  0.4144  0.0541
   41CHL1  H24B 5504   3.796   4.120   8.831  1.4216  1.8196  0.1469
   41CHL1   C25 5505   3.576   4.104   8.864  0.1132 -0.8003 -0.4881
   41CHL1   H25 5506   3.584   4.076   8.971 -3.1444  0.9649  0.3301
   41CHL1   C26 5507   3.461   4.190   8.847  0.3885 -0.2066 -0.5471
   41CHL1  H26A 5508   3.455   4.276   8.917 -1.6929 -0.2840 -0.5482
   41CHL1  H26B 5509   3.460   4.224   8.742  1.1878 -0.5855 -0.6792
   41CHL1  H26C 5510   3.369   4.127   8.849  0.3317 -0.1570 -1.3674
   41CHL1   C27 5511   3.576   3.978   8.779  0.3504  0.4474 -0.2803
   41CHL1  H27A 5512   3.671   3.925   8.798  0.6478  0.6526 -1.1414
   41CHL1  H27B 5513   3.483   3.921   8.800  0.3394  0.1715 -1.0514
   41CHL1  H27C 5514   3.570   4.013   8.673 -0.8700  1.0904 -0.0299
   42CHL1    C3 5515   2.220   2.432   9.789 -0.1381  0.7619 -0.3053
   42CHL1    H3 5516   2.124   2.469   9.746 -2.0335 -0.1368  2.8368
   42CHL1    O3 5517   2.194   2.375   9.915  0.0716 -0.1445 -0.0775
   42CHL1   H3' 5518   2.282   2.359   9.949 -0.7962  1.6272  3.5795
   42CHL1    C4 5519   2.273   2.318   9.696  0.1073 -0.4636  1.0048
   42CHL1   H4A 5520   2.362   2.265   9.735  1.0719  1.5949  1.7247
   42CHL1   H4B 5521   2.194   2.245   9.671  1.0655 -1.2648  0.2676
   42CHL1    C5 5522   2.333   2.380   9.564  0.2328  0.2709 -0.5902
   42CHL1    C6 5523   2.278   2.343   9.443 -0.7699  0.0195 -0.2817
   42CHL1    H6 5524   2.206   2.260   9.436  1.8297 -2.3307 -1.4116
   42CHL1    C7 5525   2.327   2.400   9.313 -0.9764  0.1283  0.3406
   42CHL1   H7A 5526   2.333   2.331   9.226  0.3571 -1.3336  1.5249
   42CHL1   H7B 5527   2.246   2.472   9.291  0.3610  2.4486  2.4733
   42CHL1    C8 5528   2.453   2.488   9.325  0.3666 -0.2178  0.1601
   42CHL1    H8 5529   2.547   2.429   9.333 -0.8717 -2.0196  3.0948
   42CHL1   C14 5530   2.467   2.581   9.195 -0.0992  0.1448  0.3862
   42CHL1   H14 5531   2.383   2.651   9.214 -1.8965 -1.8443  0.0997
   42CHL1   C15 5532   2.444   2.516   9.060 -0.0144 -0.0478  0.7340
   42CHL1  H15A 5533   2.487   2.414   9.052  1.1562  0.1510  3.4848
   42CHL1  H15B 5534   2.333   2.518   9.048  0.2276  0.3305 -2.3334
   42CHL1   C16 5535   2.516   2.617   8.964  0.6432 -0.4474 -0.0290
   42CHL1  H16A 5536   2.607   2.566   8.927  1.5167 -0.3541  1.8700
   42CHL1  H16B 5537   2.452   2.666   8.888  1.0226 -0.9500 -0.6759
   42CHL1   C17 5538   2.567   2.727   9.062 -0.6519 -0.7612  0.5363
   42CHL1   H17 5539   2.478   2.787   9.092  0.2628  0.6394  0.5132
   42CHL1   C13 5540   2.593   2.662   9.193  0.0093 -0.2219  0.4424
   42CHL1   C18 5541   2.715   2.574   9.186 -0.0876  1.1326 -0.4076
   42CHL1  H18A 5542   2.739   2.507   9.270 -2.0741 -0.5608 -1.1185
   42CHL1  H18B 5543   2.710   2.513   9.093 -0.0426  1.4740 -0.6391
   42CHL1  H18C 5544   2.808   2.635   9.181 -0.7280  2.0558 -2.4452
   42CHL1   C12 5545   2.592   2.758   9.314  0.7004  0.2281  0.0927
   42CHL1  H12A 5546   2.686   2.817   9.311  2.1091 -1.9074 -0.3849
   42CHL1  H12B 5547   2.504   2.825   9.310 -1.8535 -2.9193 -0.8334
   42CHL1   C11 5548   2.575   2.684   9.449 -0.2603  0.6544  0.3492
   42CHL1  H11A 5549   2.675   2.642   9.475 -0.1062 -0.1062 -1.3187
   42CHL1  H11B 5550   2.546   2.752   9.531  1.1538 -0.3356  1.7350
   42CHL1    C9 5551   2.453   2.568   9.449  0.3657 -0.5117  0.1040
   42CHL1    H9 5552   2.365   2.636   9.442  2.5358  2.5770  0.6798
   42CHL1   C10 5553   2.430   2.493   9.576  1.1898  0.0436  0.3485
   42CHL1   C19 5554   2.569   2.432   9.618  0.0253 -0.1281 -0.0050
   42CHL1  H19A 5555   2.621   2.380   9.535  0.7666  0.1829  0.2588
   42CHL1  H19B 5556   2.648   2.505   9.649  1.6899 -0.8320 -2.3379
   42CHL1  H19C 5557   2.563   2.355   9.698  0.2434  1.1188  1.2529
   42CHL1    C1 5558   2.381   2.595   9.677 -0.6550  0.0074 -0.1561
   42CHL1   H1A 5559   2.465   2.666   9.690 -1.2113  0.6657 -0.1531
   42CHL1   H1B 5560   2.302   2.662   9.639  0.5351  1.8690  0.5258
   42CHL1    C2 5561   2.330   2.535   9.810 -0.0256  0.0618 -0.0332
   42CHL1   H2A 5562   2.292   2.613   9.880 -1.8999 -2.2747  1.7248
   42CHL1   H2B 5563   2.422   2.487   9.851  1.5815  0.7513 -2.6178
   42CHL1   C20 5564   2.671   2.833   9.004 -0.1217  0.1321  0.0489
   42CHL1   H20 5565   2.720   2.884   9.089 -1.5443  0.4253  0.7093
   42CHL1   C21 5566   2.578   2.937   8.936 -0.1011  0.0960 -0.0677
   42CHL1  H21A 5567   2.537   2.897   8.841 -0.9462 -1.4386  0.9051
   42CHL1  H21B 5568   2.625   3.035   8.910  1.3774 -0.0486  1.8170
   42CHL1  H21C 5569   2.496   2.965   9.006  0.2812 -0.1121  0.4719
   42CHL1   C22 5570   2.779   2.789   8.909  0.1868  0.1729 -0.1088
   42CHL1  H22A 5571   2.826   2.708   8.968 -2.5857 -0.5172  1.2898
   42CHL1  H22B 5572   2.743   2.748   8.812 -0.3790 -0.5648  0.4052
   42CHL1   C23 5573   2.879   2.901   8.876 -0.3244  0.5283 -0.2184
   42CHL1  H23A 5574   2.817   2.986   8.840 -0.9285  0.3373  0.3542
   42CHL1  H23B 5575   2.929   2.936   8.969 -2.8949 -0.9986  1.8726
   42CHL1   C24 5576   2.985   2.850   8.775 -0.1419 -0.5434 -0.1244
   42CHL1  H24A 5577   3.033   2.766   8.829 -1.0021 -1.1256 -0.2555
   42CHL1  H24B 5578   2.936   2.827   8.678 -0.7736  1.3803 -0.3173
   42CHL1   C25 5579   3.098   2.947   8.748 -1.0802 -0.2124 -0.3061
   42CHL1   H25 5580   3.151   2.967   8.844  2.0342  0.2426 -1.9603
   42CHL1   C26 5581   3.206   2.885   8.674  0.1238  0.1646  0.5882
   42CHL1  H26A 5582   3.224   2.780   8.706  1.0946  0.3708  0.7595
   42CHL1  H26B 5583   3.183   2.861   8.568  3.1920  1.4348 -0.4720
   42CHL1  H26C 5584   3.309   2.927   8.678 -0.2212  1.0738  0.0716
   42CHL1   C27 5585   3.063   3.073   8.682  0.5160 -0.3962 -0.0444
   42CHL1  H27A 5586   2.983   3.066   8.605  0.5890  0.1016 -0.1730
   42CHL1  H27B 5587   3.033   3.149   8.758  0.8740 -0.6051  0.3100
   42CHL1  H27C 5588   3.152   3.126   8.639  0.8405 -0.9002 -0.0070
   43CHL1    C3 5589   4.258   3.982   9.972 -0.0697 -0.2112  0.3388
   43CHL1    H3 5590   4.221   4.084   9.950  2.0728  0.6016  0.3003
   43CHL1    O3 5591   4.245   3.952  10.112 -0.0689  0.6465  0.5812
   43CHL1   H3' 5592   4.168   3.899  10.133  0.0379  0.4557  0.4940
   43CHL1    C4 5593   4.193   3.867   9.884 -0.2266  0.2399  0.2698
   43CHL1   H4A 5594   4.243   3.774   9.918  4.0917  2.6947  1.3931
   43CHL1   H4B 5595   4.087   3.858   9.915 -1.1501 -1.5613 -2.9779
   43CHL1    C5 5596   4.204   3.872   9.736 -0.6580 -0.4948  0.4450
   43CHL1    C6 5597   4.097   3.868   9.654  0.5156  0.2382 -0.5946
   43CHL1    H6 5598   4.001   3.848   9.705 -0.1567  1.3765 -1.3756
   43CHL1    C7 5599   4.093   3.892   9.509 -0.8944 -0.1107 -0.1471
   43CHL1   H7A 5600   4.025   3.817   9.463 -1.6441  0.2728  0.3297
   43CHL1   H7B 5601   4.060   3.996   9.489 -0.5227  0.1188  0.4128
   43CHL1    C8 5602   4.234   3.872   9.456 -0.3656  0.4478 -0.0191
   43CHL1    H8 5603   4.266   3.765   9.454 -0.7557  0.3367 -0.2581
   43CHL1   C14 5604   4.235   3.936   9.317  0.0560  0.5253  0.5238
   43CHL1   H14 5605   4.213   4.044   9.337  0.4879  0.7775 -0.3080
   43CHL1   C15 5606   4.119   3.904   9.219 -0.2763  0.2492 -0.4180
   43CHL1  H15A 5607   4.110   3.793   9.224 -0.2471  0.2105 -1.1330
   43CHL1  H15B 5608   4.025   3.961   9.238 -0.4415 -0.9349  3.2856
   43CHL1   C16 5609   4.179   3.932   9.079 -0.3782 -0.3963  0.6349
   43CHL1  H16A 5610   4.194   3.839   9.020  1.8084 -0.2735  0.8876
   43CHL1  H16B 5611   4.117   3.995   9.012  1.8323  0.1541 -1.0226
   43CHL1   C17 5612   4.325   3.985   9.104  0.3383 -0.1480  0.1507
   43CHL1   H17 5613   4.305   4.094   9.115  0.5187 -0.1009  0.0082
   43CHL1   C13 5614   4.357   3.925   9.243 -0.6551 -0.0516  0.3399
   43CHL1   C18 5615   4.408   3.778   9.220 -0.8827  0.1616 -0.2603
   43CHL1  H18A 5616   4.347   3.722   9.146 -1.2856  1.4359 -0.9299
   43CHL1  H18B 5617   4.512   3.770   9.181 -1.0417 -2.1204 -0.3302
   43CHL1  H18C 5618   4.413   3.721   9.315  1.0496  1.9204  0.7627
   43CHL1   C12 5619   4.461   4.016   9.319 -0.6359 -0.3276 -0.1802
   43CHL1  H12A 5620   4.561   4.019   9.270 -1.9417 -1.9515 -3.2055
   43CHL1  H12B 5621   4.416   4.117   9.325 -1.4340 -0.5551 -1.9380
   43CHL1   C11 5622   4.478   3.965   9.459 -0.1681  0.5168 -0.3447
   43CHL1  H11A 5623   4.539   3.872   9.452 -1.6094 -0.6204  1.2735
   43CHL1  H11B 5624   4.539   4.025   9.530 -0.9529  0.6868  0.1985
   43CHL1    C9 5625   4.338   3.952   9.537  0.4967  0.2771  0.9899
   43CHL1    H9 5626   4.299   4.055   9.543 -1.6710 -0.4131 -0.2905
   43CHL1   C10 5627   4.347   3.907   9.684  0.5168  0.3215  0.0362
   43CHL1   C19 5628   4.434   3.781   9.680  0.2687 -0.0472 -0.1791
   43CHL1  H19A 5629   4.542   3.790   9.655  0.7896  1.0273  2.2323
   43CHL1  H19B 5630   4.437   3.742   9.784 -0.4647 -0.4258 -0.2954
   43CHL1  H19C 5631   4.385   3.703   9.617 -1.5827 -0.4909  1.6875
   43CHL1    C1 5632   4.409   4.013   9.777  0.0603  0.1557  0.6221
   43CHL1   H1A 5633   4.514   4.026   9.744 -0.6414 -1.8342 -2.9792
   43CHL1   H1B 5634   4.352   4.107   9.760  1.9369  1.1839 -0.2792
   43CHL1    C2 5635   4.403   3.985   9.930 -0.4653  0.2406  0.1553
   43CHL1   H2A 5636   4.460   4.065   9.982  1.0449 -1.9220  2.0480
   43CHL1   H2B 5637   4.456   3.888   9.945  2.6708  1.5743 -1.3260
   43CHL1   C20 5638   4.417   3.965   8.985 -0.0288  0.0632 -0.2551
   43CHL1   H20 5639   4.436   3.858   8.963  0.9799 -0.5489  2.9917
   43CHL1   C21 5640   4.557   4.032   8.998  0.0470 -0.5156  0.0340
   43CHL1  H21A 5641   4.605   3.978   9.082  2.1233 -2.4754 -2.2440
   43CHL1  H21B 5642   4.552   4.136   9.036 -0.4324 -0.8579  0.9489
   43CHL1  H21C 5643   4.622   4.018   8.909 -0.5067  2.2138 -0.8835
   43CHL1   C22 5644   4.352   4.016   8.850  0.5596  0.2657 -0.1207
   43CHL1  H22A 5645   4.433   3.996   8.777  1.1661 -0.8875  0.8212
   43CHL1  H22B 5646   4.272   3.946   8.819  0.9809 -0.1023 -0.3813
   43CHL1   C23 5647   4.314   4.165   8.853 -0.2741  0.5508 -0.1755
   43CHL1  H23A 5648   4.225   4.185   8.917 -0.5960 -0.4649 -0.2759
   43CHL1  H23B 5649   4.397   4.213   8.907  1.3011  0.6941 -2.5908
   43CHL1   C24 5650   4.298   4.224   8.711  0.2499 -0.3902 -0.1443
   43CHL1  H24A 5651   4.402   4.214   8.671  0.5019 -2.5848  0.8927
   43CHL1  H24B 5652   4.230   4.162   8.649  0.6162  0.8822 -1.9039
   43CHL1   C25 5653   4.256   4.370   8.692 -0.1028  0.2271 -0.2389
   43CHL1   H25 5654   4.327   4.424   8.759 -0.2650  1.2554 -0.8767
   43CHL1   C26 5655   4.291   4.425   8.552 -0.0203  0.3011 -0.3844
   43CHL1  H26A 5656   4.225   4.373   8.480 -0.6341  1.7728 -0.9134
   43CHL1  H26B 5657   4.264   4.532   8.540  0.8677  0.4053 -1.7775
   43CHL1  H26C 5658   4.399   4.408   8.528  0.1113  0.6304 -0.0296
   43CHL1   C27 5659   4.108   4.391   8.730 -0.7651 -0.0790 -0.4833
   43CHL1  H27A 5660   4.100   4.501   8.720  2.8843  0.4036  0.3985
   43CHL1  H27B 5661   4.054   4.333   8.653 -0.6950  0.4317 -0.9184
   43CHL1  H27C 5662   4.082   4.362   8.835 -2.2050  2.0767 -0.1864
   44CHL1    C3 5663   4.519   4.827  10.240  0.8374  0.0487  0.5596
   44CHL1    H3 5664   4.552   4.722  10.220 -0.2506 -0.3310  0.7197
   44CHL1    O3 5665   4.511   4.846  10.380 -0.2210  0.2339  0.0820
   44CHL1   H3' 5666   4.549   4.934  10.381 -1.1773  0.6564 -0.5250
   44CHL1    C4 5667   4.620   4.934  10.202  0.4164  0.7486  0.1263
   44CHL1   H4A 5668   4.569   5.029  10.227 -2.4779 -0.9185  0.9297
   44CHL1   H4B 5669   4.717   4.925  10.256  0.0327  0.6641  0.8147
   44CHL1    C5 5670   4.631   4.933  10.047  0.6155  0.5904  0.2887
   44CHL1    C6 5671   4.749   4.912   9.986  0.3504  0.2644 -0.0328
   44CHL1    H6 5672   4.845   4.896  10.036 -0.3177 -2.0077  0.6233
   44CHL1    C7 5673   4.770   4.897   9.838  0.0385 -0.6542  0.0458
   44CHL1   H7A 5674   4.859   4.948   9.795 -1.4778  2.3740  0.1789
   44CHL1   H7B 5675   4.779   4.789   9.814 -1.7164 -0.8983  0.3097
   44CHL1    C8 5676   4.648   4.950   9.759  0.1628  0.6379 -0.2546
   44CHL1    H8 5677   4.643   5.061   9.762 -0.9653  0.5918  0.3300
   44CHL1   C14 5678   4.645   4.888   9.615 -0.5324 -0.0154  0.0910
   44CHL1   H14 5679   4.634   4.779   9.634 -0.9315  0.2752  1.7186
   44CHL1   C15 5680   4.777   4.884   9.531 -0.5872 -0.6097 -0.1373
   44CHL1  H15A 5681   4.828   4.983   9.538 -3.1994  0.9484 -1.6237
   44CHL1  H15B 5682   4.846   4.799   9.550 -0.1931 -0.4994 -1.0156
   44CHL1   C16 5683   4.728   4.867   9.390  0.6467  0.7562  0.4297
   44CHL1  H16A 5684   4.774   4.943   9.323 -0.3728  0.6471 -0.4068
   44CHL1  H16B 5685   4.756   4.773   9.338 -1.6703  0.6994 -0.8107
   44CHL1   C17 5686   4.569   4.863   9.393 -0.4444 -0.3028  0.4296
   44CHL1   H17 5687   4.539   4.761   9.425  0.6115 -0.5993  0.4856
   44CHL1   C13 5688   4.530   4.939   9.523  0.3941  0.2788  0.2626
   44CHL1   C18 5689   4.547   5.090   9.502  0.0301  0.2757 -0.4463
   44CHL1  H18A 5690   4.479   5.137   9.428  0.5057  0.9295 -0.4738
   44CHL1  H18B 5691   4.509   5.126   9.600  0.7077 -1.1974  0.3874
   44CHL1  H18C 5692   4.653   5.115   9.480  0.1799  0.0248 -0.0307
   44CHL1   C12 5693   4.399   4.891   9.588  0.0117  0.8068 -0.1321
   44CHL1  H12A 5694   4.312   4.931   9.531  0.2761  2.7679  0.7411
   44CHL1  H12B 5695   4.401   4.780   9.587  1.7975  0.7703  1.5756
   44CHL1   C11 5696   4.381   4.935   9.736  0.6998  0.5781 -0.2172
   44CHL1  H11A 5697   4.359   5.044   9.738  0.3115  0.4984  0.5327
   44CHL1  H11B 5698   4.296   4.883   9.785 -0.4455  1.7547 -0.8813
   44CHL1    C9 5699   4.513   4.901   9.817 -0.5857  0.1602 -0.4933
   44CHL1    H9 5700   4.520   4.791   9.819 -2.9873 -0.0418  0.5578
   44CHL1   C10 5701   4.499   4.938   9.965 -0.6711  0.6482  0.4504
   44CHL1   C19 5702   4.453   5.085   9.974  0.3378  0.2761 -0.3363
   44CHL1  H19A 5703   4.480   5.134  10.070 -0.8309 -2.3268  1.4393
   44CHL1  H19B 5704   4.503   5.156   9.904 -0.5481  2.2511  0.9450
   44CHL1  H19C 5705   4.343   5.088   9.985  0.5276  0.3545  2.5494
   44CHL1    C1 5706   4.395   4.850  10.030  0.3904 -0.0100  0.2496
   44CHL1   H1A 5707   4.293   4.862   9.987  0.0004 -3.4212 -0.1015
   44CHL1   H1B 5708   4.435   4.748  10.010  0.1080 -0.0318 -0.2258
   44CHL1    C2 5709   4.381   4.853  10.188  0.5354  0.0660  0.2058
   44CHL1   H2A 5710   4.308   4.777  10.224  0.7805  0.2960  1.2071
   44CHL1   H2B 5711   4.342   4.956  10.202  0.7142  0.5048 -2.0805
   44CHL1   C20 5712   4.493   4.904   9.265  0.6973 -0.2557 -0.7157
   44CHL1   H20 5713   4.427   4.987   9.294 -0.0749 -1.5926  1.5717
   44CHL1   C21 5714   4.407   4.787   9.222 -0.1101  0.1610 -0.4342
   44CHL1  H21A 5715   4.337   4.812   9.139 -1.0856  0.6700  0.5139
   44CHL1  H21B 5716   4.341   4.753   9.304  2.9428 -0.1445  2.0836
   44CHL1  H21C 5717   4.468   4.698   9.196  0.5347  0.5219 -0.1871
   44CHL1   C22 5718   4.587   4.959   9.153 -0.1212  0.1391 -0.1992
   44CHL1  H22A 5719   4.654   5.038   9.192  0.0278 -0.2488  0.3457
   44CHL1  H22B 5720   4.644   4.870   9.119 -0.7277 -0.5721  0.5768
   44CHL1   C23 5721   4.497   5.035   9.050  0.3107  1.3782  0.9215
   44CHL1  H23A 5722   4.438   4.953   9.004  2.8345 -0.8646  1.4507
   44CHL1  H23B 5723   4.432   5.112   9.096  0.7388  1.0824  2.0498
   44CHL1   C24 5724   4.585   5.097   8.942  0.0602  1.5067 -0.1063
   44CHL1  H24A 5725   4.678   5.134   8.991  1.0131  0.4825 -1.0846
   44CHL1  H24B 5726   4.612   5.016   8.871 -1.0173 -0.6580  1.8055
   44CHL1   C25 5727   4.510   5.213   8.871 -0.0111 -0.0750 -0.4821
   44CHL1   H25 5728   4.406   5.175   8.865 -0.5269  1.1930  0.0873
   44CHL1   C26 5729   4.521   5.347   8.949 -0.0953  1.0579  1.0165
   44CHL1  H26A 5730   4.630   5.366   8.962  0.4942  1.1353 -2.9072
   44CHL1  H26B 5731   4.466   5.429   8.898  1.3675  1.0666 -0.6513
   44CHL1  H26C 5732   4.477   5.334   9.050  0.0899  0.7187  1.0548
   44CHL1   C27 5733   4.576   5.221   8.728  0.0780 -0.2020 -0.3630
   44CHL1  H27A 5734   4.683   5.242   8.751  0.1252  0.1788 -0.9068
   44CHL1  H27B 5735   4.565   5.130   8.666 -0.8059  2.0587 -3.8372
   44CHL1  H27C 5736   4.531   5.304   8.669 -0.8378 -1.3622 -1.3625
   45CHL1    C3 5737   0.471   1.611  10.169  0.3980 -0.0583 -0.2519
   45CHL1    H3 5738   0.406   1.525  10.141  0.1942 -0.3137  0.9598
   45CHL1    O3 5739   0.495   1.611  10.306 -0.1950  0.1166 -0.4052
   45CHL1   H3' 5740   0.496   1.700  10.343 -2.0643  0.6809 -1.5787
   45CHL1    C4 5741   0.607   1.591  10.097 -0.1676  0.6235  0.1101
   45CHL1   H4A 5742   0.679   1.669  10.131 -0.5581  0.9195  0.2595
   45CHL1   H4B 5743   0.653   1.497  10.135 -1.9925 -1.6436 -2.7960
   45CHL1    C5 5744   0.589   1.596   9.940  0.0193 -0.4678 -0.8862
   45CHL1    C6 5745   0.616   1.490   9.865 -0.3156 -0.1742  0.3381
   45CHL1    H6 5746   0.661   1.401   9.910 -2.0659 -1.3727 -0.1750
   45CHL1    C7 5747   0.549   1.471   9.735 -0.7985  0.2456  0.3700
   45CHL1   H7A 5748   0.619   1.509   9.658 -0.1592  1.0749  1.3275
   45CHL1   H7B 5749   0.529   1.365   9.711 -1.3670  0.9812 -2.8653
   45CHL1    C8 5750   0.415   1.565   9.711 -0.7335 -0.1352 -0.5840
   45CHL1    H8 5751   0.346   1.522   9.787 -0.1640 -0.5204 -0.2845
   45CHL1   C14 5752   0.351   1.547   9.565 -0.0200 -0.6545  0.0201
   45CHL1   H14 5753   0.392   1.447   9.538 -0.2847 -0.9343  0.6298
   45CHL1   C15 5754   0.198   1.548   9.561 -0.0461  0.0895 -0.0748
   45CHL1  H15A 5755   0.153   1.462   9.615 -0.2581 -0.5842 -1.2863
   45CHL1  H15B 5756   0.152   1.641   9.601  1.4382  0.0626  1.8286
   45CHL1   C16 5757   0.181   1.547   9.412  0.0967  0.1263  0.2688
   45CHL1  H16A 5758   0.209   1.448   9.371  0.4974  0.1998  0.3644
   45CHL1  H16B 5759   0.078   1.584   9.391 -0.1421 -0.0027  1.1625
   45CHL1   C17 5760   0.282   1.650   9.354 -0.6367  0.1429 -0.4316
   45CHL1   H17 5761   0.240   1.753   9.360 -1.2063  0.1161 -2.6885
   45CHL1   C13 5762   0.409   1.635   9.450  0.1928 -0.5819 -0.5551
   45CHL1   C18 5763   0.527   1.558   9.396 -0.1703 -0.4077  0.3757
   45CHL1  H18A 5764   0.495   1.459   9.358 -0.0005 -0.1330 -0.5016
   45CHL1  H18B 5765   0.559   1.618   9.308 -0.4548  1.6483  1.5847
   45CHL1  H18C 5766   0.610   1.558   9.469 -0.9072 -0.3318  1.2265
   45CHL1   C12 5767   0.456   1.780   9.495  0.1557 -0.1390  0.3459
   45CHL1  H12A 5768   0.515   1.842   9.424 -0.1318 -0.1044  0.1351
   45CHL1  H12B 5769   0.367   1.840   9.523  1.6195  0.8236  3.3422
   45CHL1   C11 5770   0.545   1.766   9.626 -0.4131 -0.0024 -0.1757
   45CHL1  H11A 5771   0.636   1.707   9.603 -0.3930  0.2188 -0.6845
   45CHL1  H11B 5772   0.582   1.871   9.631  1.1131 -0.0313 -5.3060
   45CHL1    C9 5773   0.462   1.709   9.741  0.5687 -0.0702 -0.6680
   45CHL1    H9 5774   0.360   1.753   9.734  0.5725 -0.1004 -0.9156
   45CHL1   C10 5775   0.514   1.718   9.886 -0.2790  0.6081  0.3532
   45CHL1   C19 5776   0.607   1.848   9.903 -0.8543 -0.3130 -0.0014
   45CHL1  H19A 5777   0.634   1.866  10.009 -1.1812  0.0417  0.0224
   45CHL1  H19B 5778   0.698   1.846   9.841 -2.5758 -0.2728 -2.6896
   45CHL1  H19C 5779   0.547   1.934   9.867  2.5413  1.4831 -1.8282
   45CHL1    C1 5780   0.392   1.745   9.979  0.0170 -0.0283 -0.1706
   45CHL1   H1A 5781   0.348   1.844   9.953 -0.4643  0.1608  1.2801
   45CHL1   H1B 5782   0.318   1.665   9.957  0.6691 -0.3662 -1.2335
   45CHL1    C2 5783   0.417   1.746  10.131 -0.0285 -0.1778  0.2747
   45CHL1   H2A 5784   0.324   1.769  10.188 -0.1637 -0.3652  0.1332
   45CHL1   H2B 5785   0.488   1.830  10.151  0.9010 -0.7492 -0.5374
   45CHL1   C20 5786   0.307   1.640   9.200  0.3013 -0.5250  0.1839
   45CHL1   H20 5787   0.399   1.584   9.172 -0.1081 -0.9966 -0.2256
   45CHL1   C21 5788   0.335   1.785   9.139  0.0225  0.5404 -0.0954
   45CHL1  H21A 5789   0.368   1.786   9.033  1.8826  0.3269  0.4430
   45CHL1  H21B 5790   0.409   1.837   9.203  1.7975 -1.7081 -0.1938
   45CHL1  H21C 5791   0.239   1.839   9.143 -1.4648 -1.9782  2.7786
   45CHL1   C22 5792   0.190   1.575   9.126  0.8866 -0.8320 -0.6731
   45CHL1  H22A 5793   0.175   1.477   9.175 -0.8939 -0.5516 -0.5881
   45CHL1  H22B 5794   0.100   1.641   9.131  1.0830 -0.6005 -0.0825
   45CHL1   C23 5795   0.217   1.563   8.971 -0.0989  0.5071 -0.0842
   45CHL1  H23A 5796   0.201   1.661   8.921 -2.1965 -0.1525 -0.7911
   45CHL1  H23B 5797   0.318   1.517   8.960 -0.5277 -0.8101  1.1007
   45CHL1   C24 5798   0.123   1.472   8.896 -0.1120 -0.2840 -0.4685
   45CHL1  H24A 5799   0.133   1.366   8.928  0.4935  0.0474  0.4642
   45CHL1  H24B 5800   0.021   1.511   8.913  0.0077  0.0170 -0.4400
   45CHL1   C25 5801   0.137   1.458   8.741  0.1608  0.2877 -0.3595
   45CHL1   H25 5802   0.058   1.385   8.712 -0.2915  0.7970 -0.4343
   45CHL1   C26 5803   0.099   1.594   8.671  0.2238  0.1507  0.0346
   45CHL1  H26A 5804   0.089   1.581   8.561 -0.1917 -0.5101  0.1433
   45CHL1  H26B 5805  -0.004   1.615   8.707  0.3107 -1.2760  1.2079
   45CHL1  H26C 5806   0.159   1.678   8.712  1.5571  0.3105 -2.0902
   45CHL1   C27 5807   0.278   1.413   8.704 -0.4497  0.1633  0.3438
   45CHL1  H27A 5808   0.306   1.311   8.739 -1.0411 -0.6005 -1.3197
   45CHL1  H27B 5809   0.294   1.428   8.596 -0.1490  0.5851  0.4439
   45CHL1  H27C 5810   0.345   1.490   8.748  0.6477  0.7739 -2.2338
   46CHL1    C3 5811   2.321   5.150  10.142  0.1855  0.1876  0.5134
   46CHL1    H3 5812   2.307   5.048  10.101  1.7446 -0.0379  0.4819
   46CHL1    O3 5813   2.306   5.136  10.277 -0.1449  0.4795 -0.0116
   46CHL1   H3' 5814   2.365   5.205  10.308 -0.0574  1.1699 -1.6536
   46CHL1    C4 5815   2.469   5.190  10.116 -0.3398  0.1194 -0.1483
   46CHL1   H4A 5816   2.492   5.288  10.162  1.4026 -2.0898  4.3817
   46CHL1   H4B 5817   2.530   5.112  10.168 -2.5361 -1.3273  0.4193
   46CHL1    C5 5818   2.494   5.202   9.966  0.0169  0.5845  0.9049
   46CHL1    C6 5819   2.594   5.128   9.913 -0.2945  0.4921 -0.1666
   46CHL1    H6 5820   2.664   5.080   9.984  0.0395  1.9983  0.5591
   46CHL1    C7 5821   2.635   5.124   9.769 -0.0229  0.2699  0.8794
   46CHL1   H7A 5822   2.745   5.130   9.753  0.2050 -2.0113  1.3129
   46CHL1   H7B 5823   2.599   5.030   9.724 -3.7156  1.7512  0.4228
   46CHL1    C8 5824   2.566   5.240   9.688 -0.2254  0.0480 -0.0186
   46CHL1    H8 5825   2.614   5.335   9.718 -1.5096  1.3818 -1.9601
   46CHL1   C14 5826   2.572   5.225   9.538 -0.2676  0.1089  0.1679
   46CHL1   H14 5827   2.522   5.129   9.512  1.0138 -1.2457  2.2831
   46CHL1   C15 5828   2.709   5.219   9.478  0.3662 -0.1892  0.4101
   46CHL1  H15A 5829   2.772   5.303   9.512  0.8701 -0.2051 -0.4437
   46CHL1  H15B 5830   2.763   5.125   9.504 -1.4289 -1.2471  0.4473
   46CHL1   C16 5831   2.687   5.233   9.323 -0.4893  0.4250  0.2993
   46CHL1  H16A 5832   2.764   5.304   9.286  0.4507  0.2073  1.7541
   46CHL1  H16B 5833   2.711   5.137   9.272 -2.4550  0.3934 -0.6544
   46CHL1   C17 5834   2.544   5.278   9.310  0.1902 -0.2084  0.7453
   46CHL1   H17 5835   2.482   5.188   9.290 -1.2753  1.2187 -1.7094
   46CHL1   C13 5836   2.503   5.335   9.451 -0.6776  1.0863  0.0060
   46CHL1   C18 5837   2.555   5.481   9.471  0.4431  0.0329  0.6724
   46CHL1  H18A 5838   2.664   5.477   9.447 -0.0108 -2.7175 -1.4175
   46CHL1  H18B 5839   2.505   5.559   9.411  2.9465  0.0206 -1.6059
   46CHL1  H18C 5840   2.555   5.515   9.577  0.4832 -0.8040  0.9485
   46CHL1   C12 5841   2.354   5.326   9.486 -0.9151 -0.1867  0.2757
   46CHL1  H12A 5842   2.298   5.403   9.429  0.5026  0.1871 -0.6722
   46CHL1  H12B 5843   2.317   5.225   9.456  0.8686 -0.0265 -3.0462
   46CHL1   C11 5844   2.342   5.353   9.637  0.3096 -0.3191 -0.1270
   46CHL1  H11A 5845   2.358   5.462   9.652  1.1669  0.0503 -3.1621
   46CHL1  H11B 5846   2.233   5.340   9.655 -0.2298  0.7128 -2.3458
   46CHL1    C9 5847   2.420   5.254   9.731 -0.1006 -1.1552  0.7485
   46CHL1    H9 5848   2.372   5.157   9.709 -4.4904  1.3384 -2.4941
   46CHL1   C10 5849   2.401   5.289   9.880  0.7163 -0.7010 -0.5539
   46CHL1   C19 5850   2.441   5.434   9.911  0.0680 -0.4428  0.3922
   46CHL1  H19A 5851   2.376   5.509   9.861  1.3874  1.1457  0.9648
   46CHL1  H19B 5852   2.457   5.466  10.016  0.9771 -1.2535  0.5130
   46CHL1  H19C 5853   2.542   5.457   9.870  0.5534 -1.5875  0.9200
   46CHL1    C1 5854   2.249   5.261   9.925 -0.1360 -0.5580  0.2350
   46CHL1   H1A 5855   2.177   5.330   9.877 -1.1166 -0.7690  1.3494
   46CHL1   H1B 5856   2.216   5.160   9.891 -0.2738 -0.5906  0.4631
   46CHL1    C2 5857   2.234   5.260  10.082 -0.1966  0.3105 -0.0397
   46CHL1   H2A 5858   2.128   5.234  10.104 -0.1201 -0.2994 -0.3804
   46CHL1   H2B 5859   2.256   5.358  10.129 -0.9244  0.9933 -1.0963
   46CHL1   C20 5860   2.525   5.360   9.182  0.1135 -0.2455  0.0238
   46CHL1   H20 5861   2.553   5.467   9.193 -1.6488  0.4610 -1.7055
   46CHL1   C21 5862   2.372   5.354   9.144 -0.7313  0.3896  0.6751
   46CHL1  H21A 5863   2.323   5.382   9.239 -1.9206 -1.1144  0.5348
   46CHL1  H21B 5864   2.366   5.248   9.112  2.1814  1.2195 -3.4846
   46CHL1  H21C 5865   2.348   5.421   9.059 -1.9702  0.0849  0.7704
   46CHL1   C22 5866   2.615   5.317   9.054  0.1349  0.6302  0.7073
   46CHL1  H22A 5867   2.716   5.361   9.067 -0.0916  1.1883  0.6149
   46CHL1  H22B 5868   2.634   5.208   9.069  2.7416  1.1484  1.6805
   46CHL1   C23 5869   2.560   5.345   8.917 -0.4680 -0.2283  0.4516
   46CHL1  H23A 5870   2.468   5.289   8.890 -0.5095  0.5016 -1.0123
   46CHL1  H23B 5871   2.541   5.453   8.898 -1.7058 -0.5649 -0.2865
   46CHL1   C24 5872   2.671   5.332   8.806 -0.0042  0.0036  0.1021
   46CHL1  H24A 5873   2.746   5.412   8.822 -1.3323  1.7426 -1.8424
   46CHL1  H24B 5874   2.715   5.230   8.810 -0.7825 -0.3717 -0.4269
   46CHL1   C25 5875   2.617   5.350   8.667 -0.2801 -0.5052  0.2634
   46CHL1   H25 5876   2.557   5.443   8.662 -2.0317 -1.6152 -0.2564
   46CHL1   C26 5877   2.727   5.379   8.561  0.2193  0.8809 -0.0280
   46CHL1  H26A 5878   2.665   5.412   8.475 -1.7241  0.4050  1.1231
   46CHL1  H26B 5879   2.786   5.469   8.590 -0.0303  0.9776  0.1867
   46CHL1  H26C 5880   2.797   5.295   8.541  0.1307  1.0552 -1.1264
   46CHL1   C27 5881   2.531   5.238   8.612 -0.2540  0.7098 -0.4016
   46CHL1  H27A 5882   2.456   5.209   8.688  1.3714 -2.7221  0.0863
   46CHL1  H27B 5883   2.493   5.267   8.511 -2.6161  2.4915  0.8976
   46CHL1  H27C 5884   2.592   5.145   8.608 -0.1592  0.7506  0.0426
   47CHL1    C3 5885   5.796   3.660  10.034 -0.0672  0.7681  0.2708
   47CHL1    H3 5886   5.691   3.678  10.004 -0.1389  0.7994  0.5340
   47CHL1    O3 5887   5.793   3.644  10.173  1.0565 -0.5226 -0.1579
   47CHL1   H3' 5888   5.854   3.710  10.206 -1.5482  1.4746  1.0758
   47CHL1    C4 5889   5.860   3.541   9.965  0.1604 -0.3864  0.0402
   47CHL1   H4A 5890   5.953   3.521  10.021 -0.6996 -0.7036  1.4077
   47CHL1   H4B 5891   5.796   3.452   9.983 -0.2120 -0.2696 -0.6909
   47CHL1    C5 5892   5.869   3.569   9.815  0.0302  0.0138 -0.4940
   47CHL1    C6 5893   5.823   3.485   9.721 -0.4428  0.3780 -0.7604
   47CHL1    H6 5894   5.775   3.393   9.756  1.8996 -1.4875 -2.2106
   47CHL1    C7 5895   5.852   3.491   9.571 -0.9085  0.2915 -0.5742
   47CHL1   H7A 5896   5.887   3.397   9.524  0.7686 -0.0840  1.3042
   47CHL1   H7B 5897   5.772   3.535   9.508 -1.3501  0.4883  0.1101
   47CHL1    C8 5898   5.975   3.584   9.543 -0.0819 -0.1116 -0.1942
   47CHL1    H8 5899   6.072   3.537   9.568  0.0987  1.9473  3.7440
   47CHL1   C14 5900   5.974   3.613   9.394 -0.3022  0.6330 -0.8914
   47CHL1   H14 5901   5.879   3.669   9.385 -0.1366  1.1411  0.2809
   47CHL1   C15 5902   5.970   3.491   9.307  0.0350 -0.2490 -0.7441
   47CHL1  H15A 5903   6.041   3.410   9.336  0.4462  0.8142  1.4405
   47CHL1  H15B 5904   5.871   3.440   9.313  0.8706 -1.8954 -0.3644
   47CHL1   C16 5905   5.996   3.547   9.167 -0.3545  0.1036  0.2500
   47CHL1  H16A 5906   6.067   3.495   9.100  0.5895 -1.1821  2.1761
   47CHL1  H16B 5907   5.892   3.557   9.128 -0.3880 -1.2574 -0.0435
   47CHL1   C17 5908   6.044   3.697   9.191 -0.5414 -0.1385 -0.3304
   47CHL1   H17 5909   5.959   3.768   9.184  0.9830  1.6064 -2.9680
   47CHL1   C13 5910   6.082   3.707   9.342  0.0232  0.2880  0.3702
   47CHL1   C18 5911   6.222   3.639   9.363 -0.0759 -0.0067 -0.4195
   47CHL1  H18A 5912   6.231   3.537   9.319  3.0257  0.0965 -0.2357
   47CHL1  H18B 5913   6.300   3.712   9.335  1.0362 -0.9071  0.2273
   47CHL1  H18C 5914   6.235   3.623   9.472 -0.0229 -1.3362 -0.6056
   47CHL1   C12 5915   6.074   3.840   9.407 -0.3149 -0.5528 -0.2891
   47CHL1  H12A 5916   6.169   3.899   9.405 -0.6083  0.0037  1.0758
   47CHL1  H12B 5917   6.001   3.911   9.363 -1.7474 -1.7065  0.1644
   47CHL1   C11 5918   6.054   3.819   9.564  0.1852 -0.2159  0.5424
   47CHL1  H11A 5919   6.159   3.808   9.597  0.3982  0.6668  0.2072
   47CHL1  H11B 5920   6.027   3.920   9.601 -0.2122 -0.8092  1.9096
   47CHL1    C9 5921   5.956   3.716   9.615  0.1516  0.0476 -0.3841
   47CHL1    H9 5922   5.855   3.755   9.591 -0.1527 -2.2841 -3.4865
   47CHL1   C10 5923   5.943   3.700   9.772 -0.6741  0.6526  0.2966
   47CHL1   C19 5924   6.085   3.666   9.819 -0.0383  0.0817 -0.3140
   47CHL1  H19A 5925   6.149   3.757   9.827 -2.8779  2.0293  3.0508
   47CHL1  H19B 5926   6.088   3.627   9.922  1.7117  0.1408 -0.3193
   47CHL1  H19C 5927   6.139   3.598   9.750 -0.9896  0.3567 -1.3603
   47CHL1    C1 5928   5.898   3.826   9.858 -0.0520  0.4299 -0.4011
   47CHL1   H1A 5929   5.973   3.906   9.841  0.4724 -0.0125 -0.1947
   47CHL1   H1B 5930   5.804   3.866   9.813 -1.0535 -1.1565  0.2083
   47CHL1    C2 5931   5.891   3.791  10.007  0.6733  0.0547  0.9734
   47CHL1   H2A 5932   5.845   3.873  10.066 -0.7464  0.5840 -0.7614
   47CHL1   H2B 5933   5.990   3.769  10.050  0.2373  0.6320  2.3482
   47CHL1   C20 5934   6.139   3.755   9.085 -0.3724  0.2981  0.2259
   47CHL1   H20 5935   6.236   3.700   9.093 -1.1705 -1.0969  0.7221
   47CHL1   C21 5936   6.179   3.898   9.109 -0.7785  0.4682  0.1393
   47CHL1  H21A 5937   6.103   3.973   9.079 -0.3922  1.1619  0.8451
   47CHL1  H21B 5938   6.260   3.928   9.039 -2.6432  1.5401 -1.6683
   47CHL1  H21C 5939   6.225   3.932   9.205 -0.6739  3.2618 -0.7902
   47CHL1   C22 5940   6.080   3.751   8.941  0.3403 -0.4097 -0.3844
   47CHL1  H22A 5941   6.023   3.657   8.929  0.1845 -0.6568  1.8030
   47CHL1  H22B 5942   6.019   3.844   8.945  1.3394  0.2204  1.3672
   47CHL1   C23 5943   6.187   3.778   8.830  0.8416  0.3935  0.1869
   47CHL1  H23A 5944   6.139   3.838   8.750 -1.6296  1.6241  2.4420
   47CHL1  H23B 5945   6.267   3.848   8.862  1.2782 -0.0329  0.0477
   47CHL1   C24 5946   6.253   3.647   8.781 -0.5364 -0.2550 -0.0683
   47CHL1  H24A 5947   6.337   3.671   8.713 -0.6932 -1.1548 -0.5996
   47CHL1  H24B 5948   6.301   3.601   8.870 -2.5509  1.3817  1.9953
   47CHL1   C25 5949   6.166   3.540   8.721  0.2390  0.0713  0.2636
   47CHL1   H25 5950   6.093   3.516   8.801  1.2801  0.1145  1.2379
   47CHL1   C26 5951   6.089   3.588   8.598 -0.3499 -0.5819 -0.5393
   47CHL1  H26A 5952   6.162   3.623   8.521  0.0744 -0.6923 -0.1943
   47CHL1  H26B 5953   6.015   3.667   8.621  1.2484  0.8433 -0.0499
   47CHL1  H26C 5954   6.012   3.513   8.571 -0.9978  0.1913 -0.8748
   47CHL1   C27 5955   6.256   3.415   8.699  0.1397 -0.2133  0.5501
   47CHL1  H27A 5956   6.302   3.387   8.796 -1.6517 -3.2816  0.6152
   47CHL1  H27B 5957   6.189   3.339   8.655  0.3114  0.2374 -0.5112
   47CHL1  H27C 5958   6.332   3.448   8.625 -1.3375 -0.4198 -1.1329
   48CHL1    C3 5959   6.528   3.271  10.254  0.5332  0.4340 -0.0993
   48CHL1    H3 5960   6.637   3.249  10.245  0.6808  0.1396  1.9254
   48CHL1    O3 5961   6.489   3.193  10.366  0.0864  0.0667  0.1313
   48CHL1   H3' 5962   6.401   3.159  10.346 -1.7868  3.4521  1.8173
   48CHL1    C4 5963   6.503   3.423  10.288 -0.2208 -0.1201 -0.1328
   48CHL1   H4A 5964   6.393   3.433  10.293 -0.1530  2.3324 -1.7101
   48CHL1   H4B 5965   6.558   3.438  10.384 -0.7913  4.1867 -0.2762
   48CHL1    C5 5966   6.548   3.521  10.175 -0.3385  0.6348  0.3330
   48CHL1    C6 5967   6.630   3.629  10.185  0.3712  0.2261  0.4290
   48CHL1    H6 5968   6.679   3.649  10.282  1.9135 -0.9863 -0.0552
   48CHL1    C7 5969   6.676   3.720  10.072  0.2774 -0.1438  0.5265
   48CHL1   H7A 5970   6.671   3.824  10.110 -1.9962 -0.0294  0.0853
   48CHL1   H7B 5971   6.780   3.703  10.039 -0.1164  0.0980 -0.9174
   48CHL1    C8 5972   6.592   3.706   9.942  0.2193  0.2537 -0.1225
   48CHL1    H8 5973   6.496   3.761   9.952 -0.5074 -0.5225 -2.2551
   48CHL1   C14 5974   6.671   3.752   9.820  0.2555 -0.8961  0.1139
   48CHL1   H14 5975   6.764   3.691   9.826  0.2118 -1.0226 -0.4448
   48CHL1   C15 5976   6.706   3.896   9.836  0.1298  0.0789  0.0424
   48CHL1  H15A 5977   6.625   3.968   9.858  1.7217  1.6714  0.9627
   48CHL1  H15B 5978   6.787   3.914   9.910  1.8237  2.5242 -2.2104
   48CHL1   C16 5979   6.760   3.930   9.697 -0.2160  0.3349 -0.6574
   48CHL1  H16A 5980   6.717   4.026   9.661 -0.4226 -0.0066 -1.3336
   48CHL1  H16B 5981   6.870   3.935   9.707 -0.0547 -2.2380 -0.6774
   48CHL1   C17 5982   6.720   3.815   9.602  0.5182  0.3139 -0.4578
   48CHL1   H17 5983   6.802   3.742   9.587  0.3698 -0.2064  1.0628
   48CHL1   C13 5984   6.610   3.736   9.681  0.0494 -0.0012  0.1758
   48CHL1   C18 5985   6.472   3.813   9.667  0.1724 -0.4348 -0.4002
   48CHL1  H18A 5986   6.437   3.794   9.563 -1.1932 -1.1502  0.1537
   48CHL1  H18B 5987   6.400   3.767   9.739 -2.1049  3.3253 -0.0120
   48CHL1  H18C 5988   6.485   3.920   9.692 -1.9705 -0.3681  0.6330
   48CHL1   C12 5989   6.596   3.585   9.664  0.7502  0.2201 -0.6469
   48CHL1  H12A 5990   6.572   3.558   9.559 -1.4800  1.1852 -0.4331
   48CHL1  H12B 5991   6.695   3.535   9.675 -0.0689 -1.0777  1.3071
   48CHL1   C11 5992   6.500   3.519   9.769  0.6855 -0.6388 -0.2481
   48CHL1  H11A 5993   6.394   3.552   9.760  0.9042 -0.2825 -2.0574
   48CHL1  H11B 5994   6.505   3.409   9.757 -0.9112 -0.9099  1.2972
   48CHL1    C9 5995   6.553   3.554   9.918  0.6532  0.3090 -0.9861
   48CHL1    H9 5996   6.654   3.508   9.910  0.9410  0.5333  0.9731
   48CHL1   C10 5997   6.485   3.480  10.036 -0.1827 -0.0430  0.4036
   48CHL1   C19 5998   6.335   3.524  10.024 -0.3212  0.6134  0.1001
   48CHL1  H19A 5999   6.285   3.471   9.940 -0.6349  1.8981 -0.5374
   48CHL1  H19B 6000   6.276   3.494  10.114  1.0233 -1.6763  0.3075
   48CHL1  H19C 6001   6.334   3.633  10.002 -0.9193  0.8766  1.3613
   48CHL1    C1 6002   6.500   3.330  10.015 -0.4249  0.1636 -0.2157
   48CHL1   H1A 6003   6.447   3.307   9.920 -2.6353  0.2244  0.9482
   48CHL1   H1B 6004   6.606   3.305   9.995 -0.7743  0.0240 -2.0331
   48CHL1    C2 6005   6.452   3.235  10.128  0.0451 -0.7815 -0.3605
   48CHL1   H2A 6006   6.475   3.128  10.106 -0.4233 -1.0550  0.4425
   48CHL1   H2B 6007   6.343   3.250  10.135  0.4728  3.2837 -0.2513
   48CHL1   C20 6008   6.696   3.877   9.462 -0.7423 -0.6925  0.1572
   48CHL1   H20 6009   6.612   3.948   9.476 -0.3828 -0.3452  0.5587
   48CHL1   C21 6010   6.640   3.762   9.368  0.2516  0.2229 -0.1057
   48CHL1  H21A 6011   6.589   3.795   9.276 -1.1506  0.8198  0.8498
   48CHL1  H21B 6012   6.561   3.711   9.428  0.2444 -0.5625 -0.7690
   48CHL1  H21C 6013   6.719   3.686   9.353  1.9130  2.1329 -1.5941
   48CHL1   C22 6014   6.822   3.936   9.390  0.7041  0.1117  0.1304
   48CHL1  H22A 6015   6.879   3.997   9.463 -0.4350 -0.4183  1.5107
   48CHL1  H22B 6016   6.896   3.860   9.357  1.3895  0.5694  0.5709
   48CHL1   C23 6017   6.786   4.005   9.252  0.1049  0.3535 -0.4622
   48CHL1  H23A 6018   6.741   3.941   9.173  0.8722  2.2305 -2.5260
   48CHL1  H23B 6019   6.715   4.088   9.268  0.6463  1.1204 -1.8911
   48CHL1   C24 6020   6.910   4.070   9.178  0.0297  0.2714  0.8778
   48CHL1  H24A 6021   6.951   4.141   9.253 -0.7932  0.4528  1.1609
   48CHL1  H24B 6022   6.987   3.992   9.157  1.1774  1.8838 -1.4178
   48CHL1   C25 6023   6.863   4.126   9.043 -0.1917 -0.9577 -0.0810
   48CHL1   H25 6024   6.754   4.106   9.036 -0.5550  0.6309  0.6094
   48CHL1   C26 6025   6.896   4.276   9.046  0.4344  0.4673  0.3477
   48CHL1  H26A 6026   6.858   4.322   8.952  0.4925  3.9082  1.8647
   48CHL1  H26B 6027   6.860   4.340   9.129  1.0414 -0.7036  1.5459
   48CHL1  H26C 6028   7.007   4.277   9.051  0.4372 -1.4398  1.8118
   48CHL1   C27 6029   6.927   4.063   8.920 -1.3033  0.1192 -0.5132
   48CHL1  H27A 6030   6.888   4.098   8.822 -0.0897 -0.6821 -1.3107
   48CHL1  H27B 6031   7.038   4.071   8.915 -1.1124  0.0241  2.0891
   48CHL1  H27C 6032   6.908   3.954   8.913  1.3472 -0.5176  0.7897
   49CHL1    C3 6033   2.081   5.792  10.220 -0.2558  0.4832  0.2001
   49CHL1    H3 6034   1.974   5.803  10.193  0.0102  0.8386 -0.7663
   49CHL1    O3 6035   2.112   5.777  10.357 -0.2535 -0.0968  0.0569
   49CHL1   H3' 6036   2.192   5.828  10.370 -0.2149  0.0010 -0.5231
   49CHL1    C4 6037   2.135   5.672  10.150 -0.6524  0.2193 -0.0149
   49CHL1   H4A 6038   2.244   5.659  10.167 -0.6656 -0.8598 -0.6591
   49CHL1   H4B 6039   2.094   5.576  10.187  1.5658 -0.0497  2.0143
   49CHL1    C5 6040   2.108   5.686  10.000 -0.0948  0.1947  0.5293
   49CHL1    C6 6041   2.042   5.592   9.938  0.6811  0.0465  0.8683
   49CHL1    H6 6042   2.002   5.505   9.993  0.1969 -0.9469 -0.9675
   49CHL1    C7 6043   2.011   5.590   9.792  0.2876 -0.0384 -0.1481
   49CHL1   H7A 6044   2.032   5.488   9.752 -1.7362 -0.1146 -1.1700
   49CHL1   H7B 6045   1.903   5.616   9.791  0.5302  0.9817 -0.7047
   49CHL1    C8 6046   2.106   5.688   9.719 -0.0042  0.5521  0.4977
   49CHL1    H8 6047   2.204   5.638   9.706 -1.8081 -3.1177 -0.4613
   49CHL1   C14 6048   2.052   5.710   9.581 -0.1180  0.1546  0.0671
   49CHL1   H14 6049   1.957   5.766   9.595  0.7608  1.4697  1.0859
   49CHL1   C15 6050   2.035   5.584   9.500  0.2862  0.6752 -0.4799
   49CHL1  H15A 6051   2.129   5.529   9.521 -0.5846 -0.4579  0.6022
   49CHL1  H15B 6052   1.948   5.519   9.522  0.1222  0.5797 -1.3643
   49CHL1   C16 6053   2.027   5.632   9.355 -0.0463  0.1397  0.6710
   49CHL1  H16A 6054   2.102   5.573   9.298 -1.1071 -1.2430  0.6737
   49CHL1  H16B 6055   1.930   5.609   9.306 -0.5807  2.1371  0.6998
   49CHL1   C17 6056   2.050   5.787   9.351 -0.2040  0.2048  0.1323
   49CHL1   H17 6057   1.949   5.833   9.360  0.8848  2.8783 -0.5117
   49CHL1   C13 6058   2.133   5.808   9.490 -0.1329 -0.5809  0.2547
   49CHL1   C18 6059   2.277   5.744   9.469 -0.2845  0.4469  0.1656
   49CHL1  H18A 6060   2.344   5.819   9.422  0.4110  0.4514  1.1381
   49CHL1  H18B 6061   2.340   5.721   9.558  0.4690 -0.0489 -0.4832
   49CHL1  H18C 6062   2.280   5.652   9.407  0.8421 -0.1575  1.0746
   49CHL1   C12 6063   2.140   5.947   9.556 -0.0469 -0.2416 -0.2547
   49CHL1  H12A 6064   2.211   6.014   9.503  1.5895  2.4599  4.6439
   49CHL1  H12B 6065   2.034   5.983   9.551 -0.7026 -2.1946 -1.5972
   49CHL1   C11 6066   2.189   5.940   9.703  0.3971  0.0359 -0.5386
   49CHL1  H11A 6067   2.296   5.911   9.691  0.7400  0.6780  0.7820
   49CHL1  H11B 6068   2.177   6.044   9.741 -2.6255  0.5470 -2.4872
   49CHL1    C9 6069   2.116   5.828   9.789  0.1345  0.4236  0.1696
   49CHL1    H9 6070   2.010   5.864   9.789  0.3834  1.1928  0.7831
   49CHL1   C10 6071   2.159   5.813   9.934 -0.4302  0.1533 -0.2789
   49CHL1   C19 6072   2.316   5.809   9.936  0.0305  0.1862 -0.1389
   49CHL1  H19A 6073   2.366   5.786  10.033  0.9580 -0.0910 -0.6676
   49CHL1  H19B 6074   2.351   5.736   9.860  0.8526 -0.9431  1.2507
   49CHL1  H19C 6075   2.336   5.914   9.907 -2.4549  0.5458 -0.8174
   49CHL1    C1 6076   2.106   5.933  10.012  0.4889 -0.1193  0.7158
   49CHL1   H1A 6077   2.142   6.029   9.970 -1.0852  0.1242 -0.1727
   49CHL1   H1B 6078   1.995   5.942  10.006  0.6790  1.4820 -1.6541
   49CHL1    C2 6079   2.132   5.921  10.163  0.3913  0.3179  0.3803
   49CHL1   H2A 6080   2.095   6.010  10.219  1.6153  0.7205  0.5823
   49CHL1   H2B 6081   2.242   5.919  10.177  0.6378 -0.8265 -1.4737
   49CHL1   C20 6082   2.116   5.833   9.223  0.3046  0.4201  0.5012
   49CHL1   H20 6083   2.205   5.771   9.198  0.9376  1.5213 -0.0194
   49CHL1   C21 6084   2.161   5.983   9.233 -0.5204  0.5019  0.7924
   49CHL1  H21A 6085   2.200   6.028   9.139  0.9894 -1.3051  0.4833
   49CHL1  H21B 6086   2.261   5.987   9.282  0.0988  0.3991 -0.4140
   49CHL1  H21C 6087   2.074   6.046   9.259  0.1248  2.1445 -0.7884
   49CHL1   C22 6088   2.009   5.803   9.105  0.0085 -0.5556 -0.2157
   49CHL1  H22A 6089   1.963   5.703   9.120  0.0505 -0.3084  1.8785
   49CHL1  H22B 6090   1.926   5.875   9.123  0.2623 -0.6650  1.5553
   49CHL1   C23 6091   2.065   5.824   8.965 -0.6025  0.3027 -0.9155
   49CHL1  H23A 6092   2.104   5.927   8.951 -0.2609  0.6691  2.1464
   49CHL1  H23B 6093   2.149   5.752   8.953  0.1970  0.8709  1.0249
   49CHL1   C24 6094   1.955   5.783   8.869  0.3280 -0.6181  0.0891
   49CHL1  H24A 6095   1.914   5.688   8.907 -3.5636 -0.2876 -2.7007
   49CHL1  H24B 6096   1.887   5.869   8.885  0.7932  0.0758 -1.4046
   49CHL1   C25 6097   1.997   5.780   8.717  0.2128  0.1640 -0.1023
   49CHL1   H25 6098   2.078   5.856   8.712  1.1042 -0.6607  1.1289
   49CHL1   C26 6099   2.044   5.640   8.669 -0.3058 -0.2355  1.0426
   49CHL1  H26A 6100   2.122   5.596   8.736  0.5980 -0.2159  0.0314
   49CHL1  H26B 6101   1.953   5.577   8.666  0.6145 -1.5663 -0.3216
   49CHL1  H26C 6102   2.095   5.640   8.570 -3.8288 -1.6492 -0.9236
   49CHL1   C27 6103   1.888   5.835   8.628  0.2534  0.0151 -0.2627
   49CHL1  H27A 6104   1.805   5.765   8.650 -1.4038  2.5421  2.0807
   49CHL1  H27B 6105   1.864   5.936   8.666  1.0111  0.0660  0.1213
   49CHL1  H27C 6106   1.913   5.834   8.520  1.5301  1.3087 -0.0113
   50CHL1    C3 6107   6.083   0.294  10.177 -0.0515 -0.5582 -0.1629
   50CHL1    H3 6108   6.128   0.396  10.172  0.4868 -0.7989 -0.3013
   50CHL1    O3 6109   6.110   0.235  10.303 -0.1868 -0.4022 -0.9118
   50CHL1   H3' 6110   6.023   0.209  10.336 -0.5240  0.9115 -0.7202
   50CHL1    C4 6111   5.932   0.322  10.149  0.1997  0.2345 -0.1811
   50CHL1   H4A 6112   5.879   0.224  10.149  1.5150 -0.4966  0.0625
   50CHL1   H4B 6113   5.892   0.384  10.232 -0.6141 -0.3238 -0.1415
   50CHL1    C5 6114   5.916   0.384  10.011 -0.8084  0.2443  0.2917
   50CHL1    C6 6115   5.865   0.506   9.997 -0.2483 -1.3827 -0.6337
   50CHL1    H6 6116   5.822   0.561  10.082  0.1225  0.7808 -1.7801
   50CHL1    C7 6117   5.851   0.579   9.867  0.4472 -0.4893  0.1196
   50CHL1   H7A 6118   5.748   0.618   9.857  0.5603  0.1063  1.1797
   50CHL1   H7B 6119   5.930   0.656   9.856  0.4845 -0.4658  0.5409
   50CHL1    C8 6120   5.861   0.478   9.748 -0.8636  0.0711 -0.2550
   50CHL1    H8 6121   5.770   0.413   9.746  0.7463 -2.3794  1.2107
   50CHL1   C14 6122   5.875   0.547   9.615  0.0481  0.1736  0.1237
   50CHL1   H14 6123   5.973   0.598   9.628  0.4202 -0.2794 -0.8021
   50CHL1   C15 6124   5.777   0.666   9.581  0.1042 -0.0462 -0.1529
   50CHL1  H15A 6125   5.671   0.658   9.614 -0.1109  1.3944 -0.4442
   50CHL1  H15B 6126   5.803   0.755   9.642  2.1214 -1.0733  0.5733
   50CHL1   C16 6127   5.777   0.679   9.425 -0.3319 -0.4701  0.4023
   50CHL1  H16A 6128   5.679   0.665   9.374 -0.3400 -1.0533  0.5690
   50CHL1  H16B 6129   5.820   0.776   9.393 -0.1543 -0.9553 -0.8821
   50CHL1   C17 6130   5.881   0.568   9.375  0.0312 -0.2285 -0.1400
   50CHL1   H17 6131   5.979   0.619   9.378 -1.0732  2.1581 -1.5822
   50CHL1   C13 6132   5.879   0.464   9.489 -0.5354 -0.1237  0.3345
   50CHL1   C18 6133   5.752   0.375   9.463  0.3479 -0.1977  0.0591
   50CHL1  H18A 6134   5.733   0.299   9.542 -0.4515  0.5015  0.5665
   50CHL1  H18B 6135   5.670   0.448   9.449  0.3870 -0.3380 -0.9872
   50CHL1  H18C 6136   5.759   0.313   9.371  1.3020  0.0438 -0.0459
   50CHL1   C12 6137   6.010   0.388   9.509 -0.0990  0.3692  0.2435
   50CHL1  H12A 6138   6.025   0.327   9.417 -1.0716 -0.1774  0.4330
   50CHL1  H12B 6139   6.091   0.461   9.529 -0.1162  0.4057  0.1756
   50CHL1   C11 6140   5.999   0.299   9.632 -0.1652  0.1904 -0.7455
   50CHL1  H11A 6141   5.933   0.211   9.616  0.3555 -0.1511 -1.0525
   50CHL1  H11B 6142   6.098   0.253   9.652  0.2460  1.5016  0.3858
   50CHL1    C9 6143   5.979   0.390   9.761  0.4535 -0.1489  0.3214
   50CHL1    H9 6144   6.069   0.454   9.764  0.2378  0.4453 -2.7557
   50CHL1   C10 6145   5.980   0.309   9.891  0.8633  0.3415 -0.2645
   50CHL1   C19 6146   5.890   0.186   9.871 -0.2016 -0.3165  0.8676
   50CHL1  H19A 6147   5.952   0.126   9.802 -0.2097 -0.0697  0.6422
   50CHL1  H19B 6148   5.883   0.114   9.955 -0.8576  0.9867  1.9743
   50CHL1  H19C 6149   5.790   0.214   9.830  0.9630  2.8147 -0.1260
   50CHL1    C1 6150   6.130   0.270   9.931 -0.4625  0.9802 -0.0804
   50CHL1   H1A 6151   6.172   0.213   9.846  0.0967  0.0969  0.7827
   50CHL1   H1B 6152   6.190   0.364   9.932  3.1759 -1.1177 -1.8766
   50CHL1    C2 6153   6.132   0.195  10.068  0.0439 -0.7707 -0.2776
   50CHL1   H2A 6154   6.237   0.163  10.084 -0.4878 -3.0562 -1.0144
   50CHL1   H2B 6155   6.066   0.106  10.069 -0.9591 -0.0481  1.1601
   50CHL1   C20 6156   5.849   0.538   9.224  0.2990 -0.4391 -0.0558
   50CHL1   H20 6157   5.744   0.502   9.209 -0.2613  1.5263 -1.2003
   50CHL1   C21 6158   5.939   0.425   9.172  0.1497  0.2984  0.0221
   50CHL1  H21A 6159   5.924   0.403   9.064  1.1230 -2.0717  0.3046
   50CHL1  H21B 6160   5.913   0.334   9.230  1.8210  0.0053  0.3603
   50CHL1  H21C 6161   6.045   0.454   9.186  0.1031  0.2060  0.6032
   50CHL1   C22 6162   5.855   0.663   9.128 -0.4301  0.1284  0.5229
   50CHL1  H22A 6163   5.833   0.758   9.180  1.9157  0.8638  0.2977
   50CHL1  H22B 6164   5.959   0.664   9.089 -0.4060  2.1115  0.5341
   50CHL1   C23 6165   5.761   0.652   9.011  0.3056 -0.3215 -0.1268
   50CHL1  H23A 6166   5.793   0.562   8.954  0.5716  0.3202 -1.0038
   50CHL1  H23B 6167   5.656   0.638   9.044  0.1483  1.3961  0.2071
   50CHL1   C24 6168   5.774   0.770   8.908 -0.4380 -0.1462 -0.4401
   50CHL1  H24A 6169   5.777   0.863   8.969  0.5670 -0.8661  0.6381
   50CHL1  H24B 6170   5.872   0.742   8.864  0.4405  0.8150  0.8214
   50CHL1   C25 6171   5.659   0.784   8.808 -0.3343 -0.3534 -0.2491
   50CHL1   H25 6172   5.568   0.799   8.870  0.1138 -1.1330  0.6166
   50CHL1   C26 6173   5.674   0.911   8.717 -0.0916 -0.0044 -0.2900
   50CHL1  H26A 6174   5.778   0.922   8.678  0.3764 -0.1479  0.8687
   50CHL1  H26B 6175   5.601   0.922   8.634 -1.5155  0.3566  0.9590
   50CHL1  H26C 6176   5.659   0.995   8.788  0.2683  0.5124 -0.8211
   50CHL1   C27 6177   5.626   0.658   8.727 -0.1276 -0.1472  0.3569
   50CHL1  H27A 6178   5.627   0.559   8.779 -0.3686 -0.5407 -0.3748
   50CHL1  H27B 6179   5.527   0.664   8.678  0.4880 -3.0392 -1.5422
   50CHL1  H27C 6180   5.704   0.664   8.648  0.3005  2.8478  0.9142
   51CHL1    C3 6181   0.459   4.379  10.520 -0.5020  0.0914 -0.3034
   51CHL1    H3 6182   0.425   4.484  10.531 -3.3407 -0.7183 -0.3206
   51CHL1    O3 6183   0.436   4.310  10.638 -0.1522  0.2325 -0.2950
   51CHL1   H3' 6184   0.343   4.313  10.661 -0.0911 -0.3644  0.0516
   51CHL1    C4 6185   0.379   4.324  10.394 -0.3530 -0.0846 -0.3774
   51CHL1   H4A 6186   0.417   4.220  10.384  4.8351  1.3963  0.6197
   51CHL1   H4B 6187   0.272   4.323  10.425 -0.3483 -1.6757 -0.3468
   51CHL1    C5 6188   0.409   4.397  10.264 -0.1110 -0.6374 -0.0372
   51CHL1    C6 6189   0.307   4.449  10.193  0.2304 -0.0826 -0.2649
   51CHL1    H6 6190   0.203   4.432  10.226  0.0970 -1.1788 -1.1714
   51CHL1    C7 6191   0.333   4.512  10.055 -0.2988  0.6488  0.4752
   51CHL1   H7A 6192   0.274   4.464   9.975 -0.3729  1.5520 -0.0320
   51CHL1   H7B 6193   0.309   4.621  10.052  2.2523  1.2593 -1.1051
   51CHL1    C8 6194   0.479   4.487  10.008 -0.0463 -0.2288 -0.0015
   51CHL1    H8 6195   0.491   4.385   9.968  0.7835  0.4575 -1.5753
   51CHL1   C14 6196   0.516   4.593   9.908  0.0362  0.5577  0.4439
   51CHL1   H14 6197   0.505   4.693   9.956 -1.6396  1.1075 -0.9771
   51CHL1   C15 6198   0.412   4.610   9.799 -0.2627 -0.5523  0.3009
   51CHL1  H15A 6199   0.370   4.510   9.776  0.3948 -1.3821  2.4987
   51CHL1  H15B 6200   0.327   4.675   9.830 -0.4251 -1.1451  1.1352
   51CHL1   C16 6201   0.487   4.665   9.681 -0.3408  0.1544 -0.4184
   51CHL1  H16A 6202   0.484   4.582   9.607  1.4893 -0.9889  0.6906
   51CHL1  H16B 6203   0.431   4.755   9.650 -1.4542 -1.2872 -2.9187
   51CHL1   C17 6204   0.632   4.690   9.728 -0.0595 -0.1195 -0.5831
   51CHL1   H17 6205   0.637   4.789   9.778 -1.2572 -0.5305  0.4287
   51CHL1   C13 6206   0.648   4.580   9.840 -0.0999  0.1914 -0.5105
   51CHL1   C18 6207   0.658   4.437   9.778  0.1143  0.5910 -0.3613
   51CHL1  H18A 6208   0.579   4.419   9.702  0.4366  1.4902 -0.9390
   51CHL1  H18B 6209   0.756   4.441   9.725  0.6566 -0.1078  0.5551
   51CHL1  H18C 6210   0.663   4.359   9.856 -1.1588  2.2948  1.5147
   51CHL1   C12 6211   0.748   4.606   9.949  0.0650 -0.1069 -0.3881
   51CHL1  H12A 6212   0.851   4.588   9.912 -0.6605 -2.2568 -1.5009
   51CHL1  H12B 6213   0.730   4.705   9.997  0.2482  0.7061 -1.9352
   51CHL1   C11 6214   0.726   4.511  10.072 -0.2044  0.6749  0.0927
   51CHL1  H11A 6215   0.768   4.414  10.038 -2.2778  0.4100 -1.9743
   51CHL1  H11B 6216   0.785   4.556  10.154 -0.8508  2.4895 -0.3907
   51CHL1    C9 6217   0.583   4.504  10.125 -0.1110  0.2834 -0.0289
   51CHL1    H9 6218   0.549   4.607  10.151  0.2190  0.2435  0.5643
   51CHL1   C10 6219   0.562   4.407  10.240 -0.5678 -0.0107 -0.3380
   51CHL1   C19 6220   0.610   4.259  10.196  0.0468 -0.1987 -0.3382
   51CHL1  H19A 6221   0.720   4.266  10.188  0.0028  1.9401  0.2604
   51CHL1  H19B 6222   0.576   4.177  10.264  2.1555 -0.2478  0.7357
   51CHL1  H19C 6223   0.568   4.246  10.094 -0.8530 -0.8605  0.1048
   51CHL1    C1 6224   0.642   4.452  10.368  0.0592  0.0932  0.1941
   51CHL1   H1A 6225   0.748   4.429  10.349  0.1385 -1.3458  2.0476
   51CHL1   H1B 6226   0.622   4.562  10.373  3.5497  0.9127 -1.0908
   51CHL1    C2 6227   0.606   4.378  10.491  0.1236  1.1755  0.0369
   51CHL1   H2A 6228   0.670   4.415  10.573 -0.8776 -3.3178  3.2599
   51CHL1   H2B 6229   0.647   4.275  10.488  0.9680  1.5151 -0.3734
   51CHL1   C20 6230   0.732   4.688   9.610 -0.5340 -0.3027 -0.5068
   51CHL1   H20 6231   0.734   4.591   9.556  0.4756 -0.9636  0.6511
   51CHL1   C21 6232   0.872   4.738   9.658 -0.3853  0.1592 -0.0968
   51CHL1  H21A 6233   0.931   4.756   9.565 -1.2786 -0.9785 -0.9042
   51CHL1  H21B 6234   0.917   4.684   9.744  1.2166 -0.8192 -1.4677
   51CHL1  H21C 6235   0.857   4.839   9.702  0.1703 -0.5536  1.8170
   51CHL1   C22 6236   0.684   4.784   9.491  0.4694  0.6662 -0.4633
   51CHL1  H22A 6237   0.579   4.755   9.469  0.2613  1.1290 -0.0942
   51CHL1  H22B 6238   0.690   4.891   9.519  0.1566  1.0709 -1.8751
   51CHL1   C23 6239   0.759   4.769   9.358  0.2256  0.3322  0.4696
   51CHL1  H23A 6240   0.859   4.815   9.373  1.2974 -1.6244 -0.2083
   51CHL1  H23B 6241   0.769   4.663   9.326  2.6907 -0.1332  2.4502
   51CHL1   C24 6242   0.699   4.848   9.236 -0.8227 -0.2032 -0.4031
   51CHL1  H24A 6243   0.592   4.819   9.234 -0.8416 -0.6721  2.6410
   51CHL1  H24B 6244   0.705   4.957   9.255 -1.8646 -0.3707  1.0136
   51CHL1   C25 6245   0.762   4.809   9.098  0.0126  1.0980  0.1501
   51CHL1   H25 6246   0.715   4.876   9.023 -1.8471  0.5427  0.7690
   51CHL1   C26 6247   0.921   4.825   9.093  0.6047 -0.1636 -0.8353
   51CHL1  H26A 6248   0.955   4.816   8.988  0.5570  3.4335 -1.2742
   51CHL1  H26B 6249   0.953   4.928   9.118 -0.0382 -0.2725  0.5736
   51CHL1  H26C 6250   0.974   4.758   9.165 -0.5651 -0.4303 -0.1903
   51CHL1   C27 6251   0.718   4.663   9.065  0.1359  0.3149 -0.4719
   51CHL1  H27A 6252   0.607   4.654   9.068  0.0156  1.6501  0.0808
   51CHL1  H27B 6253   0.740   4.639   8.959 -2.0768 -1.2484 -0.6396
   51CHL1  H27C 6254   0.760   4.592   9.138  0.6261  0.9344 -0.1389
   52CHL1    C3 6255   4.707   2.585   9.901  0.0218  0.3423  0.2125
   52CHL1    H3 6256   4.805   2.542   9.870 -0.0797  1.1584 -1.3445
   52CHL1    O3 6257   4.702   2.595  10.042  0.1228  0.6383 -0.3996
   52CHL1   H3' 6258   4.773   2.658  10.059 -0.5088  0.5202  3.8358
   52CHL1    C4 6259   4.687   2.718   9.841  0.3397 -0.3742 -0.0175
   52CHL1   H4A 6260   4.605   2.771   9.894 -0.9325 -1.4123 -0.8781
   52CHL1   H4B 6261   4.772   2.782   9.874 -0.6563  0.1045  1.7639
   52CHL1    C5 6262   4.657   2.723   9.693 -0.3819  0.5157 -0.7837
   52CHL1    C6 6263   4.732   2.803   9.617  0.6506  0.2472 -0.0671
   52CHL1    H6 6264   4.798   2.876   9.667 -1.4462  1.3121  1.3007
   52CHL1    C7 6265   4.709   2.816   9.472  0.1413  0.2194  0.1900
   52CHL1   H7A 6266   4.677   2.918   9.442  1.5851  0.5486 -0.2932
   52CHL1   H7B 6267   4.804   2.787   9.422  0.8580 -0.8795  2.0963
   52CHL1    C8 6268   4.593   2.727   9.413 -0.6516  0.6558  0.4685
   52CHL1    H8 6269   4.503   2.791   9.416 -1.5783 -0.2881 -2.6849
   52CHL1   C14 6270   4.616   2.701   9.263  0.5377 -0.3858  0.2741
   52CHL1   H14 6271   4.697   2.625   9.253  0.4034 -0.6614  1.1956
   52CHL1   C15 6272   4.634   2.826   9.170 -0.2273 -0.5539 -0.0720
   52CHL1  H15A 6273   4.554   2.900   9.193  0.3501  1.6230 -4.1629
   52CHL1  H15B 6274   4.733   2.871   9.192  0.4750 -2.2145  0.3345
   52CHL1   C16 6275   4.625   2.775   9.031  0.0735  0.7319  0.3461
   52CHL1  H16A 6276   4.575   2.848   8.964 -1.2956  0.2059  0.7648
   52CHL1  H16B 6277   4.724   2.747   8.990  0.1254  0.0175  0.9427
   52CHL1   C17 6278   4.550   2.633   9.040  0.3373  0.2188  0.0271
   52CHL1   H17 6279   4.624   2.550   9.035 -1.3481 -1.2872 -1.5496
   52CHL1   C13 6280   4.496   2.632   9.186  0.4350  0.2530  0.4031
   52CHL1   C18 6281   4.364   2.712   9.194  0.1279 -0.7780  0.5652
   52CHL1  H18A 6282   4.334   2.742   9.297 -4.0665  0.7928 -0.9017
   52CHL1  H18B 6283   4.376   2.799   9.126  0.4572 -2.2983 -1.4369
   52CHL1  H18C 6284   4.277   2.654   9.155 -0.7098  0.2788  0.8273
   52CHL1   C12 6285   4.471   2.498   9.253  0.2621  0.6230  0.0103
   52CHL1  H12A 6286   4.378   2.454   9.213  0.5904  0.4586 -0.5734
   52CHL1  H12B 6287   4.565   2.446   9.225  1.0003  2.4244 -1.0427
   52CHL1   C11 6288   4.461   2.509   9.414  0.6143 -0.2703  0.1188
   52CHL1  H11A 6289   4.366   2.558   9.443  0.6707 -0.8802  1.4079
   52CHL1  H11B 6290   4.475   2.404   9.448 -0.0939 -0.1283  0.8872
   52CHL1    C9 6291   4.574   2.590   9.480 -0.2989  0.5884  0.0409
   52CHL1    H9 6292   4.664   2.529   9.458 -0.2659  0.0305  1.6339
   52CHL1   C10 6293   4.559   2.616   9.636  0.1962 -0.4576  0.1857
   52CHL1   C19 6294   4.412   2.667   9.667  0.6136 -0.3537 -0.0731
   52CHL1  H19A 6295   4.409   2.690   9.776  0.5997  0.0332 -0.1547
   52CHL1  H19B 6296   4.375   2.753   9.608 -2.1930 -0.0109  1.9523
   52CHL1  H19C 6297   4.338   2.584   9.668 -1.5717  1.4412  1.6758
   52CHL1    C1 6298   4.587   2.488   9.704  1.0330  0.2014  0.8880
   52CHL1   H1A 6299   4.517   2.410   9.666  1.6520  0.0058  0.1149
   52CHL1   H1B 6300   4.680   2.448   9.657 -1.2410 -1.4138 -2.7182
   52CHL1    C2 6301   4.599   2.489   9.856  0.5736 -0.5346 -0.2913
   52CHL1   H2A 6302   4.637   2.389   9.885  0.8775 -0.9717 -2.0701
   52CHL1   H2B 6303   4.504   2.515   9.907  1.8348  1.0753  1.3571
   52CHL1   C20 6304   4.443   2.611   8.930 -0.2550  0.5943  0.3277
   52CHL1   H20 6305   4.365   2.689   8.943 -1.4314 -0.0257 -2.3091
   52CHL1   C21 6306   4.380   2.472   8.948 -0.4229  0.0455  0.5197
   52CHL1  H21A 6307   4.353   2.433   8.847 -0.9079  0.0187  0.6570
   52CHL1  H21B 6308   4.289   2.473   9.012 -0.6711 -1.2480  0.2345
   52CHL1  H21C 6309   4.457   2.399   8.982  0.6451  0.2236 -1.3945
   52CHL1   C22 6310   4.496   2.612   8.783 -0.1051  0.6536  0.1753
   52CHL1  H22A 6311   4.569   2.691   8.753 -0.6695  0.7723 -0.9400
   52CHL1  H22B 6312   4.534   2.508   8.771 -1.0396  0.2260  0.8957
   52CHL1   C23 6313   4.386   2.641   8.680  0.2566  0.5122 -0.6483
   52CHL1  H23A 6314   4.294   2.584   8.704  0.5351  1.0613  2.0361
   52CHL1  H23B 6315   4.351   2.745   8.697  1.7835  1.1799 -1.4160
   52CHL1   C24 6316   4.430   2.624   8.533 -0.8160  0.4244 -0.1377
   52CHL1  H24A 6317   4.505   2.700   8.501  0.1667 -1.0858 -1.6052
   52CHL1  H24B 6318   4.491   2.533   8.517 -1.3995  0.0681 -0.3382
   52CHL1   C25 6319   4.314   2.623   8.428 -1.0007  0.0427 -0.2200
   52CHL1   H25 6320   4.254   2.714   8.451 -1.0256  0.1410 -0.6542
   52CHL1   C26 6321   4.363   2.639   8.275  0.4125 -0.4808  0.4033
   52CHL1  H26A 6322   4.417   2.735   8.262 -2.2445  0.9277 -1.0857
   52CHL1  H26B 6323   4.427   2.552   8.248  1.4203  0.6619 -1.0854
   52CHL1  H26C 6324   4.275   2.633   8.207  0.2016  1.1921  0.4788
   52CHL1   C27 6325   4.218   2.502   8.447  0.1841  0.0080 -0.3675
   52CHL1  H27A 6326   4.124   2.529   8.394 -0.3145  0.4025  0.6933
   52CHL1  H27B 6327   4.273   2.417   8.402  0.3886  0.9253 -1.9368
   52CHL1  H27C 6328   4.188   2.489   8.553  1.0910 -2.8095 -0.3862
   53CHL1    C3 6329   5.291   1.929   9.958 -0.1760  0.0228 -0.3023
   53CHL1    H3 6330   5.266   2.036   9.941 -1.7847 -0.0623  1.1557
   53CHL1    O3 6331   5.294   1.917  10.099 -0.0559 -0.0810  0.6430
   53CHL1   H3' 6332   5.302   1.823  10.118  1.1585  0.0358  0.7327
   53CHL1    C4 6333   5.179   1.843   9.910  0.6062  0.4338  0.1111
   53CHL1   H4A 6334   5.194   1.739   9.946  2.7297 -0.1068 -2.1078
   53CHL1   H4B 6335   5.086   1.886   9.954  1.5130  1.7299  0.8039
   53CHL1    C5 6336   5.173   1.839   9.759 -0.5392  0.7429 -0.1001
   53CHL1    C6 6337   5.058   1.853   9.695  1.1183 -0.2835 -0.1164
   53CHL1    H6 6338   4.967   1.874   9.753  0.6929 -0.0931 -0.8477
   53CHL1    C7 6339   5.040   1.846   9.547 -0.4012 -0.6894  0.1213
   53CHL1   H7A 6340   4.937   1.815   9.518 -1.4796  3.2395 -0.9072
   53CHL1   H7B 6341   5.030   1.951   9.512 -1.2680 -0.1348  1.8915
   53CHL1    C8 6342   5.159   1.769   9.477 -0.2434 -0.1302  0.8088
   53CHL1    H8 6343   5.143   1.660   9.493 -1.7600 -0.1686 -0.6813
   53CHL1   C14 6344   5.153   1.802   9.324  0.3000  0.6356 -0.3392
   53CHL1   H14 6345   5.161   1.911   9.302 -0.5853  0.6058 -0.8421
   53CHL1   C15 6346   5.019   1.762   9.258 -0.1413 -0.0191 -0.2684
   53CHL1  H15A 6347   4.994   1.658   9.291  3.3035 -0.1407  2.5038
   53CHL1  H15B 6348   4.944   1.842   9.275  0.2233  0.2984 -0.1491
   53CHL1   C16 6349   5.059   1.745   9.109 -0.5814 -0.3641  0.2203
   53CHL1  H16A 6350   5.048   1.640   9.076  2.8546 -1.7070  2.7314
   53CHL1  H16B 6351   5.008   1.811   9.036 -0.8474 -0.2626  0.4922
   53CHL1   C17 6352   5.222   1.764   9.107  0.5045 -0.4887 -0.1170
   53CHL1   H17 6353   5.240   1.874   9.103  0.0452 -0.4431 -1.6199
   53CHL1   C13 6354   5.269   1.734   9.251  0.4715  0.4570 -0.3262
   53CHL1   C18 6355   5.283   1.581   9.273  0.4597 -0.4547 -0.6021
   53CHL1  H18A 6356   5.304   1.566   9.381  2.0066  3.1569 -0.2494
   53CHL1  H18B 6357   5.188   1.533   9.241  0.3544 -1.7631  1.4415
   53CHL1  H18C 6358   5.367   1.537   9.216  1.1183  2.7081 -2.2794
   53CHL1   C12 6359   5.398   1.797   9.299  0.6106 -0.0397 -0.2467
   53CHL1  H12A 6360   5.486   1.745   9.255  1.0718 -1.4244  2.1254
   53CHL1  H12B 6361   5.407   1.904   9.273 -0.1982  0.0413 -0.2070
   53CHL1   C11 6362   5.419   1.772   9.452 -0.7979  0.1384  0.2052
   53CHL1  H11A 6363   5.444   1.665   9.471  3.1109  0.9985  0.8171
   53CHL1  H11B 6364   5.507   1.831   9.484  0.2432 -0.8277 -0.7806
   53CHL1    C9 6365   5.295   1.815   9.537 -0.1516  0.2265 -0.2020
   53CHL1    H9 6366   5.297   1.926   9.536  2.0529  0.2794  1.7138
   53CHL1   C10 6367   5.309   1.794   9.692 -0.4669  0.2383 -0.0337
   53CHL1   C19 6368   5.346   1.643   9.717  0.4195 -0.1833  0.6464
   53CHL1  H19A 6369   5.449   1.613   9.693  0.5752  0.6909  0.1781
   53CHL1  H19B 6370   5.341   1.618   9.826  1.4972 -2.1043  0.2944
   53CHL1  H19C 6371   5.267   1.589   9.661 -0.0303  0.7490  0.3541
   53CHL1    C1 6372   5.431   1.881   9.753  0.0116  0.1502  0.1072
   53CHL1   H1A 6373   5.525   1.841   9.709 -1.0531 -2.4234  0.0189
   53CHL1   H1B 6374   5.421   1.984   9.712  0.4760 -0.2493 -1.0562
   53CHL1    C2 6375   5.428   1.890   9.904 -0.8281 -0.1936 -0.3520
   53CHL1   H2A 6376   5.510   1.958   9.935 -1.1371 -0.6478  1.5884
   53CHL1   H2B 6377   5.466   1.793   9.942  0.9264  0.6547  0.1842
   53CHL1   C20 6378   5.295   1.694   8.991  0.4674  0.7903 -1.2822
   53CHL1   H20 6379   5.280   1.587   9.015  1.6703  0.7630 -0.5780
   53CHL1   C21 6380   5.448   1.721   8.984 -0.2998  0.5780 -0.2792
   53CHL1  H21A 6381   5.492   1.681   8.890 -0.0546  1.2622 -0.4587
   53CHL1  H21B 6382   5.502   1.665   9.063 -0.8048 -0.7150 -0.8062
   53CHL1  H21C 6383   5.465   1.830   8.992  0.8734  0.4308 -0.5377
   53CHL1   C22 6384   5.237   1.736   8.858 -0.3722 -0.6240  0.0241
   53CHL1  H22A 6385   5.295   1.689   8.775  0.7762 -0.0404  0.4787
   53CHL1  H22B 6386   5.139   1.687   8.842  0.3757 -1.3582 -2.9821
   53CHL1   C23 6387   5.231   1.881   8.833  0.0796 -0.3555 -0.0321
   53CHL1  H23A 6388   5.145   1.915   8.894  0.0981 -1.5401  0.6988
   53CHL1  H23B 6389   5.309   1.939   8.887 -1.9963 -0.3456  3.2512
   53CHL1   C24 6390   5.199   1.915   8.685  0.4312 -0.4648  0.1011
   53CHL1  H24A 6391   5.289   1.903   8.621  0.6575 -0.8765  0.4840
   53CHL1  H24B 6392   5.125   1.839   8.651  0.1014 -0.3258  0.4963
   53CHL1   C25 6393   5.145   2.062   8.674 -0.3297  0.0381 -0.2408
   53CHL1   H25 6394   5.068   2.081   8.752  0.7392  0.4049  0.7543
   53CHL1   C26 6395   5.269   2.152   8.692  0.7633  0.6872 -0.2798
   53CHL1  H26A 6396   5.339   2.128   8.775 -0.8363  0.0314  0.9317
   53CHL1  H26B 6397   5.324   2.146   8.596 -0.0924  1.1543 -0.8142
   53CHL1  H26C 6398   5.241   2.259   8.705  1.1019  0.6941  0.4110
   53CHL1   C27 6399   5.079   2.085   8.536 -0.4351  0.1075  0.1821
   53CHL1  H27A 6400   5.079   2.193   8.508 -0.7548  0.2385  0.6824
   53CHL1  H27B 6401   5.142   2.042   8.455 -1.0366  1.0640 -0.8341
   53CHL1  H27C 6402   4.977   2.042   8.531 -0.8037  0.9410  0.3234
   54CHL1    C3 6403   5.725   2.779  10.156 -0.4103  0.6361 -0.4141
   54CHL1    H3 6404   5.664   2.691  10.183  0.1577  0.5745  0.7229
   54CHL1    O3 6405   5.750   2.841  10.279 -0.4203  0.5395  0.4752
   54CHL1   H3' 6406   5.816   2.784  10.320  0.1877  3.0334  3.3175
   54CHL1    C4 6407   5.852   2.730  10.091 -0.1289  0.4127 -0.2035
   54CHL1   H4A 6408   5.927   2.811  10.079  0.6682 -0.4616 -1.4348
   54CHL1   H4B 6409   5.899   2.661  10.165 -0.6436  0.6971  0.3977
   54CHL1    C5 6410   5.835   2.665   9.954  0.0259 -0.3868 -0.1822
   54CHL1    C6 6411   5.880   2.539   9.925 -0.0151  0.3495  0.2051
   54CHL1    H6 6412   5.923   2.476  10.004 -1.0575  0.7458  1.1110
   54CHL1    C7 6413   5.860   2.478   9.784 -0.7077  0.3405  0.2249
   54CHL1   H7A 6414   5.951   2.434   9.740 -1.1996  1.7499 -2.4205
   54CHL1   H7B 6415   5.797   2.388   9.798  2.3396 -1.7104  1.7462
   54CHL1    C8 6416   5.811   2.582   9.683 -0.5169 -0.4828  0.3727
   54CHL1    H8 6417   5.899   2.646   9.660 -0.9770  0.3907  0.9631
   54CHL1   C14 6418   5.770   2.523   9.543  0.3905  0.7015 -0.1011
   54CHL1   H14 6419   5.672   2.475   9.563 -0.6126  1.5512 -2.5519
   54CHL1   C15 6420   5.850   2.415   9.478  0.1136 -0.1677  0.3458
   54CHL1  H15A 6421   5.956   2.446   9.469 -0.3205  1.3264  0.0296
   54CHL1  H15B 6422   5.832   2.317   9.525 -1.7110 -1.1932 -2.2333
   54CHL1   C16 6423   5.801   2.409   9.327 -0.0465  0.4148 -0.7429
   54CHL1  H16A 6424   5.888   2.419   9.259 -0.2931 -1.0039 -1.2849
   54CHL1  H16B 6425   5.763   2.310   9.295  0.8072  0.4548 -1.9238
   54CHL1   C17 6426   5.700   2.527   9.321 -0.4591  0.4526  0.7925
   54CHL1   H17 6427   5.602   2.479   9.343 -0.8089  1.0434  0.5478
   54CHL1   C13 6428   5.724   2.622   9.443  0.4497 -0.0027 -0.3121
   54CHL1   C18 6429   5.833   2.728   9.405 -0.1324  0.3118  0.4617
   54CHL1  H18A 6430   5.794   2.812   9.345 -0.9370 -1.1340 -1.1232
   54CHL1  H18B 6431   5.884   2.770   9.495 -0.9109 -0.6918  1.4057
   54CHL1  H18C 6432   5.910   2.679   9.342  0.4219  0.4854  0.9871
   54CHL1   C12 6433   5.595   2.694   9.496 -0.1562 -0.2952 -0.3372
   54CHL1  H12A 6434   5.541   2.767   9.433  1.1803 -0.3739 -1.6166
   54CHL1  H12B 6435   5.509   2.625   9.512 -1.3975  1.1400 -0.5591
   54CHL1   C11 6436   5.634   2.771   9.625  0.3490  0.6018 -0.6972
   54CHL1  H11A 6437   5.692   2.857   9.585 -2.4186  1.3611 -3.5405
   54CHL1  H11B 6438   5.548   2.815   9.680  0.7774  2.4704 -1.4320
   54CHL1    C9 6439   5.702   2.678   9.733 -0.1404 -0.4134 -0.3786
   54CHL1    H9 6440   5.621   2.611   9.769  0.6624 -1.9942 -1.3902
   54CHL1   C10 6441   5.746   2.757   9.862  0.3473  0.1231  0.4256
   54CHL1   C19 6442   5.835   2.881   9.811  0.0618  1.3195  0.6446
   54CHL1  H19A 6443   5.890   2.945   9.884  0.5505  0.4421  1.0629
   54CHL1  H19B 6444   5.917   2.856   9.741  0.0224  3.9564 -0.4387
   54CHL1  H19C 6445   5.774   2.953   9.752  1.4835  2.4123  0.4615
   54CHL1    C1 6446   5.614   2.800   9.932  0.0024  0.1643  0.5326
   54CHL1   H1A 6447   5.560   2.875   9.871 -0.5487 -1.2263 -0.7729
   54CHL1   H1B 6448   5.554   2.708   9.950  2.8794 -1.4921  2.5949
   54CHL1    C2 6449   5.647   2.868  10.067 -0.1041 -0.2949 -0.1301
   54CHL1   H2A 6450   5.555   2.904  10.119  0.6599  0.5194  0.6994
   54CHL1   H2B 6451   5.705   2.960  10.045 -1.5427  0.0223 -2.9661
   54CHL1   C20 6452   5.683   2.602   9.183 -0.3574 -0.9584 -0.3147
   54CHL1   H20 6453   5.672   2.708   9.215 -0.9370 -1.1469  0.1300
   54CHL1   C21 6454   5.554   2.557   9.107 -1.2720  0.2416 -0.8394
   54CHL1  H21A 6455   5.473   2.555   9.183 -0.7457  0.2548 -0.2761
   54CHL1  H21B 6456   5.567   2.452   9.075 -1.4283  0.1986 -0.7655
   54CHL1  H21C 6457   5.520   2.622   9.023 -0.7269  1.8564  0.1430
   54CHL1   C22 6458   5.805   2.587   9.089  0.1201 -0.1500 -0.2061
   54CHL1  H22A 6459   5.906   2.596   9.133  0.3860 -3.5664  0.1242
   54CHL1  H22B 6460   5.809   2.479   9.065 -2.5226 -0.4631  0.4363
   54CHL1   C23 6461   5.788   2.672   8.954 -0.3163 -0.2335 -0.3491
   54CHL1  H23A 6462   5.696   2.639   8.901  1.1174 -1.3976 -2.2497
   54CHL1  H23B 6463   5.771   2.781   8.967 -0.1192 -0.0628 -1.4098
   54CHL1   C24 6464   5.916   2.683   8.870 -1.2775  0.2020  0.5565
   54CHL1  H24A 6465   5.929   2.760   8.791  2.8395 -0.8843 -0.1081
   54CHL1  H24B 6466   6.001   2.711   8.936 -0.5169  1.3731 -0.8656
   54CHL1   C25 6467   5.958   2.547   8.803 -0.0431 -0.9426  0.3570
   54CHL1   H25 6468   5.948   2.462   8.875 -0.8908 -1.9848 -0.9407
   54CHL1   C26 6469   5.849   2.525   8.690 -0.4714 -0.1502  0.4666
   54CHL1  H26A 6470   5.887   2.450   8.616 -0.6825  1.5458 -1.4570
   54CHL1  H26B 6471   5.757   2.488   8.739 -0.6796  0.6068  0.6570
   54CHL1  H26C 6472   5.843   2.620   8.632  1.4848 -0.4426 -0.3004
   54CHL1   C27 6473   6.099   2.552   8.739  0.8331  0.3781 -0.1003
   54CHL1  H27A 6474   6.176   2.534   8.817 -0.6809 -1.3674  1.0920
   54CHL1  H27B 6475   6.107   2.461   8.676 -0.8918  0.2671 -0.2194
   54CHL1  H27C 6476   6.115   2.646   8.684  0.9714  0.4240  0.0163
   55CHL1    C3 6477   5.201   0.998  10.036  0.3275 -0.2326 -0.0519
   55CHL1    H3 6478   5.141   0.907  10.011 -1.1707  0.8002 -0.3559
   55CHL1    O3 6479   5.195   1.009  10.178  0.2285 -0.3724  0.3260
   55CHL1   H3' 6480   5.117   1.065  10.184  0.3806 -0.1338  0.1257
   55CHL1    C4 6481   5.344   0.971   9.984  0.0670 -0.0845 -0.2165
   55CHL1   H4A 6482   5.408   1.036  10.048 -2.5699  0.5618  1.9727
   55CHL1   H4B 6483   5.354   0.865  10.013 -0.9890 -0.1071  0.1083
   55CHL1    C5 6484   5.368   0.983   9.836  0.6566 -0.8528 -0.1696
   55CHL1    C6 6485   5.430   0.886   9.769  0.1908  0.0382 -1.0081
   55CHL1    H6 6486   5.463   0.793   9.817  2.9423  1.1279 -0.6207
   55CHL1    C7 6487   5.461   0.888   9.624 -0.5759 -0.5057  0.1818
   55CHL1   H7A 6488   5.568   0.861   9.618 -0.3630  0.3037  0.2392
   55CHL1   H7B 6489   5.399   0.811   9.574 -1.2700  0.7426 -0.9755
   55CHL1    C8 6490   5.440   1.034   9.559 -0.2625  0.2138  0.0530
   55CHL1    H8 6491   5.532   1.089   9.588 -0.5257  1.2237 -0.9531
   55CHL1   C14 6492   5.423   1.019   9.410  0.0487  0.3369 -0.3650
   55CHL1   H14 6493   5.335   0.952   9.399 -0.5396  0.7299  1.5712
   55CHL1   C15 6494   5.527   0.942   9.327  0.1170  0.3281  0.1800
   55CHL1  H15A 6495   5.625   0.989   9.352  0.5723 -0.3700 -0.2815
   55CHL1  H15B 6496   5.544   0.834   9.347  2.3230  0.4431 -0.8313
   55CHL1   C16 6497   5.511   0.979   9.178 -0.1521  0.8513 -0.0145
   55CHL1  H16A 6498   5.611   1.013   9.144  0.5104  0.3824  1.3955
   55CHL1  H16B 6499   5.463   0.897   9.120  4.1508 -1.8307 -0.2544
   55CHL1   C17 6500   5.397   1.090   9.190  0.9010  0.1083  0.1797
   55CHL1   H17 6501   5.302   1.034   9.185 -0.7502  2.5077  2.1867
   55CHL1   C13 6502   5.399   1.149   9.330  0.1558  0.6178 -0.9859
   55CHL1   C18 6503   5.535   1.233   9.347 -0.3703 -0.4655  0.5701
   55CHL1  H18A 6504   5.568   1.249   9.452 -0.0873 -1.0945  0.5808
   55CHL1  H18B 6505   5.626   1.195   9.298 -0.0906  1.3359 -0.3934
   55CHL1  H18C 6506   5.515   1.332   9.300  0.8134 -0.2094  0.5845
   55CHL1   C12 6507   5.272   1.213   9.389  0.4894 -0.4493 -0.3324
   55CHL1  H12A 6508   5.245   1.307   9.335 -2.2307 -1.5334 -1.0082
   55CHL1  H12B 6509   5.181   1.149   9.388 -0.2359  0.5547 -0.2498
   55CHL1   C11 6510   5.287   1.238   9.542  0.3772  0.3536 -0.4067
   55CHL1  H11A 6511   5.364   1.316   9.558  1.0544 -0.3751 -0.0184
   55CHL1  H11B 6512   5.191   1.273   9.585 -0.4168 -1.5981 -0.4639
   55CHL1    C9 6513   5.315   1.102   9.612 -0.3273 -0.0122 -0.3178
   55CHL1    H9 6514   5.228   1.036   9.593  0.0452 -1.3253  2.1596
   55CHL1   C10 6515   5.305   1.106   9.770 -0.3855  0.1098 -0.7519
   55CHL1   C19 6516   5.371   1.239   9.816 -0.9619 -0.6173 -0.1179
   55CHL1  H19A 6517   5.378   1.238   9.927  1.1174 -1.8176 -0.2034
   55CHL1  H19B 6518   5.471   1.242   9.767 -0.6209  0.0920  0.6059
   55CHL1  H19C 6519   5.318   1.327   9.773  1.2467  1.3075  0.8995
   55CHL1    C1 6520   5.162   1.126   9.820 -0.3754  0.1386  0.2524
   55CHL1   H1A 6521   5.104   1.216   9.791 -1.9531 -0.7911  0.3670
   55CHL1   H1B 6522   5.120   1.032   9.777  2.9433 -0.8381 -1.1524
   55CHL1    C2 6523   5.143   1.124   9.974 -0.1698  0.0012 -0.2304
   55CHL1   H2A 6524   5.038   1.153   9.995 -0.5242  1.4038 -3.3600
   55CHL1   H2B 6525   5.198   1.215  10.009  0.0167 -0.4791  0.7512
   55CHL1   C20 6526   5.390   1.205   9.082  0.3246 -0.3182 -0.3107
   55CHL1   H20 6527   5.377   1.305   9.127  0.1981 -0.1780 -0.6490
   55CHL1   C21 6528   5.258   1.182   9.013 -0.3809 -0.3571  0.1795
   55CHL1  H21A 6529   5.175   1.157   9.084 -1.7962  1.1727 -0.8676
   55CHL1  H21B 6530   5.264   1.089   8.954 -0.6702 -0.3700  0.1676
   55CHL1  H21C 6531   5.228   1.273   8.957  1.9584  0.6939  0.5329
   55CHL1   C22 6532   5.507   1.226   8.985  0.4404  0.2945  0.2909
   55CHL1  H22A 6533   5.604   1.236   9.038  2.0929  0.0762 -2.5183
   55CHL1  H22B 6534   5.511   1.141   8.914 -0.5410 -0.3317  0.9515
   55CHL1   C23 6535   5.495   1.347   8.889  0.2049 -0.2809  0.4165
   55CHL1  H23A 6536   5.404   1.334   8.827  0.8171 -3.6406  0.0552
   55CHL1  H23B 6537   5.502   1.446   8.940  0.5789  0.8908 -1.7749
   55CHL1   C24 6538   5.611   1.342   8.786  0.4266 -0.1476  0.0416
   55CHL1  H24A 6539   5.700   1.308   8.843  0.0391 -1.2599  0.0126
   55CHL1  H24B 6540   5.594   1.255   8.718  0.6053 -1.8346  2.0245
   55CHL1   C25 6541   5.648   1.451   8.688  0.2451 -0.0018 -0.5547
   55CHL1   H25 6542   5.673   1.541   8.747 -0.4158  1.4231 -2.3766
   55CHL1   C26 6543   5.763   1.417   8.595 -0.3658  0.2066  0.3111
   55CHL1  H26A 6544   5.745   1.323   8.538  0.1799 -0.2031  0.7947
   55CHL1  H26B 6545   5.783   1.493   8.517 -0.8008 -2.0081 -2.1111
   55CHL1  H26C 6546   5.856   1.402   8.654  0.5739  0.5430 -1.0357
   55CHL1   C27 6547   5.524   1.480   8.608 -0.5874 -0.5399 -0.2465
   55CHL1  H27A 6548   5.541   1.572   8.548 -0.8873  1.2792  2.3258
   55CHL1  H27B 6549   5.503   1.394   8.541 -4.0143 -0.1648  0.1344
   55CHL1  H27C 6550   5.433   1.497   8.670 -1.6879  2.3970 -2.4199
   56CHL1    C3 6551   5.292   4.857  10.250  0.4424 -1.0084  0.2181
   56CHL1    H3 6552   5.389   4.802  10.255 -0.0255 -1.7551  2.6809
   56CHL1    O3 6553   5.250   4.833  10.376  0.7017 -0.3751 -0.9840
   56CHL1   H3' 6554   5.170   4.887  10.381  0.8883 -0.1845  0.1858
   56CHL1    C4 6555   5.296   5.010  10.241 -0.7774 -0.2233 -0.0731
   56CHL1   H4A 6556   5.198   5.056  10.266 -0.3221  0.3013  0.7965
   56CHL1   H4B 6557   5.367   5.048  10.318 -0.5222  0.5902 -0.6859
   56CHL1    C5 6558   5.342   5.059  10.110 -0.2671  0.5902 -0.2366
   56CHL1    C6 6559   5.455   5.130  10.088 -0.4974  0.0823 -0.3862
   56CHL1    H6 6560   5.511   5.160  10.178  0.3339 -0.6707 -0.6451
   56CHL1    C7 6561   5.491   5.191   9.958 -0.3027 -0.2720  0.2053
   56CHL1   H7A 6562   5.504   5.301   9.958 -1.0056 -0.1729  1.8657
   56CHL1   H7B 6563   5.587   5.149   9.921  1.1042  0.7021  2.5322
   56CHL1    C8 6564   5.382   5.168   9.846 -0.5754 -0.7650 -0.0372
   56CHL1    H8 6565   5.301   5.244   9.846 -2.1318 -2.3809 -0.7378
   56CHL1   C14 6566   5.448   5.175   9.711 -0.6179  0.1027 -0.1626
   56CHL1   H14 6567   5.515   5.086   9.714 -0.0371  0.5456  0.2172
   56CHL1   C15 6568   5.537   5.292   9.671  0.3073  0.5272 -0.3488
   56CHL1  H15A 6569   5.484   5.384   9.703  0.4740  0.4809  0.0661
   56CHL1  H15B 6570   5.629   5.293   9.734  1.1909 -0.3232 -1.5745
   56CHL1   C16 6571   5.552   5.281   9.518 -0.0180 -0.1185  0.3728
   56CHL1  H16A 6572   5.531   5.384   9.483  1.9497  0.6465  1.3482
   56CHL1  H16B 6573   5.656   5.254   9.489  0.3296  1.1255  0.4385
   56CHL1   C17 6574   5.443   5.177   9.470  0.3579 -0.4084  0.5906
   56CHL1   H17 6575   5.491   5.078   9.451 -0.3227 -0.4344 -1.1141
   56CHL1   C13 6576   5.356   5.159   9.589  0.0960  0.5191 -0.7133
   56CHL1   C18 6577   5.254   5.279   9.594  0.0300 -0.0154 -0.1531
   56CHL1  H18A 6578   5.183   5.273   9.509 -0.3608  3.2625 -0.1767
   56CHL1  H18B 6579   5.189   5.296   9.682 -0.3758  0.0311 -0.4583
   56CHL1  H18C 6580   5.306   5.376   9.581 -0.1530  0.1145  0.0732
   56CHL1   C12 6581   5.290   5.016   9.604  0.3403 -0.1933  0.9005
   56CHL1  H12A 6582   5.220   5.004   9.519  1.0679  0.2613  0.2261
   56CHL1  H12B 6583   5.375   4.945   9.589 -1.1184 -1.3503 -3.1775
   56CHL1   C11 6584   5.220   5.003   9.741  0.2355 -0.1534  1.3304
   56CHL1  H11A 6585   5.129   5.067   9.746 -1.8595 -2.9430  1.3718
   56CHL1  H11B 6586   5.178   4.901   9.747 -0.0716 -0.4095 -2.6824
   56CHL1    C9 6587   5.315   5.030   9.860 -0.3579 -0.2276 -0.0002
   56CHL1    H9 6588   5.391   4.951   9.842  0.0327  0.6054 -2.3129
   56CHL1   C10 6589   5.252   5.013  10.002  0.0463  0.1005 -0.0688
   56CHL1   C19 6590   5.124   5.101  10.014 -0.0356  0.1226  0.4636
   56CHL1  H19A 6591   5.061   5.054   9.935  0.3811  0.5171 -0.1106
   56CHL1  H19B 6592   5.065   5.091  10.107 -0.1279  0.8428  0.4949
   56CHL1  H19C 6593   5.138   5.211   9.999  0.9898  0.5527  3.7383
   56CHL1    C1 6594   5.221   4.861  10.009  0.7166 -0.2253  0.8204
   56CHL1   H1A 6595   5.145   4.821   9.938  3.2549  0.5083 -2.5758
   56CHL1   H1B 6596   5.312   4.808   9.974 -1.4855 -2.1081 -2.7281
   56CHL1    C2 6597   5.195   4.801  10.149 -0.0777 -0.3104 -0.4356
   56CHL1   H2A 6598   5.190   4.690  10.155  1.9845 -0.3817  2.4242
   56CHL1   H2B 6599   5.092   4.839  10.166 -0.2321  1.5372 -4.4864
   56CHL1   C20 6600   5.389   5.214   9.335  0.8041  0.0072  0.1359
   56CHL1   H20 6601   5.338   5.312   9.335  0.3187 -0.2398  0.3529
   56CHL1   C21 6602   5.282   5.119   9.284 -0.1908 -0.1853  0.3750
   56CHL1  H21A 6603   5.247   5.139   9.180 -0.9063 -3.6067 -0.1732
   56CHL1  H21B 6604   5.199   5.113   9.357 -0.2780 -3.4814  0.1876
   56CHL1  H21C 6605   5.325   5.016   9.285 -0.6660 -0.3932 -0.0701
   56CHL1   C22 6606   5.509   5.221   9.232 -0.1593  0.3893 -0.1430
   56CHL1  H22A 6607   5.590   5.286   9.271 -1.5697  1.4979  1.0411
   56CHL1  H22B 6608   5.556   5.121   9.216  1.1679  0.6284  1.8689
   56CHL1   C23 6609   5.463   5.281   9.094 -0.2768 -0.1049  0.7668
   56CHL1  H23A 6610   5.401   5.210   9.034 -0.9741  0.5435  0.7116
   56CHL1  H23B 6611   5.402   5.368   9.123 -2.3302 -0.6850 -1.4710
   56CHL1   C24 6612   5.581   5.331   9.014 -0.5057 -0.1806  0.8715
   56CHL1  H24A 6613   5.636   5.402   9.078 -0.5253 -0.8264  1.6156
   56CHL1  H24B 6614   5.655   5.253   8.986  1.6674  1.3661  2.0543
   56CHL1   C25 6615   5.557   5.427   8.893  0.2430 -0.7349  0.6803
   56CHL1   H25 6616   5.652   5.455   8.842  0.2590  1.4045  1.7517
   56CHL1   C26 6617   5.471   5.368   8.783  0.8326  0.2633  0.1152
   56CHL1  H26A 6618   5.370   5.351   8.824  0.0375  0.5105 -1.6312
   56CHL1  H26B 6619   5.460   5.441   8.700  2.2224 -0.2221 -0.5378
   56CHL1  H26C 6620   5.509   5.268   8.751  1.9726  0.8340 -0.3751
   56CHL1   C27 6621   5.501   5.550   8.950 -0.0916 -0.0166  0.2670
   56CHL1  H27A 6622   5.491   5.624   8.868 -0.1145 -2.1227 -1.7373
   56CHL1  H27B 6623   5.401   5.540   8.997 -0.2843  0.2854 -0.0822
   56CHL1  H27C 6624   5.569   5.601   9.021 -1.4436  1.7216  0.3736
   57CHL1    C3 6625   6.102   1.104  10.257 -0.2243 -0.0577 -0.2951
   57CHL1    H3 6626   6.097   1.002  10.212 -1.0589 -0.7853  1.3679
   57CHL1    O3 6627   6.050   1.106  10.391 -0.3498  0.2931  0.2388
   57CHL1   H3' 6628   6.047   1.200  10.413  2.9104  0.5633  0.0907
   57CHL1    C4 6629   6.249   1.151  10.268  0.4843 -0.1288 -0.4679
   57CHL1   H4A 6630   6.241   1.255  10.305  1.1913  0.2121 -1.2269
   57CHL1   H4B 6631   6.303   1.085  10.340 -0.8931  0.0272  0.7358
   57CHL1    C5 6632   6.318   1.148  10.130  0.0213 -0.2362 -0.3500
   57CHL1    C6 6633   6.419   1.060  10.094 -0.0076  0.1786 -0.4176
   57CHL1    H6 6634   6.462   0.997  10.173 -0.6444  1.1160  0.7173
   57CHL1    C7 6635   6.477   1.041   9.961  0.1134 -0.3722  0.4103
   57CHL1   H7A 6636   6.588   1.049   9.970 -0.0290  0.1342  2.1195
   57CHL1   H7B 6637   6.447   0.942   9.922  1.1393 -1.8406  3.0647
   57CHL1    C8 6638   6.426   1.158   9.870  0.0619  0.0849 -0.8470
   57CHL1    H8 6639   6.478   1.250   9.906 -2.2184  0.3435  2.0971
   57CHL1   C14 6640   6.454   1.128   9.728 -0.2312 -0.6639 -0.2543
   57CHL1   H14 6641   6.394   1.035   9.717 -1.1396 -0.0639 -0.5159
   57CHL1   C15 6642   6.592   1.077   9.683 -0.2196 -0.5260 -0.4130
   57CHL1  H15A 6643   6.679   1.142   9.709  0.2811 -1.2375 -0.2806
   57CHL1  H15B 6644   6.602   0.977   9.729 -1.4049 -0.2903  0.4133
   57CHL1   C16 6645   6.587   1.077   9.527 -0.5340 -0.1739  0.2085
   57CHL1  H16A 6646   6.670   1.143   9.493  0.7175 -2.7039 -2.0550
   57CHL1  H16B 6647   6.603   0.977   9.482  1.5789 -0.1829  0.8503
   57CHL1   C17 6648   6.450   1.139   9.490  0.0219  0.0441  0.3662
   57CHL1   H17 6649   6.375   1.057   9.488  0.7513 -0.6238 -0.8857
   57CHL1   C13 6650   6.409   1.221   9.619  0.0487  0.5515 -0.5216
   57CHL1   C18 6651   6.492   1.352   9.633  0.3362  0.6538 -0.3043
   57CHL1  H18A 6652   6.600   1.324   9.627  0.6312  2.0245 -2.0599
   57CHL1  H18B 6653   6.467   1.432   9.561 -0.7154  2.0000  1.5007
   57CHL1  H18C 6654   6.473   1.404   9.729 -2.2383  0.0323 -0.4091
   57CHL1   C12 6655   6.257   1.254   9.633  0.0655  0.3523  0.4364
   57CHL1  H12A 6656   6.221   1.335   9.566 -0.1899 -1.3216 -1.5433
   57CHL1  H12B 6657   6.190   1.171   9.602 -0.1509  0.1641  1.3651
   57CHL1   C11 6658   6.234   1.298   9.779 -0.1442  0.3543  0.1629
   57CHL1  H11A 6659   6.290   1.390   9.804  3.8990 -2.2460  1.6052
   57CHL1  H11B 6660   6.125   1.318   9.778 -0.2540  0.0207  1.7534
   57CHL1    C9 6661   6.279   1.189   9.885  0.7238 -0.5841 -0.4027
   57CHL1    H9 6662   6.220   1.101   9.853  0.7953 -1.1638  0.9916
   57CHL1   C10 6663   6.237   1.228  10.027  0.0655 -1.0864 -0.0975
   57CHL1   C19 6664   6.269   1.379  10.056  0.2890 -0.4659 -0.5435
   57CHL1  H19A 6665   6.376   1.406  10.043 -0.1363  0.9389 -1.3132
   57CHL1  H19B 6666   6.204   1.446   9.995  0.4917  0.7416  0.5180
   57CHL1  H19C 6667   6.241   1.408  10.160 -1.5391 -0.3699 -1.0265
   57CHL1    C1 6668   6.088   1.193  10.037  0.6938  0.2673 -0.0391
   57CHL1   H1A 6669   6.024   1.246   9.963  0.1296 -2.5980 -1.7754
   57CHL1   H1B 6670   6.061   1.088  10.009  0.7172  0.5785 -1.3153
   57CHL1    C2 6671   6.022   1.203  10.172 -0.4581 -0.0155  0.0219
   57CHL1   H2A 6672   5.918   1.164  10.175  0.7788 -3.5987  2.6467
   57CHL1   H2B 6673   6.029   1.302  10.224 -0.3250 -0.8800  1.7300
   57CHL1   C20 6674   6.453   1.201   9.348 -0.3372 -0.1711  0.3779
   57CHL1   H20 6675   6.491   1.305   9.360  1.5945 -0.8230  0.1505
   57CHL1   C21 6676   6.308   1.232   9.307  0.2022 -0.0517 -0.2764
   57CHL1  H21A 6677   6.242   1.144   9.298 -0.0037 -0.0621  1.0688
   57CHL1  H21B 6678   6.312   1.282   9.208  0.4454  0.1551 -0.1647
   57CHL1  H21C 6679   6.253   1.304   9.372  1.5122  2.4526 -1.7692
   57CHL1   C22 6680   6.534   1.124   9.242 -0.2507 -0.9452 -0.1344
   57CHL1  H22A 6681   6.637   1.135   9.283 -0.8844  0.6306  1.1302
   57CHL1  H22B 6682   6.511   1.018   9.267  0.6906 -1.1760 -0.2006
   57CHL1   C23 6683   6.531   1.166   9.097  0.3922  0.8096 -0.9096
   57CHL1  H23A 6684   6.433   1.150   9.047  1.4955  0.0229 -2.9686
   57CHL1  H23B 6685   6.548   1.276   9.095 -0.3984  0.9390 -1.1273
   57CHL1   C24 6686   6.631   1.095   9.014 -0.0609 -0.2670  0.2529
   57CHL1  H24A 6687   6.726   1.120   9.066 -0.8180  0.4573  1.3363
   57CHL1  H24B 6688   6.616   0.986   9.030 -0.0393 -0.1050  1.4944
   57CHL1   C25 6689   6.626   1.133   8.866 -0.1308 -0.1019 -0.5020
   57CHL1   H25 6690   6.627   1.242   8.847  1.5542  0.3276  1.6623
   57CHL1   C26 6691   6.756   1.093   8.798  0.4779 -0.2880  0.0285
   57CHL1  H26A 6692   6.767   0.984   8.786 -1.7621 -0.6479  0.6665
   57CHL1  H26B 6693   6.760   1.136   8.695 -0.3223 -1.2116 -0.4023
   57CHL1  H26C 6694   6.839   1.140   8.855 -0.2436 -0.6809  1.4415
   57CHL1   C27 6695   6.499   1.089   8.792 -0.6425  0.2209  0.1548
   57CHL1  H27A 6696   6.514   1.090   8.682  0.5061  0.5871  0.3021
   57CHL1  H27B 6697   6.489   0.982   8.821 -2.2037  0.1859 -0.4608
   57CHL1  H27C 6698   6.409   1.147   8.822 -1.0581  0.4779 -1.4823
   58CHL1    C3 6699   2.020   6.734  10.078  1.0699 -0.6323 -0.0654
   58CHL1    H3 6700   2.021   6.628  10.045 -1.3616 -0.6439 -0.3453
   58CHL1    O3 6701   2.057   6.733  10.215 -0.0301 -0.2901  0.2405
   58CHL1   H3' 6702   2.073   6.826  10.232  1.0536  0.3170 -3.3563
   58CHL1    C4 6703   2.116   6.812   9.988 -0.3301  0.1168  0.3066
   58CHL1   H4A 6704   2.134   6.909  10.038  2.0041 -0.3518  0.5004
   58CHL1   H4B 6705   2.216   6.763   9.995  0.2384  0.9850 -1.2027
   58CHL1    C5 6706   2.070   6.828   9.844 -0.3082 -0.4718 -0.5822
   58CHL1    C6 6707   2.141   6.778   9.743 -0.3286 -0.2299 -0.1258
   58CHL1    H6 6708   2.236   6.724   9.758 -0.1459 -0.6833 -2.6207
   58CHL1    C7 6709   2.093   6.774   9.604 -0.2554 -0.5310 -0.4711
   58CHL1   H7A 6710   2.173   6.797   9.530 -0.3301  0.7456 -0.1752
   58CHL1   H7B 6711   2.065   6.668   9.587  0.9720 -0.8870 -0.3638
   58CHL1    C8 6712   1.970   6.862   9.570 -1.0811  0.6299 -0.0131
   58CHL1    H8 6713   2.002   6.968   9.579  0.8203  0.2045 -1.2027
   58CHL1   C14 6714   1.915   6.819   9.434 -0.2137 -0.1925 -0.2186
   58CHL1   H14 6715   1.893   6.711   9.447  0.4012 -0.1066  1.7930
   58CHL1   C15 6716   2.010   6.814   9.308  0.2989 -0.1539  0.8669
   58CHL1  H15A 6717   2.069   6.907   9.313  0.7748 -0.4269  0.4141
   58CHL1  H15B 6718   2.081   6.729   9.316  0.3571 -0.0499  1.5190
   58CHL1   C16 6719   1.913   6.815   9.189  0.1564 -0.1986 -0.0433
   58CHL1  H16A 6720   1.935   6.906   9.129  1.4382 -0.9670 -0.7805
   58CHL1  H16B 6721   1.919   6.722   9.128  0.6420 -0.4927  0.4455
   58CHL1   C17 6722   1.768   6.830   9.252  0.9944 -0.2312 -0.4850
   58CHL1   H17 6723   1.728   6.728   9.269  1.2874 -0.5862 -1.8138
   58CHL1   C13 6724   1.792   6.890   9.393 -0.5091 -0.5492  0.1953
   58CHL1   C18 6725   1.816   7.042   9.381 -0.5429  0.6399 -0.2397
   58CHL1  H18A 6726   1.911   7.064   9.329 -0.3910 -0.1800 -0.3204
   58CHL1  H18B 6727   1.724   7.085   9.335  0.3133  0.7362 -1.9160
   58CHL1  H18C 6728   1.823   7.083   9.484  0.5052 -0.8264  0.3047
   58CHL1   C12 6729   1.686   6.854   9.498 -0.1447  0.0138 -0.4133
   58CHL1  H12A 6730   1.587   6.900   9.479 -0.7586 -0.4571  1.4212
   58CHL1  H12B 6731   1.671   6.745   9.488  2.2480 -0.4742  0.4790
   58CHL1   C11 6732   1.731   6.895   9.645 -0.6953 -0.3992  0.3246
   58CHL1  H11A 6733   1.729   7.005   9.658 -1.8360 -0.4951  1.1511
   58CHL1  H11B 6734   1.658   6.848   9.715 -1.1295  0.7053  0.6276
   58CHL1    C9 6735   1.870   6.832   9.682  0.0842  0.4497  0.9662
   58CHL1    H9 6736   1.847   6.723   9.679  0.7979  0.3191 -0.7587
   58CHL1   C10 6737   1.920   6.876   9.820  0.5008  0.0416  0.4006
   58CHL1   C19 6738   1.915   7.027   9.841  0.2188 -0.1886 -0.1053
   58CHL1  H19A 6739   1.973   7.072   9.757  1.5028  4.2748  2.8557
   58CHL1  H19B 6740   1.811   7.062   9.823  0.2392 -1.4289 -3.4423
   58CHL1  H19C 6741   1.944   7.054   9.944  1.3033 -0.8518 -0.2181
   58CHL1    C1 6742   1.819   6.814   9.922 -1.2319 -0.0998 -0.7557
   58CHL1   H1A 6743   1.722   6.868   9.926 -0.6376  0.9411  0.2003
   58CHL1   H1B 6744   1.799   6.711   9.885  0.5616 -1.2826  1.3395
   58CHL1    C2 6745   1.879   6.793  10.065 -0.7148 -0.2489  0.6329
   58CHL1   H2A 6746   1.809   6.730  10.125  0.1787 -0.9780  0.9243
   58CHL1   H2B 6747   1.889   6.894  10.110  1.6642 -0.3870  0.5000
   58CHL1   C20 6748   1.667   6.901   9.151 -0.3158  0.5389  0.0282
   58CHL1   H20 6749   1.697   7.008   9.139  1.0843  0.0370 -1.2929
   58CHL1   C21 6750   1.528   6.894   9.215 -0.5284  0.1537 -0.0004
   58CHL1  H21A 6751   1.504   6.803   9.273 -1.9105  1.5415  1.7403
   58CHL1  H21B 6752   1.448   6.892   9.138  0.4096  1.2291 -1.0602
   58CHL1  H21C 6753   1.514   6.987   9.275  0.7352  0.6609 -0.4392
   58CHL1   C22 6754   1.670   6.819   9.024 -0.7294  0.4449  0.2231
   58CHL1  H22A 6755   1.771   6.829   8.978 -1.0365  0.7616 -0.4039
   58CHL1  H22B 6756   1.636   6.714   9.036 -0.4644  0.2169 -0.8608
   58CHL1   C23 6757   1.577   6.875   8.921  0.4468 -0.8912  1.0930
   58CHL1  H23A 6758   1.470   6.850   8.935  0.5060 -0.9547  1.4405
   58CHL1  H23B 6759   1.579   6.986   8.935 -1.5120 -0.8509  1.3852
   58CHL1   C24 6760   1.626   6.841   8.775 -0.0617  0.6350  0.3892
   58CHL1  H24A 6761   1.725   6.886   8.754  0.6246 -1.7499 -1.9591
   58CHL1  H24B 6762   1.642   6.732   8.773  2.0184  0.9176 -1.4331
   58CHL1   C25 6763   1.548   6.867   8.646  0.4526 -0.3284 -0.2146
   58CHL1   H25 6764   1.457   6.803   8.644  0.4956 -0.3774 -1.5822
   58CHL1   C26 6765   1.503   7.012   8.634 -0.7485  0.3791  0.3670
   58CHL1  H26A 6766   1.460   7.042   8.733  0.9120 -0.9263  1.5331
   58CHL1  H26B 6767   1.581   7.089   8.616 -2.9685  2.6797  0.0116
   58CHL1  H26C 6768   1.426   7.023   8.554 -3.3743  0.4610  2.7356
   58CHL1   C27 6769   1.631   6.819   8.527  1.3137  0.1969  0.2028
   58CHL1  H27A 6770   1.658   6.715   8.555 -0.2645 -0.1701  0.4637
   58CHL1  H27B 6771   1.581   6.836   8.429 -1.4355  2.5856  1.8527
   58CHL1  H27C 6772   1.718   6.888   8.520  1.2923  0.5329  2.6356
   59CHL1    C3 6773   0.946   0.018  10.352 -0.9659  0.1064 -0.3643
   59CHL1    H3 6774   0.929   0.126  10.373  0.8621  0.3238  0.1697
   59CHL1    O3 6775   0.974  -0.040  10.475 -0.1791  0.2534 -0.0935
   59CHL1   H3' 6776   1.002  -0.128  10.449 -2.3535  0.1042 -2.2884
   59CHL1    C4 6777   0.816  -0.049  10.297  0.1701 -0.7634 -0.0618
   59CHL1   H4A 6778   0.827  -0.159  10.298  0.8349 -0.7390  2.2998
   59CHL1   H4B 6779   0.739  -0.027  10.374  1.3383  0.3951  0.8205
   59CHL1    C5 6780   0.779   0.003  10.163  1.1574  0.2527 -0.1374
   59CHL1    C6 6781   0.661   0.063  10.133 -0.1751 -0.0155  0.2949
   59CHL1    H6 6782   0.583   0.061  10.211  2.2099  1.1595  2.8931
   59CHL1    C7 6783   0.629   0.113   9.997  0.4001  0.1569  0.3856
   59CHL1   H7A 6784   0.524   0.107   9.961  0.8911 -1.5803 -0.9031
   59CHL1   H7B 6785   0.638   0.224   9.988  1.7341 -0.0562 -1.7187
   59CHL1    C8 6786   0.728   0.069   9.886  0.4126 -0.2460  0.8716
   59CHL1    H8 6787   0.708  -0.034   9.850 -0.7889  0.9420 -2.1987
   59CHL1   C14 6788   0.721   0.153   9.758  0.4453 -0.5780 -0.0592
   59CHL1   H14 6789   0.745   0.254   9.796 -0.8895 -0.1339 -0.3418
   59CHL1   C15 6790   0.576   0.183   9.693 -0.2188 -0.0355 -0.2358
   59CHL1  H15A 6791   0.517   0.092   9.669 -0.6464  0.1164  0.2201
   59CHL1  H15B 6792   0.511   0.248   9.756 -0.3440 -0.7690  0.4193
   59CHL1   C16 6793   0.615   0.255   9.562 -0.6748  0.3566 -0.1302
   59CHL1  H16A 6794   0.561   0.213   9.475 -3.1271  1.6001  0.7097
   59CHL1  H16B 6795   0.575   0.359   9.555 -2.1261 -0.0403  1.5675
   59CHL1   C17 6796   0.771   0.242   9.538 -0.0825  0.3680  0.2310
   59CHL1   H17 6797   0.808   0.343   9.568 -1.4460  1.3682 -1.2267
   59CHL1   C13 6798   0.813   0.133   9.640  0.1481  0.4147  0.6364
   59CHL1   C18 6799   0.792  -0.009   9.577 -0.3339 -0.2277 -0.0814
   59CHL1  H18A 6800   0.792  -0.088   9.656 -0.3694  0.7310  0.9018
   59CHL1  H18B 6801   0.694  -0.021   9.526  1.1678 -0.3992 -3.1082
   59CHL1  H18C 6802   0.871  -0.035   9.504  0.1929  2.3184 -0.5026
   59CHL1   C12 6803   0.953   0.147   9.700  0.4333  0.1048 -0.1680
   59CHL1  H12A 6804   1.040   0.129   9.633  1.3436 -0.5333  1.1624
   59CHL1  H12B 6805   0.962   0.252   9.736 -1.7519  0.7617 -1.3568
   59CHL1   C11 6806   0.974   0.053   9.821 -0.0952  0.7084  0.4404
   59CHL1  H11A 6807   0.966  -0.047   9.772  1.6408 -1.2108  3.7132
   59CHL1  H11B 6808   1.080   0.051   9.854 -0.0195  0.4092  0.1814
   59CHL1    C9 6809   0.872   0.071   9.936  0.3847  0.6489 -0.0994
   59CHL1    H9 6810   0.892   0.176   9.963 -1.1999  1.2419 -1.0892
   59CHL1   C10 6811   0.895  -0.016  10.063  0.5864 -0.8467 -0.1938
   59CHL1   C19 6812   0.918  -0.160  10.014  0.0346  0.1075 -0.7091
   59CHL1  H19A 6813   0.988  -0.164   9.929  1.8581  1.1469  0.6639
   59CHL1  H19B 6814   0.936  -0.225  10.102 -1.4340 -0.3127 -0.6985
   59CHL1  H19C 6815   0.822  -0.192   9.969 -0.0036 -2.2027  0.8692
   59CHL1    C1 6816   1.028   0.037  10.120 -0.7429  0.3491 -0.0461
   59CHL1   H1A 6817   1.117   0.006  10.061 -0.2845  0.7666  0.4172
   59CHL1   H1B 6818   1.021   0.147  10.129 -1.5460  0.2576  0.5960
   59CHL1    C2 6819   1.065   0.001  10.267  0.3930  0.2517  0.0043
   59CHL1   H2A 6820   1.140   0.066  10.316 -0.6722  0.6391  1.1746
   59CHL1   H2B 6821   1.095  -0.105  10.276 -0.3350  0.2145  2.5502
   59CHL1   C20 6822   0.817   0.222   9.390 -0.2807  0.1378 -0.4486
   59CHL1   H20 6823   0.771   0.126   9.360 -1.0296  0.7275 -1.2384
   59CHL1   C21 6824   0.966   0.211   9.384  0.1006  0.3248  0.0264
   59CHL1  H21A 6825   1.010   0.291   9.448 -0.8824  2.3449 -1.6987
   59CHL1  H21B 6826   1.006   0.221   9.280 -1.3476  0.4167 -0.5407
   59CHL1  H21C 6827   1.014   0.114   9.410  2.8409  0.4976 -3.5033
   59CHL1   C22 6828   0.765   0.336   9.297  0.0609 -0.3976 -0.2205
   59CHL1  H22A 6829   0.656   0.338   9.315 -0.1544 -1.6603 -1.2497
   59CHL1  H22B 6830   0.814   0.432   9.324 -0.5576  0.6744 -2.7041
   59CHL1   C23 6831   0.785   0.307   9.151 -0.2981 -0.0658 -0.1677
   59CHL1  H23A 6832   0.761   0.402   9.098 -1.3576 -0.0196  0.3751
   59CHL1  H23B 6833   0.892   0.290   9.130  0.0934  0.4255  1.3447
   59CHL1   C24 6834   0.693   0.189   9.102  0.2362 -0.1103  0.5100
   59CHL1  H24A 6835   0.743   0.102   9.150 -0.7444 -0.1188  1.5445
   59CHL1  H24B 6836   0.592   0.206   9.144  1.0764  1.6550  1.9462
   59CHL1   C25 6837   0.703   0.163   8.947  0.2402  0.4849 -0.1948
   59CHL1   H25 6838   0.682   0.258   8.893  0.1670 -0.9105 -2.8420
   59CHL1   C26 6839   0.847   0.126   8.921  0.7256  0.1818  0.5296
   59CHL1  H26A 6840   0.913   0.214   8.934 -0.5239  1.3086 -0.5254
   59CHL1  H26B 6841   0.866   0.029   8.973 -2.3728 -1.0530 -0.4196
   59CHL1  H26C 6842   0.859   0.106   8.813 -2.2516  3.2167 -0.5171
   59CHL1   C27 6843   0.593   0.066   8.904 -0.4390  0.2840  0.4276
   59CHL1  H27A 6844   0.605  -0.037   8.944 -0.6601  0.2061  0.2929
   59CHL1  H27B 6845   0.492   0.103   8.929 -0.7478  0.8064 -1.4713
   59CHL1  H27C 6846   0.586   0.059   8.794  0.4247 -2.1336  0.4602
   60CHL1    C3 6847   1.901   2.667  10.262  0.4788  0.2588  0.1764
   60CHL1    H3 6848   2.010   2.680  10.280  0.4753 -1.0954  1.3337
   60CHL1    O3 6849   1.848   2.644  10.386  0.4319  0.2301 -0.1940
   60CHL1   H3' 6850   1.762   2.602  10.371  0.1278  1.2841 -1.7467
   60CHL1    C4 6851   1.841   2.790  10.193  0.6041 -0.1757 -0.0281
   60CHL1   H4A 6852   1.731   2.777  10.202  0.8383 -1.8236  0.7229
   60CHL1   H4B 6853   1.864   2.879  10.255  1.7294 -0.6025  0.1766
   60CHL1    C5 6854   1.894   2.821  10.053 -0.3398  0.4253  0.2156
   60CHL1    C6 6855   1.944   2.936  10.005 -0.0480 -0.1556 -0.0853
   60CHL1    H6 6856   1.958   3.017  10.077  0.7892 -1.3836  1.1834
   60CHL1    C7 6857   1.975   2.965   9.859 -0.6822  1.0469 -0.0528
   60CHL1   H7A 6858   1.927   3.061   9.828 -1.0482  0.6544 -0.7515
   60CHL1   H7B 6859   2.082   2.969   9.830 -0.6129 -2.0196 -0.6367
   60CHL1    C8 6860   1.915   2.855   9.761  0.2838 -0.2160  0.4342
   60CHL1    H8 6861   1.807   2.875   9.741  0.3657 -1.2194 -1.1632
   60CHL1   C14 6862   1.985   2.867   9.630  0.1219  0.1543 -0.0444
   60CHL1   H14 6863   2.086   2.827   9.650 -0.8961 -2.5574  0.0794
   60CHL1   C15 6864   1.994   3.006   9.557 -0.7947 -0.9822  0.5995
   60CHL1  H15A 6865   1.897   3.059   9.554 -0.9275 -1.2696 -0.7200
   60CHL1  H15B 6866   2.067   3.070   9.611 -1.2316  0.4375 -0.4562
   60CHL1   C16 6867   2.047   2.972   9.417 -0.1535  0.0117 -0.1381
   60CHL1  H16A 6868   1.989   3.031   9.343 -0.1309 -0.9398 -0.9436
   60CHL1  H16B 6869   2.154   3.001   9.412  0.3471 -0.8762  3.1567
   60CHL1   C17 6870   2.029   2.814   9.395 -0.3352 -0.5128 -1.0926
   60CHL1   H17 6871   2.129   2.770   9.416 -0.1849  1.2156  2.5527
   60CHL1   C13 6872   1.939   2.773   9.520 -0.4973 -0.2810 -0.1250
   60CHL1   C18 6873   1.794   2.804   9.480 -0.0670  0.0654 -0.1528
   60CHL1  H18A 6874   1.759   2.733   9.402 -1.2987  1.6781 -1.0986
   60CHL1  H18B 6875   1.733   2.801   9.573  0.8316  1.2092  0.5004
   60CHL1  H18C 6876   1.778   2.903   9.434  1.7958  1.3606  1.7995
   60CHL1   C12 6877   1.949   2.631   9.570  0.0271  0.3135 -0.1165
   60CHL1  H12A 6878   1.908   2.554   9.501 -1.4078 -0.0551  1.0892
   60CHL1  H12B 6879   2.055   2.614   9.599  1.0354  4.9921 -0.2220
   60CHL1   C11 6880   1.866   2.608   9.705 -0.2468 -0.5517 -0.3851
   60CHL1  H11A 6881   1.759   2.627   9.684  0.2427  2.0154 -0.8645
   60CHL1  H11B 6882   1.884   2.506   9.745 -2.8170 -0.9012  0.0062
   60CHL1    C9 6883   1.919   2.712   9.811 -0.7511 -0.0320 -0.1141
   60CHL1    H9 6884   2.026   2.685   9.824 -0.9197 -1.4694 -1.3973
   60CHL1   C10 6885   1.857   2.701   9.959  0.2059  0.5153  0.4732
   60CHL1   C19 6886   1.705   2.683   9.942 -0.2230  0.3039 -0.3979
   60CHL1  H19A 6887   1.681   2.591   9.885  4.2035 -1.7588  0.6892
   60CHL1  H19B 6888   1.658   2.666  10.041 -0.6101  0.3075 -0.5775
   60CHL1  H19C 6889   1.653   2.772   9.900 -1.5436  0.3609  1.2568
   60CHL1    C1 6890   1.918   2.570  10.027 -0.6663  0.1695  0.0946
   60CHL1   H1A 6891   1.876   2.480   9.976  0.7184 -1.0311  1.0158
   60CHL1   H1B 6892   2.028   2.576  10.016 -0.7430  0.8123 -0.3542
   60CHL1    C2 6893   1.880   2.546  10.171 -0.6549  0.3690  1.0145
   60CHL1   H2A 6894   1.935   2.458  10.212  0.5159  1.7295  2.5034
   60CHL1   H2B 6895   1.775   2.515  10.184 -0.8488 -1.0007 -2.6117
   60CHL1   C20 6896   1.989   2.781   9.254  0.7134  1.1588 -0.2812
   60CHL1   H20 6897   1.895   2.833   9.226  0.2135 -0.0673 -0.9394
   60CHL1   C21 6898   1.979   2.625   9.249  0.4478  0.2647 -0.0006
   60CHL1  H21A 6899   1.890   2.588   9.303 -0.3760  1.5626 -0.4243
   60CHL1  H21B 6900   2.063   2.576   9.304 -1.3905 -0.6904  2.0870
   60CHL1  H21C 6901   1.974   2.580   9.148 -2.6635  1.2382 -0.3808
   60CHL1   C22 6902   2.093   2.818   9.141  0.6542 -0.5841 -0.1893
   60CHL1  H22A 6903   2.102   2.929   9.135 -0.0342 -0.5161 -0.0301
   60CHL1  H22B 6904   2.195   2.779   9.159  1.8231  1.1990 -2.5097
   60CHL1   C23 6905   2.062   2.779   8.990 -0.2061  0.2190  0.1675
   60CHL1  H23A 6906   2.055   2.669   8.978  0.3015  0.1037  0.9039
   60CHL1  H23B 6907   1.959   2.808   8.959 -0.3316 -0.7129 -0.3215
   60CHL1   C24 6908   2.166   2.849   8.895  0.1207 -0.2496 -0.4169
   60CHL1  H24A 6909   2.156   2.959   8.894 -1.4418 -0.3708 -0.0960
   60CHL1  H24B 6910   2.269   2.818   8.923 -0.2437 -2.6619 -1.4622
   60CHL1   C25 6911   2.158   2.802   8.749 -0.0055  0.2205  0.4299
   60CHL1   H25 6912   2.178   2.695   8.727  0.2250  0.1405  1.0122
   60CHL1   C26 6913   2.029   2.826   8.682 -0.0625 -0.4437  0.7969
   60CHL1  H26A 6914   2.021   2.937   8.678  2.2415 -0.2515 -0.6593
   60CHL1  H26B 6915   2.030   2.784   8.579  0.9763  0.5804  0.3586
   60CHL1  H26C 6916   1.940   2.786   8.735 -0.2438 -0.7936  0.2293
   60CHL1   C27 6917   2.269   2.864   8.658  0.7433  0.7683 -0.1190
   60CHL1  H27A 6918   2.369   2.823   8.683  2.0556  2.1094 -2.8042
   60CHL1  H27B 6919   2.250   2.831   8.554  0.3372 -0.2185  0.2622
   60CHL1  H27C 6920   2.272   2.975   8.662 -0.3764  0.8767 -1.4669
   61CHL1    C3 6921   3.563   4.877  10.438  0.0124  0.5602  0.0270
   61CHL1    H3 6922   3.512   4.974  10.425 -0.7036  0.0677 -0.9338
   61CHL1    O3 6923   3.595   4.855  10.577 -0.3472 -0.2088  0.2496
   61CHL1   H3' 6924   3.651   4.777  10.570 -0.3195 -0.1453 -0.2029
   61CHL1    C4 6925   3.461   4.768  10.398 -0.4076  0.2931  0.2181
   61CHL1   H4A 6926   3.517   4.673  10.415  0.6953  0.6079 -1.4055
   61CHL1   H4B 6927   3.366   4.784  10.453 -1.0009 -0.0294 -0.6899
   61CHL1    C5 6928   3.433   4.763  10.251  0.1486 -1.0320 -0.9296
   61CHL1    C6 6929   3.305   4.762  10.206 -0.3796  0.2776  0.8836
   61CHL1    H6 6930   3.220   4.745  10.274 -1.5044 -0.8383 -0.7343
   61CHL1    C7 6931   3.268   4.767  10.059 -0.0490 -0.6806  0.1158
   61CHL1   H7A 6932   3.176   4.713  10.028  1.4914 -2.0111 -2.5299
   61CHL1   H7B 6933   3.261   4.876  10.036  2.3145 -0.3916  0.4734
   61CHL1    C8 6934   3.387   4.731   9.961 -0.0502  0.8697  0.8388
   61CHL1    H8 6935   3.403   4.622   9.952  1.5429  1.1717 -0.4116
   61CHL1   C14 6936   3.355   4.770   9.815 -0.1943 -0.2599 -0.5912
   61CHL1   H14 6937   3.370   4.880   9.815 -0.3913 -0.2147 -1.9205
   61CHL1   C15 6938   3.218   4.750   9.761 -0.3236 -0.1784  0.0891
   61CHL1  H15A 6939   3.173   4.652   9.790 -1.0118  0.5538  1.5884
   61CHL1  H15B 6940   3.149   4.834   9.783  0.7146  0.4360  1.0795
   61CHL1   C16 6941   3.234   4.748   9.607  0.5325  0.6936  0.2093
   61CHL1  H16A 6942   3.215   4.645   9.569  0.2518  0.3042  1.3808
   61CHL1  H16B 6943   3.163   4.816   9.555 -1.1283 -0.0869  1.3713
   61CHL1   C17 6944   3.387   4.788   9.578  0.1452  0.1445 -0.0639
   61CHL1   H17 6945   3.390   4.898   9.587 -0.1620  0.1327  0.2576
   61CHL1   C13 6946   3.458   4.731   9.707  0.2823 -0.5139  0.1329
   61CHL1   C18 6947   3.463   4.576   9.693  0.4584  1.0838 -0.3533
   61CHL1  H18A 6948   3.367   4.530   9.661 -1.4373  2.2657  3.0656
   61CHL1  H18B 6949   3.544   4.550   9.621 -1.0671 -0.8408 -1.4667
   61CHL1  H18C 6950   3.490   4.526   9.789 -1.4187 -1.4351 -1.0533
   61CHL1   C12 6951   3.592   4.792   9.747 -0.1852 -0.1893  0.3145
   61CHL1  H12A 6952   3.678   4.769   9.680 -0.3374  1.6770 -0.5741
   61CHL1  H12B 6953   3.600   4.902   9.737 -0.5148 -0.1640  0.3235
   61CHL1   C11 6954   3.628   4.754   9.891 -0.2483  0.1202 -0.2471
   61CHL1  H11A 6955   3.646   4.645   9.894  2.4261  0.4432 -1.1179
   61CHL1  H11B 6956   3.728   4.797   9.915  0.6899 -0.5230 -2.6868
   61CHL1    C9 6957   3.522   4.793  10.003 -0.1838  0.6585  0.0680
   61CHL1    H9 6958   3.505   4.903  10.006  2.1810  1.1092 -0.6637
   61CHL1   C10 6959   3.560   4.767  10.153  0.1691  0.3681 -1.0047
   61CHL1   C19 6960   3.625   4.626  10.175 -0.0766 -0.3906  0.1493
   61CHL1  H19A 6961   3.718   4.623  10.114  0.5941 -1.3432  1.1859
   61CHL1  H19B 6962   3.649   4.601  10.280 -1.6577  0.5350  0.7674
   61CHL1  H19C 6963   3.552   4.553  10.135 -0.1413 -0.9620  1.2841
   61CHL1    C1 6964   3.659   4.880  10.203 -0.2923  0.1979  0.2958
   61CHL1   H1A 6965   3.753   4.875  10.144  0.1164  0.5787  0.9016
   61CHL1   H1B 6966   3.611   4.979  10.186  0.0728 -0.0316 -2.5845
   61CHL1    C2 6967   3.692   4.875  10.355  0.0402 -0.2871  1.2483
   61CHL1   H2A 6968   3.748   4.967  10.382  0.6015  0.2651 -1.5466
   61CHL1   H2B 6969   3.752   4.784  10.378 -1.5390 -1.4591  0.9001
   61CHL1   C20 6970   3.446   4.748   9.442  0.0358  0.3251 -0.1871
   61CHL1   H20 6971   3.464   4.639   9.436 -1.9752  0.0196 -2.3815
   61CHL1   C21 6972   3.579   4.830   9.411  0.0933 -0.4715 -0.5061
   61CHL1  H21A 6973   3.615   4.821   9.307  1.5362  3.4077 -0.5182
   61CHL1  H21B 6974   3.665   4.798   9.474  0.2059  1.0028  0.1389
   61CHL1  H21C 6975   3.543   4.935   9.416 -0.6685 -0.7741  1.5135
   61CHL1   C22 6976   3.338   4.765   9.325 -0.0233 -0.2145  0.2805
   61CHL1  H22A 6977   3.243   4.723   9.362  0.2186 -0.0679  1.0936
   61CHL1  H22B 6978   3.327   4.876   9.321  0.4118 -0.2138 -1.2484
   61CHL1   C23 6979   3.362   4.711   9.183 -0.2275  0.0053  0.1748
   61CHL1  H23A 6980   3.422   4.788   9.131 -0.5594  0.7277  0.8352
   61CHL1  H23B 6981   3.420   4.616   9.178 -0.1963  0.0760 -0.8639
   61CHL1   C24 6982   3.239   4.694   9.088  0.1555 -0.5555  0.2445
   61CHL1  H24A 6983   3.162   4.625   9.127 -0.6400  0.7081  0.9768
   61CHL1  H24B 6984   3.187   4.792   9.082  0.1468 -0.5216  0.8080
   61CHL1   C25 6985   3.279   4.655   8.947 -0.2462  0.0439 -0.0001
   61CHL1   H25 6986   3.347   4.737   8.913  2.2619 -1.2558  1.6050
   61CHL1   C26 6987   3.372   4.531   8.928  0.1540 -0.0180 -0.3368
   61CHL1  H26A 6988   3.343   4.437   8.980  2.0980 -1.0580 -1.0103
   61CHL1  H26B 6989   3.392   4.510   8.821  1.8824  0.5752 -0.1543
   61CHL1  H26C 6990   3.466   4.563   8.979  0.8477 -2.8732  0.3854
   61CHL1   C27 6991   3.160   4.644   8.849 -0.2341  0.4804 -0.3444
   61CHL1  H27A 6992   3.118   4.542   8.838  0.1985  0.1753  0.7807
   61CHL1  H27B 6993   3.076   4.714   8.868  0.0464  0.5136  0.8391
   61CHL1  H27C 6994   3.202   4.663   8.748 -0.7306  0.5757 -0.5346
   62CHL1    C3 6995   6.356   1.768   9.956  0.9250  0.7708 -0.2996
   62CHL1    H3 6996   6.363   1.660   9.980 -2.6143 -0.1381 -2.5763
   62CHL1    O3 6997   6.348   1.832  10.080 -0.1967  0.2211 -0.4967
   62CHL1   H3' 6998   6.260   1.822  10.119  0.7848 -1.2600  1.5396
   62CHL1    C4 6999   6.481   1.819   9.870  0.0933 -0.0309  0.3984
   62CHL1   H4A 7000   6.476   1.930   9.875 -2.6357 -0.0828  0.5315
   62CHL1   H4B 7001   6.572   1.799   9.930 -1.1371  0.5432  2.5459
   62CHL1    C5 7002   6.488   1.778   9.727  0.3162  0.5362  0.2362
   62CHL1    C6 7003   6.599   1.732   9.667 -0.6239  0.2339 -0.3967
   62CHL1    H6 7004   6.694   1.742   9.720 -0.9397  0.6584  0.1001
   62CHL1    C7 7005   6.610   1.700   9.522 -0.1786  0.6208  0.2905
   62CHL1   H7A 7006   6.695   1.758   9.480  1.7102 -0.7687  2.0002
   62CHL1   H7B 7007   6.645   1.595   9.517 -0.3262  0.5755  0.2079
   62CHL1    C8 7008   6.477   1.725   9.447  0.4238  0.3777 -0.4031
   62CHL1    H8 7009   6.477   1.834   9.425 -0.0301  1.1113  2.7453
   62CHL1   C14 7010   6.476   1.645   9.313 -0.0788 -0.2824  0.2453
   62CHL1   H14 7011   6.479   1.539   9.345 -0.4452 -0.8803 -1.6055
   62CHL1   C15 7012   6.605   1.652   9.239  0.3561 -0.4278  0.2153
   62CHL1  H15A 7013   6.651   1.752   9.230 -0.9383  0.1980  0.3036
   62CHL1  H15B 7014   6.689   1.591   9.278 -0.8158 -1.6666  0.9069
   62CHL1   C16 7015   6.573   1.598   9.098 -0.4372  0.3369  0.0161
   62CHL1  H16A 7016   6.604   1.668   9.018  0.5926 -0.3098 -0.1684
   62CHL1  H16B 7017   6.618   1.498   9.082 -1.7642 -0.4432  0.9428
   62CHL1   C17 7018   6.414   1.573   9.104  0.2252 -0.1334  1.0746
   62CHL1   H17 7019   6.409   1.470   9.146 -1.5919  0.0288  1.3467
   62CHL1   C13 7020   6.368   1.664   9.219 -0.0291 -0.3287  0.3405
   62CHL1   C18 7021   6.364   1.807   9.162  0.0506  0.7083  0.6504
   62CHL1  H18A 7022   6.448   1.838   9.096 -2.1185  1.8270 -1.7444
   62CHL1  H18B 7023   6.267   1.834   9.115 -0.8593  0.0663  2.1125
   62CHL1  H18C 7024   6.382   1.870   9.252  2.1320 -2.2292  2.4783
   62CHL1   C12 7025   6.243   1.621   9.305  0.2437 -0.4723  0.5900
   62CHL1  H12A 7026   6.150   1.629   9.245  0.1376 -1.8977  0.5263
   62CHL1  H12B 7027   6.256   1.517   9.342  1.1454 -0.6198 -0.0931
   62CHL1   C11 7028   6.230   1.717   9.423 -0.1801  0.0578 -0.3621
   62CHL1  H11A 7029   6.216   1.823   9.391  0.0899  1.1559  2.8350
   62CHL1  H11B 7030   6.140   1.687   9.481 -0.2310  1.8448  0.5592
   62CHL1    C9 7031   6.346   1.699   9.524 -0.8797 -0.7434 -0.2121
   62CHL1    H9 7032   6.341   1.591   9.550  2.1758 -1.0918 -0.6280
   62CHL1   C10 7033   6.343   1.787   9.657 -0.4726 -0.4899  0.5738
   62CHL1   C19 7034   6.307   1.937   9.623 -0.3370 -0.3259  0.1676
   62CHL1  H19A 7035   6.360   1.957   9.528 -2.0659  0.8716 -0.6071
   62CHL1  H19B 7036   6.200   1.943   9.594 -0.7751 -1.3249  1.4465
   62CHL1  H19C 7037   6.321   2.006   9.709 -0.1895 -0.8173  0.5469
   62CHL1    C1 7038   6.236   1.721   9.749 -0.0390  0.1558  0.1517
   62CHL1   H1A 7039   6.138   1.730   9.698 -0.0775  1.6745  0.4557
   62CHL1   H1B 7040   6.250   1.614   9.774 -4.2332 -0.8683 -1.1593
   62CHL1    C2 7041   6.228   1.794   9.882  0.1041  0.1154  0.2448
   62CHL1   H2A 7042   6.148   1.747   9.944 -0.1974 -0.4040 -0.5252
   62CHL1   H2B 7043   6.211   1.904   9.881 -1.2822 -0.0506  1.1949
   62CHL1   C20 7044   6.341   1.579   8.969 -0.1276 -0.2153 -0.7729
   62CHL1   H20 7045   6.351   1.684   8.935  0.8752 -0.0443 -0.0108
   62CHL1   C21 7046   6.191   1.545   8.989 -0.8022  0.4384 -0.1508
   62CHL1  H21A 7047   6.165   1.500   8.890  0.2178 -0.7058  0.0717
   62CHL1  H21B 7048   6.144   1.645   8.993  0.9971  1.2926  0.7795
   62CHL1  H21C 7049   6.166   1.479   9.074  0.6949 -0.5815 -0.4603
   62CHL1   C22 7050   6.420   1.479   8.876 -0.4584 -0.0129  0.0881
   62CHL1  H22A 7051   6.522   1.520   8.861 -0.8785  0.9952 -0.1279
   62CHL1  H22B 7052   6.418   1.375   8.915  2.0509 -0.5859 -1.0978
   62CHL1   C23 7053   6.368   1.486   8.729 -0.0126  0.6202 -0.4757
   62CHL1  H23A 7054   6.263   1.457   8.705  0.3108 -0.3018 -0.8617
   62CHL1  H23B 7055   6.379   1.595   8.715  1.5797  0.3553 -1.5176
   62CHL1   C24 7056   6.464   1.407   8.641  0.3578 -0.2232  0.5247
   62CHL1  H24A 7057   6.567   1.414   8.683  0.5918  1.7069 -0.3041
   62CHL1  H24B 7058   6.430   1.302   8.626  0.6569 -0.0603 -1.5021
   62CHL1   C25 7059   6.493   1.468   8.498  0.6695  0.7031 -0.1644
   62CHL1   H25 7060   6.516   1.575   8.517  0.2053  0.4284  2.2440
   62CHL1   C26 7061   6.601   1.400   8.425 -0.6270  0.3571 -0.8220
   62CHL1  H26A 7062   6.701   1.403   8.474 -0.1643 -0.0482 -1.7100
   62CHL1  H26B 7063   6.566   1.299   8.393  0.5187 -0.1461 -0.5350
   62CHL1  H26C 7064   6.627   1.445   8.327  0.2334 -0.3186 -0.9229
   62CHL1   C27 7065   6.363   1.443   8.417  0.1280 -0.3269  0.8212
   62CHL1  H27A 7066   6.283   1.506   8.463  0.5427 -0.1126  1.2504
   62CHL1  H27B 7067   6.377   1.470   8.310 -0.6307 -1.6289  0.3700
   62CHL1  H27C 7068   6.346   1.334   8.412  3.8046 -0.9764 -2.8153
   63CHL1    C3 7069   0.279   3.234  10.373 -0.1789  0.1269 -0.3789
   63CHL1    H3 7070   0.301   3.135  10.327 -1.4533 -1.2204  1.7400
   63CHL1    O3 7071   0.294   3.214  10.518 -0.5895  0.1226 -0.1346
   63CHL1   H3' 7072   0.203   3.199  10.545 -0.9663  0.1691 -1.2927
   63CHL1    C4 7073   0.368   3.345  10.325 -0.1741 -0.4918 -0.0984
   63CHL1   H4A 7074   0.330   3.436  10.375  0.2261  0.6465 -1.7999
   63CHL1   H4B 7075   0.475   3.344  10.356 -0.5129  1.9228  1.3814
   63CHL1    C5 7076   0.365   3.343  10.171  0.3503  0.0512 -1.0160
   63CHL1    C6 7077   0.475   3.313  10.100 -0.2013 -0.0639  0.5095
   63CHL1    H6 7078   0.568   3.295  10.156 -0.1726  1.9560  1.1935
   63CHL1    C7 7079   0.482   3.324   9.947 -0.1983 -0.0452 -0.8189
   63CHL1   H7A 7080   0.571   3.375   9.906 -0.5085  1.0243 -0.2078
   63CHL1   H7B 7081   0.481   3.224   9.899  1.3852 -0.4141 -0.1254
   63CHL1    C8 7082   0.358   3.391   9.885  0.3157  0.3761 -0.5969
   63CHL1    H8 7083   0.366   3.499   9.907 -2.1898  0.5815 -0.3491
   63CHL1   C14 7084   0.354   3.365   9.734 -0.2214 -0.0864 -0.5067
   63CHL1   H14 7085   0.342   3.255   9.737 -1.6181  0.0440 -0.1479
   63CHL1   C15 7086   0.484   3.394   9.659 -0.1170 -0.3297  0.2112
   63CHL1  H15A 7087   0.535   3.487   9.695 -0.2034  0.2315 -1.0497
   63CHL1  H15B 7088   0.567   3.321   9.672  2.9051  2.3603 -2.2444
   63CHL1   C16 7089   0.434   3.403   9.515 -0.1797  0.1527 -0.3452
   63CHL1  H16A 7090   0.457   3.499   9.464  3.7774  0.1395  1.0584
   63CHL1  H16B 7091   0.484   3.321   9.459 -0.2522  1.3238 -2.1936
   63CHL1   C17 7092   0.280   3.377   9.519  0.4650  0.2081  0.6496
   63CHL1   H17 7093   0.248   3.271   9.510  2.5223 -0.3004 -1.7205
   63CHL1   C13 7094   0.233   3.420   9.660 -0.4004  0.3436  0.1117
   63CHL1   C18 7095   0.229   3.580   9.668  0.3288  0.6480  0.2007
   63CHL1  H18A 7096   0.123   3.602   9.642 -0.5439 -1.4450  1.7185
   63CHL1  H18B 7097   0.239   3.603   9.776 -1.3426 -1.7011  0.9419
   63CHL1  H18C 7098   0.311   3.633   9.614  1.2828  2.1866  2.9881
   63CHL1   C12 7099   0.117   3.359   9.724  0.5413  0.6409  0.0818
   63CHL1  H12A 7100   0.023   3.393   9.676  0.0748 -0.1536  0.4157
   63CHL1  H12B 7101   0.128   3.249   9.715 -1.7783  0.3824 -0.2768
   63CHL1   C11 7102   0.103   3.386   9.882 -0.1003  0.2747  0.5896
   63CHL1  H11A 7103   0.100   3.497   9.894  0.4875  0.2711  0.8379
   63CHL1  H11B 7104   0.013   3.342   9.928 -0.9382  1.4975  0.1572
   63CHL1    C9 7105   0.233   3.338   9.956 -0.3517 -0.3453  0.2513
   63CHL1    H9 7106   0.246   3.229   9.942 -1.4052 -0.3318 -1.0400
   63CHL1   C10 7107   0.226   3.368  10.103 -0.0784  0.7189  0.4835
   63CHL1   C19 7108   0.195   3.516  10.132  0.4182 -0.5334 -0.1686
   63CHL1  H19A 7109   0.188   3.517  10.243 -2.3407 -1.0305 -0.2518
   63CHL1  H19B 7110   0.277   3.580  10.093 -0.3545 -0.7480 -2.2648
   63CHL1  H19C 7111   0.097   3.542  10.088  0.0804 -0.3872  0.6458
   63CHL1    C1 7112   0.116   3.276  10.180 -0.8026 -0.2265  0.6800
   63CHL1   H1A 7113   0.018   3.316  10.146 -0.1678  1.6193  0.9479
   63CHL1   H1B 7114   0.145   3.179  10.134  2.6400  0.0180  2.0544
   63CHL1    C2 7115   0.133   3.266  10.329  0.0284  0.2216  0.2445
   63CHL1   H2A 7116   0.066   3.185  10.365  1.6477 -1.2884 -0.0238
   63CHL1   H2B 7117   0.106   3.363  10.374  2.1501  1.1698 -0.4014
   63CHL1   C20 7118   0.204   3.447   9.402 -0.5703  0.2867 -0.3989
   63CHL1   H20 7119   0.220   3.557   9.405 -1.6062  0.5559 -2.7847
   63CHL1   C21 7120   0.055   3.426   9.408 -0.4329  0.6442  0.0226
   63CHL1  H21A 7121   0.007   3.462   9.501  0.5586  0.6636  0.5377
   63CHL1  H21B 7122   0.018   3.324   9.388 -1.3174  1.3523 -2.2791
   63CHL1  H21C 7123   0.012   3.493   9.330 -0.1503 -0.5706 -1.2233
   63CHL1   C22 7124   0.269   3.407   9.266  0.0039  0.3105  0.2100
   63CHL1  H22A 7125   0.231   3.471   9.183 -2.1324 -0.8640  0.2086
   63CHL1  H22B 7126   0.379   3.414   9.273  0.0588 -0.5319  0.2492
   63CHL1   C23 7127   0.239   3.261   9.220 -0.2810  0.3744 -0.2131
   63CHL1  H23A 7128   0.237   3.202   9.315 -0.6630  1.4979  0.4959
   63CHL1  H23B 7129   0.134   3.248   9.185 -0.8057  2.3490  0.4925
   63CHL1   C24 7130   0.325   3.188   9.111  0.2780 -0.6358 -0.7009
   63CHL1  H24A 7131   0.435   3.194   9.125  0.2139 -0.3951 -0.2619
   63CHL1  H24B 7132   0.296   3.081   9.098 -4.2707  0.1239  1.1278
   63CHL1   C25 7133   0.288   3.259   8.979  0.1102  0.4988  0.2179
   63CHL1   H25 7134   0.308   3.368   8.994 -0.6857  0.8075 -0.8979
   63CHL1   C26 7135   0.394   3.215   8.875  0.2855 -0.2288  0.6504
   63CHL1  H26A 7136   0.383   3.286   8.790 -0.6115 -0.9082  0.1825
   63CHL1  H26B 7137   0.499   3.224   8.910 -0.1254 -3.4121  3.1222
   63CHL1  H26C 7138   0.390   3.107   8.848  0.4737 -0.5470  1.8344
   63CHL1   C27 7139   0.141   3.241   8.938  0.5581  0.4497 -0.2834
   63CHL1  H27A 7140   0.122   3.132   8.929  0.9113  0.2168  1.4485
   63CHL1  H27B 7141   0.066   3.289   9.004 -0.8115  0.1059 -1.5159
   63CHL1  H27C 7142   0.139   3.293   8.839 -1.9051  0.5596 -0.2411
   64CHL1    C3 7143   0.305   2.707  10.167  0.3581 -0.8647  0.0249
   64CHL1    H3 7144   0.388   2.632  10.171  1.3547  0.0743 -1.8694
   64CHL1    O3 7145   0.237   2.706  10.292  0.5695 -0.1295 -0.0914
   64CHL1   H3' 7146   0.151   2.747  10.277  0.5138 -0.1436  0.1903
   64CHL1    C4 7147   0.357   2.851  10.142 -0.2112 -0.6238 -0.3018
   64CHL1   H4A 7148   0.274   2.922  10.162  0.6278  0.0466  0.8853
   64CHL1   H4B 7149   0.432   2.870  10.222 -1.8548 -0.6269  1.2940
   64CHL1    C5 7150   0.411   2.869   9.998  0.5414  0.2893 -0.5941
   64CHL1    C6 7151   0.535   2.923   9.983  0.0631 -0.0381  0.3292
   64CHL1    H6 7152   0.598   2.957  10.067  2.2523 -1.2505 -0.7308
   64CHL1    C7 7153   0.601   2.938   9.849 -0.0927  0.0758 -0.5482
   64CHL1   H7A 7154   0.635   3.044   9.846  1.0916 -0.2024  1.1699
   64CHL1   H7B 7155   0.685   2.866   9.843 -0.8906 -0.7713 -2.0522
   64CHL1    C8 7156   0.503   2.905   9.734  0.5914 -0.5154 -0.1689
   64CHL1    H8 7157   0.443   2.998   9.719  0.7617 -0.6723 -2.0088
   64CHL1   C14 7158   0.587   2.895   9.612  0.0659 -0.2625 -0.1225
   64CHL1   H14 7159   0.648   2.804   9.628 -1.4567 -1.2587  0.2919
   64CHL1   C15 7160   0.690   3.007   9.584  0.2247 -0.2783  0.4169
   64CHL1  H15A 7161   0.626   3.096   9.598  1.6884  0.9149 -0.1918
   64CHL1  H15B 7162   0.777   3.014   9.653 -0.0161  1.7876  0.5814
   64CHL1   C16 7163   0.718   2.996   9.430 -0.0831 -0.1406  0.1226
   64CHL1  H16A 7164   0.683   3.090   9.382 -0.6562 -1.1503 -1.5194
   64CHL1  H16B 7165   0.824   2.979   9.402 -0.3340 -1.5242 -0.0510
   64CHL1   C17 7166   0.627   2.877   9.382 -0.1745 -0.1172 -0.4409
   64CHL1   H17 7167   0.687   2.785   9.399  1.9765  1.3665  0.4887
   64CHL1   C13 7168   0.507   2.879   9.485 -0.8265 -0.0737  0.9539
   64CHL1   C18 7169   0.415   2.999   9.446 -0.5009 -0.0572 -0.1598
   64CHL1  H18A 7170   0.341   2.994   9.529  1.1440 -1.2238  1.3159
   64CHL1  H18B 7171   0.475   3.093   9.446  0.5383 -0.7016 -0.2785
   64CHL1  H18C 7172   0.371   2.990   9.344 -0.8151  2.4906 -0.3032
   64CHL1   C12 7173   0.425   2.745   9.497  0.1820 -0.2007  0.5482
   64CHL1  H12A 7174   0.356   2.756   9.411  0.2965  0.2031  0.5049
   64CHL1  H12B 7175   0.496   2.660   9.490  2.4436  1.1654  4.1180
   64CHL1   C11 7176   0.341   2.750   9.627 -0.2092  0.4451  0.9519
   64CHL1  H11A 7177   0.257   2.821   9.608 -1.3945 -1.1113  0.1754
   64CHL1  H11B 7178   0.296   2.651   9.650  1.9491 -0.4840  1.3780
   64CHL1    C9 7179   0.412   2.790   9.762 -0.5703 -0.8035 -0.1645
   64CHL1    H9 7180   0.481   2.705   9.780  2.3757  1.2424 -1.0653
   64CHL1   C10 7181   0.321   2.806   9.889  0.0577  0.2383  0.0755
   64CHL1   C19 7182   0.205   2.900   9.861  0.4882 -0.0086  0.3515
   64CHL1  H19A 7183   0.157   2.957   9.944  1.8800  2.6332 -0.5391
   64CHL1  H19B 7184   0.223   2.969   9.776  0.3090 -1.5217 -0.9624
   64CHL1  H19C 7185   0.118   2.846   9.817  0.3142 -0.1273  0.8314
   64CHL1    C1 7186   0.273   2.666   9.927  0.1463 -0.0055 -1.1664
   64CHL1   H1A 7187   0.204   2.627   9.849  0.8437 -1.2435 -1.1997
   64CHL1   H1B 7188   0.362   2.601   9.942 -0.1857  0.0771  1.8172
   64CHL1    C2 7189   0.204   2.660  10.064 -0.1719 -0.3655  0.3861
   64CHL1   H2A 7190   0.166   2.557  10.076  0.3498 -0.4327  1.6261
   64CHL1   H2B 7191   0.117   2.728  10.064  0.2454  0.1789  0.7785
   64CHL1   C20 7192   0.600   2.883   9.231 -0.6900  0.0193 -0.3155
   64CHL1   H20 7193   0.526   2.963   9.212  1.5603  2.2241 -0.3372
   64CHL1   C21 7194   0.555   2.748   9.195  1.0330  0.0137  0.6361
   64CHL1  H21A 7195   0.615   2.667   9.242  0.4689 -2.2477 -2.2216
   64CHL1  H21B 7196   0.554   2.733   9.085 -1.3492 -0.5692  0.6972
   64CHL1  H21C 7197   0.451   2.736   9.231  0.5808 -2.1331 -1.1718
   64CHL1   C22 7198   0.723   2.925   9.141 -0.6696  0.3019 -0.0687
   64CHL1  H22A 7199   0.766   3.019   9.182 -0.3500  0.6374 -1.1301
   64CHL1  H22B 7200   0.809   2.855   9.151 -0.4938  0.5104 -0.1074
   64CHL1   C23 7201   0.686   2.948   9.000 -0.6478  0.0102  0.2056
   64CHL1  H23A 7202   0.638   2.860   8.952  1.4303 -0.6475 -0.7897
   64CHL1  H23B 7203   0.609   3.026   8.988 -1.8263 -0.7565  2.2682
   64CHL1   C24 7204   0.804   3.002   8.905  0.0097 -0.5855 -0.7331
   64CHL1  H24A 7205   0.841   3.095   8.952 -1.8845 -0.4996  0.7134
   64CHL1  H24B 7206   0.879   2.921   8.919  0.9460  0.6072  1.7698
   64CHL1   C25 7207   0.773   3.012   8.755  0.4171 -0.5808 -0.0986
   64CHL1   H25 7208   0.687   3.082   8.743  0.1993 -0.6756  0.8123
   64CHL1   C26 7209   0.893   3.058   8.673  0.7135 -0.1475  0.3730
   64CHL1  H26A 7210   0.972   2.983   8.690  0.9273 -0.1836 -0.7106
   64CHL1  H26B 7211   0.859   3.058   8.567 -0.4067  2.7122  0.6341
   64CHL1  H26C 7212   0.925   3.159   8.706 -2.1100  0.2902  2.1335
   64CHL1   C27 7213   0.728   2.878   8.694 -0.1161  0.0630  0.2908
   64CHL1  H27A 7214   0.643   2.832   8.748 -0.2007  0.1217  0.2061
   64CHL1  H27B 7215   0.697   2.897   8.589  0.5560 -1.6845 -0.2605
   64CHL1  H27C 7216   0.812   2.805   8.693 -0.7782 -0.6956 -0.5521
   65CHL1    C3 7217   6.794   6.553  10.433 -0.1132 -0.0721  0.3216
   65CHL1    H3 7218   6.841   6.460  10.473 -0.7811 -0.3809  0.3928
   65CHL1    O3 7219   6.709   6.604  10.536 -0.7110 -0.7952  0.3818
   65CHL1   H3' 7220   6.640   6.537  10.545 -0.8674 -1.1132 -2.5205
   65CHL1    C4 7221   6.895   6.664  10.396  0.2223 -1.1434 -0.7929
   65CHL1   H4A 7222   6.844   6.763  10.391 -0.1949 -1.3151 -0.0299
   65CHL1   H4B 7223   6.966   6.681  10.479  1.5089 -1.0460 -1.8817
   65CHL1    C5 7224   6.981   6.628  10.274 -0.2100  0.3899  0.0747
   65CHL1    C6 7225   7.117   6.628  10.277 -0.5764 -0.9542 -0.4567
   65CHL1    H6 7226   7.173   6.650  10.369  1.4663 -0.3708 -1.7737
   65CHL1    C7 7227   7.202   6.604  10.149 -0.4585 -0.2390  0.5007
   65CHL1   H7A 7228   7.271   6.691  10.137 -1.7674  0.8518  0.6903
   65CHL1   H7B 7229   7.263   6.511  10.159  0.3790  0.3504  0.9990
   65CHL1    C8 7230   7.121   6.598  10.021  0.5367 -0.1774  0.0157
   65CHL1    H8 7231   7.098   6.704   9.997  0.5518  0.5778  2.9912
   65CHL1   C14 7232   7.196   6.533   9.899 -0.4634 -0.3267 -0.2891
   65CHL1   H14 7233   7.214   6.429   9.934  2.5183  0.1852 -0.0859
   65CHL1   C15 7234   7.328   6.597   9.871  0.3092  0.1546 -0.4062
   65CHL1  H15A 7235   7.323   6.707   9.888  2.5396 -0.0333  2.0421
   65CHL1  H15B 7236   7.399   6.551   9.942 -0.2645  0.9308  0.6996
   65CHL1   C16 7237   7.344   6.567   9.724 -0.1489  0.3289  0.6906
   65CHL1  H16A 7238   7.371   6.662   9.673  0.5405  0.6753  1.6636
   65CHL1  H16B 7239   7.436   6.506   9.711 -0.1980  0.6223 -1.5118
   65CHL1   C17 7240   7.219   6.489   9.666  0.5042 -0.2246 -0.4376
   65CHL1   H17 7241   7.229   6.381   9.689 -0.5046 -0.0640  0.8559
   65CHL1   C13 7242   7.113   6.537   9.770  0.3783 -0.3579  0.1501
   65CHL1   C18 7243   7.076   6.682   9.736 -0.1939 -0.4512  0.3467
   65CHL1  H18A 7244   7.007   6.730   9.808 -1.2986  0.8056 -1.4799
   65CHL1  H18B 7245   7.161   6.747   9.705  1.1392  0.1772  4.6621
   65CHL1  H18C 7246   7.007   6.666   9.651 -0.7319  0.6595  0.5612
   65CHL1   C12 7247   6.997   6.446   9.790 -0.7213  0.1920  0.2359
   65CHL1  H12A 7248   6.949   6.426   9.692  1.6169 -1.6394 -0.6368
   65CHL1  H12B 7249   7.031   6.345   9.821 -1.3818 -0.4239 -0.9666
   65CHL1   C11 7250   6.904   6.489   9.895  0.0731  0.2770 -0.2608
   65CHL1  H11A 7251   6.855   6.585   9.864  0.2112  1.1854  2.1637
   65CHL1  H11B 7252   6.833   6.410   9.925  0.8147  0.8895  3.6819
   65CHL1    C9 7253   6.983   6.529  10.031  0.1501  1.0831  0.3945
   65CHL1    H9 7254   7.009   6.427  10.064  2.3215  1.8564  1.2632
   65CHL1   C10 7255   6.898   6.582  10.143 -0.2975 -0.4935  0.6049
   65CHL1   C19 7256   6.829   6.706  10.089 -0.7232  0.3617  0.2922
   65CHL1  H19A 7257   6.769   6.755  10.169  0.8446  0.2708  1.5736
   65CHL1  H19B 7258   6.899   6.775  10.038  0.2645  0.5871  1.9062
   65CHL1  H19C 7259   6.746   6.678  10.020 -0.1533 -4.3051  1.1138
   65CHL1    C1 7260   6.797   6.479  10.195 -0.0726 -0.2003  0.4483
   65CHL1   H1A 7261   6.723   6.457  10.116  0.0521  2.2142 -0.4360
   65CHL1   H1B 7262   6.848   6.386  10.226 -1.6350 -1.8540 -1.7028
   65CHL1    C2 7263   6.704   6.520  10.318 -0.3557 -0.0815  0.0435
   65CHL1   H2A 7264   6.642   6.433  10.348  0.3059 -0.4007  0.4897
   65CHL1   H2B 7265   6.640   6.602  10.279 -0.2759 -0.7185 -1.5027
   65CHL1   C20 7266   7.195   6.514   9.515 -0.1178 -0.0375  0.0334
   65CHL1   H20 7267   7.158   6.615   9.485 -0.5045 -0.5218 -1.1962
   65CHL1   C21 7268   7.095   6.408   9.462 -0.2385  0.1430  0.9919
   65CHL1  H21A 7269   7.117   6.309   9.508  2.0340  0.2739  0.2955
   65CHL1  H21B 7270   7.089   6.390   9.353 -0.4609  3.8772  0.2548
   65CHL1  H21C 7271   6.990   6.442   9.478 -1.0142  0.5921 -3.7282
   65CHL1   C22 7272   7.328   6.498   9.424 -0.1546  0.1243  0.1636
   65CHL1  H22A 7273   7.410   6.548   9.480 -1.0765  1.2389  0.5359
   65CHL1  H22B 7274   7.358   6.397   9.389  1.4609  0.8748 -0.7400
   65CHL1   C23 7275   7.318   6.579   9.291  0.0713  0.1351  0.6842
   65CHL1  H23A 7276   7.231   6.529   9.243 -1.4847  1.6114  1.8972
   65CHL1  H23B 7277   7.290   6.681   9.324  0.8849  1.2547 -1.8247
   65CHL1   C24 7278   7.436   6.597   9.190 -0.8596  0.0731 -0.4042
   65CHL1  H24A 7279   7.402   6.666   9.110 -2.3934 -1.5502 -1.2296
   65CHL1  H24B 7280   7.517   6.628   9.260 -0.1390 -0.4179 -1.0015
   65CHL1   C25 7281   7.495   6.466   9.129  0.2290 -0.0859  0.3281
   65CHL1   H25 7282   7.489   6.389   9.209  0.3938  1.7920  2.2456
   65CHL1   C26 7283   7.414   6.409   9.012  0.6841  0.0024 -0.1824
   65CHL1  H26A 7284   7.314   6.379   9.049 -0.2428  2.2083 -0.7342
   65CHL1  H26B 7285   7.408   6.477   8.924 -1.6325  2.9175  2.0224
   65CHL1  H26C 7286   7.471   6.322   8.972 -0.2972 -0.3596 -0.8268
   65CHL1   C27 7287   7.643   6.482   9.085 -0.0820  0.6052 -0.0011
   65CHL1  H27A 7288   7.685   6.382   9.061  0.6158  1.3277 -1.9825
   65CHL1  H27B 7289   7.647   6.539   8.990  0.2727  2.5216  1.1211
   65CHL1  H27C 7290   7.714   6.522   9.160  0.7225 -1.4277  0.3989
   66CHL1    C3 7291   5.626   4.835  10.494  0.4227  0.0555 -0.0753
   66CHL1    H3 7292   5.537   4.880  10.444  0.3184 -0.9843 -0.8635
   66CHL1    O3 7293   5.617   4.862  10.634  0.0338 -0.3421 -0.5383
   66CHL1   H3' 7294   5.706   4.861  10.669  0.1740 -1.8885 -0.8716
   66CHL1    C4 7295   5.632   4.683  10.449  0.4822  0.7029  0.4200
   66CHL1   H4A 7296   5.727   4.648  10.495  1.2699  1.1818 -0.7830
   66CHL1   H4B 7297   5.552   4.621  10.494  0.7654 -1.4956 -1.8897
   66CHL1    C5 7298   5.639   4.655  10.300  0.1496  0.0500  0.8869
   66CHL1    C6 7299   5.547   4.578  10.244 -0.8875  1.2380  0.4431
   66CHL1    H6 7300   5.478   4.518  10.304  1.7188  1.4066  3.9382
   66CHL1    C7 7301   5.533   4.566  10.093  0.4662  0.0941 -0.2564
   66CHL1   H7A 7302   5.531   4.460  10.061 -2.6167 -0.7248  2.1006
   66CHL1   H7B 7303   5.436   4.612  10.063  0.7165  0.6436 -0.2287
   66CHL1    C8 7304   5.646   4.635  10.011  0.1067 -0.0844 -0.1938
   66CHL1    H8 7305   5.737   4.572  10.009  0.9726  1.1001 -2.5813
   66CHL1   C14 7306   5.594   4.671   9.872  0.6965 -0.1392 -0.1843
   66CHL1   H14 7307   5.516   4.749   9.873  0.6164 -0.0982 -2.9835
   66CHL1   C15 7308   5.524   4.552   9.795  0.3133 -0.7614 -0.0022
   66CHL1  H15A 7309   5.586   4.460   9.803  1.7910 -0.1203 -2.7683
   66CHL1  H15B 7310   5.421   4.534   9.832  0.5000 -2.3510 -0.2132
   66CHL1   C16 7311   5.530   4.606   9.647 -0.5128 -0.3118  0.5541
   66CHL1  H16A 7312   5.581   4.532   9.581  0.3194 -2.5601  3.5010
   66CHL1  H16B 7313   5.426   4.608   9.610 -0.1617 -2.4726 -0.6963
   66CHL1   C17 7314   5.603   4.743   9.646 -0.5119  0.1773  0.0160
   66CHL1   H17 7315   5.530   4.822   9.674 -0.1627  0.6690 -0.4534
   66CHL1   C13 7316   5.692   4.732   9.770  0.6313 -0.6733 -0.6065
   66CHL1   C18 7317   5.817   4.639   9.751 -0.1151 -0.6721  0.2097
   66CHL1  H18A 7318   5.873   4.633   9.846  0.5665  1.5709  0.0132
   66CHL1  H18B 7319   5.775   4.547   9.704 -0.0660  0.5779 -2.5152
   66CHL1  H18C 7320   5.889   4.680   9.677  0.0816  2.0168  1.7723
   66CHL1   C12 7321   5.741   4.862   9.843  0.3994 -0.0203  0.6036
   66CHL1  H12A 7322   5.822   4.917   9.791  3.4384 -2.4771  2.3762
   66CHL1  H12B 7323   5.650   4.925   9.851  1.0983  0.9958  0.7374
   66CHL1   C11 7324   5.794   4.839   9.984 -0.1207 -0.4529  0.7834
   66CHL1  H11A 7325   5.893   4.790   9.987  1.8439  3.1685  2.5489
   66CHL1  H11B 7326   5.815   4.940  10.026  0.2863 -0.6464  1.0547
   66CHL1    C9 7327   5.691   4.763  10.073 -0.0133  0.0374 -0.0184
   66CHL1    H9 7328   5.595   4.820  10.074  0.1035  0.2641  1.7172
   66CHL1   C10 7329   5.733   4.749  10.224 -0.3569 -0.1406 -0.1007
   66CHL1   C19 7330   5.880   4.691  10.229  1.0714  0.3946 -0.1379
   66CHL1  H19A 7331   5.908   4.637  10.322  1.0545  0.3748 -0.1441
   66CHL1  H19B 7332   5.880   4.603  10.161 -1.0372  2.0367 -2.4455
   66CHL1  H19C 7333   5.954   4.770  10.203 -0.5808  2.2047  0.4237
   66CHL1    C1 7334   5.746   4.893  10.281  0.2216  0.3733 -0.0200
   66CHL1   H1A 7335   5.834   4.945  10.237  0.7583  0.8095  1.4951
   66CHL1   H1B 7336   5.664   4.960  10.246  1.7266  0.9417 -2.7559
   66CHL1    C2 7337   5.752   4.904  10.434  0.9959 -0.5183  0.2921
   66CHL1   H2A 7338   5.752   5.013  10.456  1.8560 -0.8397  2.0408
   66CHL1   H2B 7339   5.837   4.865  10.494  0.2116  0.5341  2.1788
   66CHL1   C20 7340   5.668   4.776   9.510 -0.4811  0.3148  0.4948
   66CHL1   H20 7341   5.743   4.695   9.497  0.0860  0.6568  1.4892
   66CHL1   C21 7342   5.754   4.902   9.514  0.1662  0.4264  0.2218
   66CHL1  H21A 7343   5.793   4.934   9.415 -0.1147  0.2606  0.0591
   66CHL1  H21B 7344   5.846   4.894   9.576  0.0063 -0.0822  0.3945
   66CHL1  H21C 7345   5.699   4.989   9.556  2.7346  3.0456 -1.4548
   66CHL1   C22 7346   5.573   4.779   9.391  0.0616  0.1574  0.8153
   66CHL1  H22A 7347   5.498   4.698   9.380 -0.5518  0.9260 -1.1511
   66CHL1  H22B 7348   5.511   4.872   9.396  2.3849  1.8531  0.0121
   66CHL1   C23 7349   5.652   4.781   9.255 -0.3705 -0.0088 -0.6015
   66CHL1  H23A 7350   5.704   4.878   9.245  1.3115 -1.0951 -3.2482
   66CHL1  H23B 7351   5.733   4.705   9.256  2.1007  2.1818 -4.8991
   66CHL1   C24 7352   5.564   4.772   9.132 -0.0898  0.5946 -0.1519
   66CHL1  H24A 7353   5.522   4.672   9.106  0.4422  0.7720 -1.8141
   66CHL1  H24B 7354   5.475   4.838   9.143  1.5674  2.7720  0.8041
   66CHL1   C25 7355   5.638   4.805   9.000 -0.6987 -0.6310 -0.2226
   66CHL1   H25 7356   5.700   4.896   9.017 -1.1420  0.5682 -3.9560
   66CHL1   C26 7357   5.740   4.692   8.962 -0.0918 -0.1559  0.0529
   66CHL1  H26A 7358   5.804   4.717   8.875  0.2386 -0.2738  0.2628
   66CHL1  H26B 7359   5.809   4.675   9.048 -1.6803  2.1253  1.9320
   66CHL1  H26C 7360   5.682   4.603   8.930 -0.9527  1.0415 -1.8900
   66CHL1   C27 7361   5.539   4.841   8.883 -0.3424  0.2695  0.3024
   66CHL1  H27A 7362   5.473   4.927   8.906 -0.2415  0.4860 -0.2008
   66CHL1  H27B 7363   5.601   4.880   8.799 -2.1994  3.0965  0.1143
   66CHL1  H27C 7364   5.476   4.753   8.857  0.5007 -0.7377  1.5421
   67CHL1    C3 7365   3.660   4.197  10.201 -0.5708  0.0788  0.5033
   67CHL1    H3 7366   3.557   4.237  10.196 -0.6720 -0.2355 -4.5709
   67CHL1    O3 7367   3.717   4.225  10.326 -0.0369  0.1471  0.5694
   67CHL1   H3' 7368   3.768   4.307  10.321 -0.2841  0.4244  2.0093
   67CHL1    C4 7369   3.662   4.042  10.186 -0.1475  0.0919  0.0379
   67CHL1   H4A 7370   3.758   3.991  10.206  0.3134  0.0776 -2.0551
   67CHL1   H4B 7371   3.594   4.017  10.271 -2.0003  2.9400 -0.4485
   67CHL1    C5 7372   3.613   3.990  10.053 -0.1908 -0.4652  0.0317
   67CHL1    C6 7373   3.505   3.915  10.041  0.2064  0.2426  0.9218
   67CHL1    H6 7374   3.446   3.887  10.129  0.1335  0.8010  1.0577
   67CHL1    C7 7375   3.462   3.860   9.906  0.3263 -0.6525  0.3522
   67CHL1   H7A 7376   3.426   3.755   9.912 -2.1610  0.1065  0.0592
   67CHL1   H7B 7377   3.368   3.911   9.877  1.9112  2.5645  0.4896
   67CHL1    C8 7378   3.574   3.873   9.797 -0.1778  0.3061  0.5610
   67CHL1    H8 7379   3.659   3.806   9.825 -1.5046 -0.9137  1.8990
   67CHL1   C14 7380   3.521   3.840   9.657  0.6863  0.3981  0.1313
   67CHL1   H14 7381   3.440   3.914   9.640  1.2241  0.9349 -0.1326
   67CHL1   C15 7382   3.465   3.697   9.639  0.0938  0.7871  0.2127
   67CHL1  H15A 7383   3.546   3.631   9.676 -2.3797 -2.9758 -0.4501
   67CHL1  H15B 7384   3.374   3.683   9.701 -0.2159  0.9704 -0.1906
   67CHL1   C16 7385   3.426   3.706   9.487 -0.0962 -0.0988 -0.0077
   67CHL1  H16A 7386   3.444   3.606   9.443  1.5549 -0.4751  1.4145
   67CHL1  H16B 7387   3.321   3.738   9.471  0.0838  0.4590 -0.1071
   67CHL1   C17 7388   3.519   3.807   9.424  0.1860  0.8176  0.8111
   67CHL1   H17 7389   3.455   3.893   9.397  0.3568  0.3249 -1.3756
   67CHL1   C13 7390   3.613   3.860   9.540  0.5644  0.3218  0.2020
   67CHL1   C18 7391   3.730   3.757   9.550 -0.1888  0.6958  0.1824
   67CHL1  H18A 7392   3.694   3.652   9.540 -0.7289  0.8739  0.2173
   67CHL1  H18B 7393   3.803   3.760   9.466  0.1876 -1.5742  0.3488
   67CHL1  H18C 7394   3.770   3.771   9.652 -1.3832  1.8413  0.5259
   67CHL1   C12 7395   3.658   4.009   9.543  0.1852  0.1703  0.4469
   67CHL1  H12A 7396   3.739   4.022   9.468  1.3015 -0.9553  1.4255
   67CHL1  H12B 7397   3.581   4.084   9.515 -0.6931 -0.9968 -0.3691
   67CHL1   C11 7398   3.731   4.038   9.673  0.1564  0.1181  0.2884
   67CHL1  H11A 7399   3.830   3.989   9.676 -0.5021 -1.3047 -0.3239
   67CHL1  H11B 7400   3.752   4.147   9.665 -2.1335  0.5872 -0.1347
   67CHL1    C9 7401   3.636   4.017   9.795 -0.3760  0.8370  0.0537
   67CHL1    H9 7402   3.549   4.084   9.775 -1.2869  0.5558  2.6894
   67CHL1   C10 7403   3.690   4.051   9.937 -0.1152  0.3496  0.5550
   67CHL1   C19 7404   3.840   4.004   9.938  0.3063  0.2502 -0.5884
   67CHL1  H19A 7405   3.871   4.007  10.045 -0.5851  1.1123 -0.3363
   67CHL1  H19B 7406   3.851   3.901   9.897 -1.6828 -0.1772 -0.1602
   67CHL1  H19C 7407   3.901   4.086   9.894 -0.0587  1.1169  0.4864
   67CHL1    C1 7408   3.681   4.208   9.948 -0.2514  0.4816 -0.4265
   67CHL1   H1A 7409   3.745   4.239   9.863 -0.5889 -1.7920 -1.5741
   67CHL1   H1B 7410   3.582   4.254   9.928 -0.2822  0.7670  0.3175
   67CHL1    C2 7411   3.741   4.259  10.082  0.5309  0.2856 -1.0946
   67CHL1   H2A 7412   3.733   4.370  10.082  0.0614  0.2620 -0.2682
   67CHL1   H2B 7413   3.847   4.227  10.091  1.0075  1.9342 -0.4701
   67CHL1   C20 7414   3.589   3.776   9.287 -1.1194  0.2134  0.2300
   67CHL1   H20 7415   3.662   3.694   9.304 -0.5582  0.5992 -0.2617
   67CHL1   C21 7416   3.660   3.906   9.238 -0.5397 -0.3560  0.7611
   67CHL1  H21A 7417   3.592   3.991   9.260  0.5862  1.3908 -2.0069
   67CHL1  H21B 7418   3.677   3.912   9.129 -1.5927 -2.2368  0.4557
   67CHL1  H21C 7419   3.762   3.917   9.281 -0.2046 -0.0476 -0.0934
   67CHL1   C22 7420   3.492   3.722   9.180 -0.8320  0.3331 -0.3560
   67CHL1  H22A 7421   3.422   3.651   9.227 -2.1238  1.0834 -1.0847
   67CHL1  H22B 7422   3.442   3.808   9.130  2.2680  0.9814 -2.6782
   67CHL1   C23 7423   3.555   3.647   9.062  0.2247 -0.0250  0.1657
   67CHL1  H23A 7424   3.627   3.707   9.003 -0.0070  0.4796  0.3906
   67CHL1  H23B 7425   3.599   3.549   9.091 -1.0131 -0.5213  0.4502
   67CHL1   C24 7426   3.446   3.615   8.956 -0.2326  0.1879 -0.0828
   67CHL1  H24A 7427   3.364   3.578   9.022  0.3514 -0.5821  0.2272
   67CHL1  H24B 7428   3.410   3.707   8.905  1.3150  0.7410 -0.2058
   67CHL1   C25 7429   3.486   3.519   8.839 -0.7518  0.0716 -0.2082
   67CHL1   H25 7430   3.557   3.449   8.887  0.2533  1.8881  1.0827
   67CHL1   C26 7431   3.364   3.459   8.779  0.2429 -0.8660  0.3210
   67CHL1  H26A 7432   3.392   3.408   8.685  0.8817 -0.0256  0.0388
   67CHL1  H26B 7433   3.311   3.386   8.843  0.4251 -1.5850 -0.3246
   67CHL1  H26C 7434   3.289   3.539   8.756 -0.8938 -1.5094  1.6893
   67CHL1   C27 7435   3.561   3.595   8.732 -0.1348 -0.6922 -0.4515
   67CHL1  H27A 7436   3.657   3.636   8.769 -0.9029 -0.4366  1.3888
   67CHL1  H27B 7437   3.572   3.525   8.646 -1.0972 -0.4651 -0.7794
   67CHL1  H27C 7438   3.495   3.668   8.681  1.8265  1.6431  0.1704
   68CHL1    C3 7439   0.828   4.812  10.284 -0.0474  0.3803 -0.4493
   68CHL1    H3 7440   0.756   4.749  10.227 -0.8318  0.1608  0.7333
   68CHL1    O3 7441   0.770   4.821  10.419  0.1487 -0.1323 -0.3326
   68CHL1   H3' 7442   0.788   4.747  10.477  0.3997  0.2990  0.1395
   68CHL1    C4 7443   0.959   4.743  10.291 -0.6355  0.0449  0.1131
   68CHL1   H4A 7444   1.029   4.797  10.359  1.6823 -1.0043 -1.2863
   68CHL1   H4B 7445   0.943   4.636  10.317 -1.5496  0.2465  0.3960
   68CHL1    C5 7446   1.038   4.742  10.164  0.1694  0.0916  0.0092
   68CHL1    C6 7447   1.096   4.634  10.109 -0.3618  0.1694 -0.3748
   68CHL1    H6 7448   1.093   4.530  10.144 -1.0310 -0.7209 -2.8660
   68CHL1    C7 7449   1.179   4.631   9.981 -0.2537  0.0401 -0.7403
   68CHL1   H7A 7450   1.272   4.570   9.990 -1.7482 -3.0338 -3.6635
   68CHL1   H7B 7451   1.130   4.574   9.899 -2.0820  0.1239  0.2550
   68CHL1    C8 7452   1.226   4.772   9.938  0.0830 -0.6077  0.6178
   68CHL1    H8 7453   1.313   4.801  10.001 -2.0439  1.0953  3.0193
   68CHL1   C14 7454   1.279   4.775   9.795  0.2188 -0.1846 -0.0681
   68CHL1   H14 7455   1.190   4.745   9.736  0.7028  0.2749 -1.0672
   68CHL1   C15 7456   1.400   4.682   9.760  1.0257 -0.2513 -0.4318
   68CHL1  H15A 7457   1.466   4.665   9.847 -0.3579  2.6810  1.3507
   68CHL1  H15B 7458   1.343   4.588   9.742 -0.1323  0.0502  1.4162
   68CHL1   C16 7459   1.460   4.743   9.630  0.4589  0.0806  0.0382
   68CHL1  H16A 7460   1.559   4.777   9.666  0.3455  0.3845  0.0622
   68CHL1  H16B 7461   1.465   4.663   9.553  2.2380  0.6208 -0.4434
   68CHL1   C17 7462   1.378   4.870   9.603  0.3135  0.5133  0.3014
   68CHL1   H17 7463   1.292   4.831   9.545  1.2781 -1.7720  0.2878
   68CHL1   C13 7464   1.323   4.909   9.744 -0.3554 -0.2438  0.0639
   68CHL1   C18 7465   1.433   4.973   9.835  0.4818  0.2527 -0.7037
   68CHL1  H18A 7466   1.526   4.913   9.835 -0.7937 -1.8664 -2.2928
   68CHL1  H18B 7467   1.440   5.080   9.807  1.1721  1.0264  2.1027
   68CHL1  H18C 7468   1.414   4.975   9.945 -0.7137 -0.9530 -0.8547
   68CHL1   C12 7469   1.198   5.004   9.751  0.1264  0.0619  0.2518
   68CHL1  H12A 7470   1.223   5.102   9.704 -2.0913  0.6680  0.2260
   68CHL1  H12B 7471   1.129   4.959   9.677  1.0805  0.0002 -0.6246
   68CHL1   C11 7472   1.142   5.018   9.894 -0.1384 -0.2829  0.2258
   68CHL1  H11A 7473   1.215   5.069   9.961 -0.1522 -1.9093  1.5492
   68CHL1  H11B 7474   1.052   5.082   9.893 -0.5857 -0.8200  2.4138
   68CHL1    C9 7475   1.113   4.873   9.955  0.1238 -1.0326  0.1288
   68CHL1    H9 7476   1.023   4.842   9.898 -0.7416  1.0298  0.2901
   68CHL1   C10 7477   1.053   4.879  10.097  0.3045 -0.0573 -0.0943
   68CHL1   C19 7478   1.144   4.974  10.179  0.5326  0.0034 -0.2794
   68CHL1  H19A 7479   1.111   5.077  10.159 -2.6904 -0.6090  1.2676
   68CHL1  H19B 7480   1.127   4.962  10.288  0.6228  1.2271 -0.1190
   68CHL1  H19C 7481   1.251   4.952  10.158  0.5280  0.8470 -1.2372
   68CHL1    C1 7482   0.912   4.940  10.090  0.0309  0.2973  0.1149
   68CHL1   H1A 7483   0.917   5.042  10.045 -0.1371  0.3845  0.2908
   68CHL1   H1B 7484   0.852   4.880  10.019  0.1520  1.3424 -0.8882
   68CHL1    C2 7485   0.842   4.950  10.226 -0.1363 -0.1615 -0.2128
   68CHL1   H2A 7486   0.737   4.984  10.214 -0.9158 -0.8178  3.5121
   68CHL1   H2B 7487   0.902   5.026  10.280 -0.5907 -0.8587  1.3361
   68CHL1   C20 7488   1.453   4.961   9.510  0.0278  0.0146  0.4397
   68CHL1   H20 7489   1.529   5.016   9.570  0.2755 -1.3627  1.4297
   68CHL1   C21 7490   1.358   5.071   9.462  0.3515 -0.1058  0.1002
   68CHL1  H21A 7491   1.260   5.034   9.425  0.3855 -0.0821 -0.0158
   68CHL1  H21B 7492   1.415   5.117   9.378 -0.1448 -0.4892 -0.4587
   68CHL1  H21C 7493   1.343   5.149   9.540  0.6022 -0.1265  0.1686
   68CHL1   C22 7494   1.534   4.884   9.397 -0.1633 -1.1505 -0.0651
   68CHL1  H22A 7495   1.563   4.970   9.333 -1.3630 -0.4043  0.3892
   68CHL1  H22B 7496   1.621   4.820   9.424 -1.2206 -2.0894  1.2248
   68CHL1   C23 7497   1.443   4.814   9.306  0.1824 -0.2778  0.4833
   68CHL1  H23A 7498   1.406   4.723   9.359  1.4410 -0.2384  1.4726
   68CHL1  H23B 7499   1.353   4.879   9.302  0.0921 -0.4055  0.4225
   68CHL1   C24 7500   1.503   4.800   9.166  0.1185  0.2758 -0.4886
   68CHL1  H24A 7501   1.537   4.899   9.128 -0.3569  0.4052 -0.5788
   68CHL1  H24B 7502   1.588   4.729   9.173  1.6911  1.7872 -2.7838
   68CHL1   C25 7503   1.398   4.742   9.071  0.4858  0.2373 -0.0885
   68CHL1   H25 7504   1.387   4.637   9.104  2.1887  0.6840  2.1245
   68CHL1   C26 7505   1.263   4.806   9.072  0.1671 -0.2319 -0.1148
   68CHL1  H26A 7506   1.198   4.753   8.998 -0.3397  1.5021 -0.9680
   68CHL1  H26B 7507   1.217   4.808   9.173 -1.8274  0.5537 -0.9719
   68CHL1  H26C 7508   1.270   4.912   9.038 -0.3770  0.0257  0.5519
   68CHL1   C27 7509   1.435   4.740   8.921 -0.3157  0.8557  0.0851
   68CHL1  H27A 7510   1.438   4.846   8.887 -0.8761  1.3323  1.4648
   68CHL1  H27B 7511   1.532   4.694   8.894 -1.3089 -1.5966  0.4812
   68CHL1  H27C 7512   1.360   4.686   8.860 -1.7108 -1.3763  3.4847
   69CHL1    C3 7513   0.104   2.553   6.683  0.1793 -0.2011 -0.1919
   69CHL1    H3 7514   0.207   2.522   6.655  0.9761  0.6093  1.6392
   69CHL1    O3 7515   0.023   2.567   6.563  0.0166 -0.2439  0.8644
   69CHL1   H3' 7516   0.066   2.509   6.500 -0.1858  0.2927  0.2158
   69CHL1    C4 7517   0.033   2.449   6.771 -0.5111  0.3731 -0.3193
   69CHL1   H4A 7518  -0.072   2.482   6.786 -1.5546 -2.4972 -0.6383
   69CHL1   H4B 7519   0.031   2.350   6.719 -0.5301 -0.1947  0.7374
   69CHL1    C5 7520   0.094   2.435   6.911  0.8793 -0.8999  0.1672
   69CHL1    C6 7521   0.134   2.318   6.957  0.3783 -0.9422  0.3410
   69CHL1    H6 7522   0.114   2.235   6.887  3.1469 -0.7676 -0.7767
   69CHL1    C7 7523   0.199   2.295   7.089  0.2973  0.3129 -0.3121
   69CHL1   H7A 7524   0.153   2.212   7.146  0.4169  1.3096  1.3222
   69CHL1   H7B 7525   0.307   2.269   7.078  0.1783 -0.1049 -0.4965
   69CHL1    C8 7526   0.190   2.424   7.176  0.2096  0.2025 -0.5221
   69CHL1    H8 7527   0.083   2.426   7.205  0.5208  1.1397  0.6103
   69CHL1   C14 7528   0.267   2.412   7.308  0.0019  0.0055  0.7412
   69CHL1   H14 7529   0.373   2.400   7.281 -0.3667 -2.1987  0.0713
   69CHL1   C15 7530   0.231   2.291   7.399 -0.3295  0.1240 -0.8114
   69CHL1  H15A 7531   0.124   2.262   7.404 -0.9600  2.4757  1.8254
   69CHL1  H15B 7532   0.286   2.199   7.374 -0.3500 -0.6585  1.7727
   69CHL1   C16 7533   0.273   2.330   7.538  0.0787  0.2193 -0.1494
   69CHL1  H16A 7534   0.187   2.328   7.608 -0.7744  0.6813 -1.1436
   69CHL1  H16B 7535   0.351   2.264   7.580 -0.9339  0.4999  2.3609
   69CHL1   C17 7536   0.324   2.473   7.527 -0.3612 -0.1418 -1.0260
   69CHL1   H17 7537   0.431   2.455   7.500 -1.0062 -1.0463 -3.1846
   69CHL1   C13 7538   0.262   2.533   7.400 -0.2608  0.1087  0.1190
   69CHL1   C18 7539   0.120   2.577   7.430 -0.3298 -0.6238 -0.1137
   69CHL1  H18A 7540   0.067   2.608   7.338 -1.2223  0.4096  0.7187
   69CHL1  H18B 7541   0.074   2.489   7.479  0.7588 -1.4142 -0.4685
   69CHL1  H18C 7542   0.120   2.667   7.496 -1.0594 -0.4749 -0.3096
   69CHL1   C12 7543   0.338   2.637   7.321 -0.5187 -0.3594  0.3981
   69CHL1  H12A 7544   0.341   2.727   7.386  1.5074 -0.2127  0.1551
   69CHL1  H12B 7545   0.438   2.590   7.310 -0.5625  0.0940 -2.9591
   69CHL1   C11 7546   0.272   2.669   7.190  0.2232 -0.2699  0.4468
   69CHL1  H11A 7547   0.172   2.711   7.212 -0.1749 -1.8390  1.8622
   69CHL1  H11B 7548   0.343   2.741   7.143 -0.2558  1.1586  1.8312
   69CHL1    C9 7549   0.237   2.542   7.097  0.3545 -0.0969  0.2269
   69CHL1    H9 7550   0.336   2.513   7.057  0.4039 -0.4199  0.5740
   69CHL1   C10 7551   0.127   2.570   6.983 -0.2827  0.1640 -0.5780
   69CHL1   C19 7552   0.002   2.629   7.043  0.7835 -0.9665 -0.5196
   69CHL1  H19A 7553  -0.070   2.639   6.960  1.1834 -0.4872 -0.8107
   69CHL1  H19B 7554  -0.046   2.555   7.111 -0.9956  0.3791 -0.2379
   69CHL1  H19C 7555   0.013   2.730   7.087  1.9920  0.2206 -3.3394
   69CHL1    C1 7556   0.191   2.674   6.886 -0.6088  0.5857  0.8916
   69CHL1   H1A 7557   0.187   2.778   6.924  0.4480  0.2984  1.8506
   69CHL1   H1B 7558   0.295   2.639   6.866 -0.8290  0.7926 -0.8256
   69CHL1    C2 7559   0.118   2.687   6.751  0.2458  0.3798  0.3017
   69CHL1   H2A 7560   0.177   2.757   6.688  0.9755 -1.0153 -0.6017
   69CHL1   H2B 7561   0.015   2.726   6.763 -0.3785 -0.9939 -0.3469
   69CHL1   C20 7562   0.309   2.548   7.665  1.0585  0.7185 -0.4322
   69CHL1   H20 7563   0.200   2.565   7.676  0.6848 -1.8214  0.5916
   69CHL1   C21 7564   0.379   2.683   7.674 -0.6460  0.5433  0.2297
   69CHL1  H21A 7565   0.484   2.664   7.644 -0.9894 -2.3342  0.5705
   69CHL1  H21B 7566   0.383   2.726   7.777 -1.3864 -1.2805  1.0637
   69CHL1  H21C 7567   0.334   2.743   7.592 -1.0552 -0.3537 -0.2153
   69CHL1   C22 7568   0.361   2.461   7.784 -1.0783 -0.0470  0.5378
   69CHL1  H22A 7569   0.340   2.352   7.781 -0.3388 -0.1810 -0.1469
   69CHL1  H22B 7570   0.470   2.474   7.795 -0.9833 -1.6175  1.9485
   69CHL1   C23 7571   0.295   2.501   7.914  0.2573  0.2074 -0.5828
   69CHL1  H23A 7572   0.319   2.607   7.936  0.7852  0.2959 -1.5424
   69CHL1  H23B 7573   0.187   2.484   7.893  0.4908 -0.6552 -1.1245
   69CHL1   C24 7574   0.345   2.425   8.035 -0.3286  0.3027 -0.7201
   69CHL1  H24A 7575   0.306   2.321   8.036  0.4693 -0.0214 -1.2731
   69CHL1  H24B 7576   0.455   2.409   8.026  0.2195  1.2825  2.8695
   69CHL1   C25 7577   0.314   2.488   8.166 -1.1131 -0.2374  0.3131
   69CHL1   H25 7578   0.327   2.597   8.152 -3.3686 -0.0721 -0.9430
   69CHL1   C26 7579   0.166   2.470   8.217 -0.4626  0.1472 -0.2415
   69CHL1  H26A 7580   0.107   2.516   8.135 -1.3463  0.2748  0.4607
   69CHL1  H26B 7581   0.153   2.363   8.241  0.0834  0.1794  0.2127
   69CHL1  H26C 7582   0.158   2.519   8.316  0.9971 -1.7113  0.8620
   69CHL1   C27 7583   0.420   2.433   8.276 -0.0276 -0.3825  0.1323
   69CHL1  H27A 7584   0.519   2.464   8.235 -0.1085  1.9193  1.5214
   69CHL1  H27B 7585   0.398   2.487   8.370 -4.6447  0.0431 -0.9581
   69CHL1  H27C 7586   0.424   2.323   8.293  2.4304 -0.5019 -0.8080
   70CHL1    C3 7587   3.315   5.973   6.997 -0.2623  0.6804 -0.8802
   70CHL1    H3 7588   3.277   6.074   7.022 -1.0122  0.8305 -2.4638
   70CHL1    O3 7589   3.299   5.955   6.862  0.1024 -0.5539 -0.3737
   70CHL1   H3' 7590   3.307   5.860   6.858  0.7399 -0.7589  2.7040
   70CHL1    C4 7591   3.462   5.959   7.031  0.0455  0.2674  0.2389
   70CHL1   H4A 7592   3.509   5.869   6.989  0.6127  0.2389  0.9258
   70CHL1   H4B 7593   3.521   6.044   6.990  2.3454 -1.8112 -0.9283
   70CHL1    C5 7594   3.478   5.965   7.176 -0.2238  0.3968 -0.1900
   70CHL1    C6 7595   3.558   6.059   7.237  0.4646 -0.7062 -0.7435
   70CHL1    H6 7596   3.609   6.131   7.173  0.0291 -0.8797 -1.2907
   70CHL1    C7 7597   3.585   6.065   7.389  0.0512 -0.1991  0.5903
   70CHL1   H7A 7598   3.694   6.070   7.409  0.3579  0.2080 -1.0087
   70CHL1   H7B 7599   3.544   6.159   7.432 -1.9187  0.7598 -2.9536
   70CHL1    C8 7600   3.530   5.935   7.473 -0.0301  0.0220 -0.9619
   70CHL1    H8 7601   3.608   5.855   7.468  0.2590 -0.0373  2.3211
   70CHL1   C14 7602   3.506   5.970   7.621 -0.1512  0.1241 -0.0563
   70CHL1   H14 7603   3.429   6.049   7.628 -2.5668 -2.2298  4.2221
   70CHL1   C15 7604   3.624   6.031   7.704  0.6349 -0.0290 -0.1809
   70CHL1  H15A 7605   3.722   5.981   7.685  2.2308  2.5517  0.7188
   70CHL1  H15B 7606   3.647   6.138   7.685 -0.1926  0.1254 -0.3308
   70CHL1   C16 7607   3.587   6.015   7.858 -0.4539 -0.3315  0.2516
   70CHL1  H16A 7608   3.677   5.974   7.909  0.9793  0.2795 -1.6818
   70CHL1  H16B 7609   3.545   6.110   7.899  0.1021  0.4095 -0.8543
   70CHL1   C17 7610   3.467   5.910   7.856  0.4808  0.0698  0.1834
   70CHL1   H17 7611   3.383   5.983   7.863  0.6848  0.3218  0.0530
   70CHL1   C13 7612   3.463   5.855   7.707  0.1842 -0.6158 -0.3471
   70CHL1   C18 7613   3.563   5.730   7.710  0.1066 -0.6157  0.2094
   70CHL1  H18A 7614   3.661   5.747   7.759 -0.5357  2.0375  0.7222
   70CHL1  H18B 7615   3.520   5.645   7.768  1.4286 -0.9286  0.7616
   70CHL1  H18C 7616   3.566   5.683   7.609 -1.4296  1.2576 -0.7765
   70CHL1   C12 7617   3.326   5.805   7.658 -0.2331 -0.4934  0.7159
   70CHL1  H12A 7618   3.297   5.710   7.708 -0.3544 -1.3294 -0.8484
   70CHL1  H12B 7619   3.252   5.888   7.665  1.4675  0.9514  2.8588
   70CHL1   C11 7620   3.332   5.775   7.506 -0.8101  0.3975 -0.2074
   70CHL1  H11A 7621   3.390   5.682   7.490 -1.1221  0.5042 -2.1549
   70CHL1  H11B 7622   3.232   5.743   7.469  0.0066  0.3741 -2.5380
   70CHL1    C9 7623   3.389   5.893   7.413 -0.0059  0.7544  0.1622
   70CHL1    H9 7624   3.335   5.990   7.419 -1.0836  0.1117  1.5344
   70CHL1   C10 7625   3.394   5.864   7.262  0.3336  0.6674 -0.3167
   70CHL1   C19 7626   3.444   5.721   7.239 -0.1134  0.1832 -0.3752
   70CHL1  H19A 7627   3.455   5.700   7.131  1.3190 -1.6993  0.0721
   70CHL1  H19B 7628   3.546   5.709   7.282 -0.0349  2.4162  0.1642
   70CHL1  H19C 7629   3.378   5.642   7.281  3.0222 -2.3381  0.2727
   70CHL1    C1 7630   3.242   5.865   7.219 -0.0028 -0.0634 -0.1479
   70CHL1   H1A 7631   3.196   5.777   7.268  0.9959  0.7108  2.3522
   70CHL1   H1B 7632   3.206   5.958   7.269  3.5120  1.3508  0.0628
   70CHL1    C2 7633   3.221   5.875   7.071  0.3052 -0.5047  0.3209
   70CHL1   H2A 7634   3.120   5.919   7.059 -0.1186 -0.5701  2.9572
   70CHL1   H2B 7635   3.233   5.774   7.027 -1.3992 -0.8700  0.6166
   70CHL1   C20 7636   3.454   5.817   7.977 -0.3860 -0.5004 -0.3130
   70CHL1   H20 7637   3.528   5.734   7.968  0.1931  0.1115 -1.5643
   70CHL1   C21 7638   3.313   5.763   7.978 -0.1165  0.0036 -0.1879
   70CHL1  H21A 7639   3.274   5.731   8.077 -1.0523 -0.3837 -0.6739
   70CHL1  H21B 7640   3.313   5.670   7.918 -2.4063 -0.6158  0.6784
   70CHL1  H21C 7641   3.236   5.837   7.949 -0.8638 -0.0950  1.4195
   70CHL1   C22 7642   3.480   5.885   8.114 -0.0660  0.5335 -0.5627
   70CHL1  H22A 7643   3.563   5.959   8.112 -2.0568  2.8468 -1.6328
   70CHL1  H22B 7644   3.386   5.939   8.138 -0.7115 -0.0528 -1.6896
   70CHL1   C23 7645   3.507   5.777   8.222  0.0150 -0.9322 -0.6044
   70CHL1  H23A 7646   3.412   5.720   8.226  0.0976 -1.1136 -1.1146
   70CHL1  H23B 7647   3.587   5.714   8.177  2.1717  2.3301 -1.7060
   70CHL1   C24 7648   3.558   5.832   8.351 -0.2447 -0.2631  0.2001
   70CHL1  H24A 7649   3.668   5.844   8.341 -0.0705 -0.0535  2.0789
   70CHL1  H24B 7650   3.508   5.928   8.371  0.9344  1.3713 -3.7261
   70CHL1   C25 7651   3.546   5.734   8.469 -0.0759  0.1832  0.3349
   70CHL1   H25 7652   3.437   5.725   8.488 -0.8458 -1.5981 -3.8797
   70CHL1   C26 7653   3.588   5.596   8.427 -0.3486  0.2338  0.5215
   70CHL1  H26A 7654   3.530   5.551   8.343  0.6566 -0.4913  0.1781
   70CHL1  H26B 7655   3.695   5.594   8.395  0.6430 -1.0978  3.4965
   70CHL1  H26C 7656   3.591   5.520   8.508  3.0952 -0.7403 -0.3163
   70CHL1   C27 7657   3.632   5.778   8.583 -0.2807 -0.1591  0.8025
   70CHL1  H27A 7658   3.738   5.790   8.550 -1.0405 -0.5340 -1.9987
   70CHL1  H27B 7659   3.603   5.880   8.616  1.6981  1.3326 -1.6445
   70CHL1  H27C 7660   3.623   5.709   8.670  0.5391 -0.3965  0.7093
   71CHL1    C3 7661   4.523   1.616   6.813  0.6218  0.2842 -0.8252
   71CHL1    H3 7662   4.431   1.617   6.876  1.3735 -0.0703  0.3168
   71CHL1    O3 7663   4.494   1.594   6.675 -0.5632  1.1742 -0.4769
   71CHL1   H3' 7664   4.580   1.603   6.633 -1.3850  2.9161 -1.9310
   71CHL1    C4 7665   4.605   1.741   6.832  0.1400  0.5194  0.8625
   71CHL1   H4A 7666   4.697   1.735   6.770 -0.4624  1.3372 -0.1466
   71CHL1   H4B 7667   4.552   1.823   6.779  0.0171  1.2309  2.0398
   71CHL1    C5 7668   4.636   1.763   6.981 -0.2461  0.7344 -0.5824
   71CHL1    C6 7669   4.598   1.874   7.044  0.4414 -0.8201  0.3070
   71CHL1    H6 7670   4.536   1.949   6.992  0.1098 -0.9675  0.4832
   71CHL1    C7 7671   4.629   1.897   7.187  0.1779 -0.3049  0.3001
   71CHL1   H7A 7672   4.671   2.000   7.192  1.1396 -0.6674 -0.0359
   71CHL1   H7B 7673   4.533   1.884   7.241  0.1887  0.4359  0.5088
   71CHL1    C8 7674   4.732   1.810   7.253  0.2000 -0.6405  0.3176
   71CHL1    H8 7675   4.837   1.841   7.232  0.7864 -2.0676  1.0516
   71CHL1   C14 7676   4.725   1.811   7.409  0.0214 -0.5299 -0.4867
   71CHL1   H14 7677   4.624   1.772   7.433 -0.1846 -0.2738 -0.9286
   71CHL1   C15 7678   4.718   1.942   7.486 -0.9895  0.2683  0.5556
   71CHL1  H15A 7679   4.792   2.015   7.447  0.8113 -1.6502  0.2160
   71CHL1  H15B 7680   4.617   1.981   7.462 -0.9824 -0.6044 -1.0312
   71CHL1   C16 7681   4.748   1.896   7.630  0.7769 -0.4944  0.4388
   71CHL1  H16A 7682   4.836   1.945   7.675  2.4591 -0.1781 -2.8887
   71CHL1  H16B 7683   4.655   1.915   7.687 -0.0742 -0.9073 -0.7665
   71CHL1   C17 7684   4.790   1.740   7.627 -0.8492 -0.0729  0.8826
   71CHL1   H17 7685   4.695   1.687   7.647 -1.8115  0.7235 -1.2244
   71CHL1   C13 7686   4.824   1.712   7.479 -0.0989 -0.6038  0.0881
   71CHL1   C18 7687   4.968   1.763   7.455  0.5577 -0.6083  0.2449
   71CHL1  H18A 7688   5.005   1.766   7.350 -0.2534 -0.1361 -0.0390
   71CHL1  H18B 7689   4.978   1.864   7.499  0.4066 -1.1128  1.4682
   71CHL1  H18C 7690   5.035   1.701   7.517 -0.5699 -1.3146  0.7755
   71CHL1   C12 7691   4.792   1.579   7.430 -0.0847 -0.2539  0.4317
   71CHL1  H12A 7692   4.849   1.498   7.480 -1.4454 -2.0019 -0.7344
   71CHL1  H12B 7693   4.684   1.570   7.453 -0.2505  2.4974  0.9838
   71CHL1   C11 7694   4.810   1.562   7.276 -0.4137  0.4527  0.9807
   71CHL1  H11A 7695   4.915   1.595   7.262 -0.2995  0.0017  0.7406
   71CHL1  H11B 7696   4.786   1.460   7.237  0.6581  1.1420 -1.7451
   71CHL1    C9 7697   4.711   1.664   7.207 -0.5804 -0.3877 -0.1426
   71CHL1    H9 7698   4.610   1.644   7.248 -1.2034  1.3786 -0.7415
   71CHL1   C10 7699   4.707   1.645   7.053 -0.5257 -0.0822  0.2073
   71CHL1   C19 7700   4.849   1.637   6.998 -0.9951  0.4271 -0.1298
   71CHL1  H19A 7701   4.896   1.542   7.030 -1.2531  0.0505 -0.8523
   71CHL1  H19B 7702   4.861   1.648   6.888 -0.0739  0.6285 -0.0213
   71CHL1  H19C 7703   4.915   1.718   7.036  0.3361 -0.1658 -1.0896
   71CHL1    C1 7704   4.629   1.518   7.018  0.2282  0.0292  0.0557
   71CHL1   H1A 7705   4.697   1.434   7.046  1.0635  0.1206 -1.5621
   71CHL1   H1B 7706   4.540   1.515   7.084  0.7418  0.2878  0.7780
   71CHL1    C2 7707   4.596   1.498   6.868  0.5100  0.5236 -0.6360
   71CHL1   H2A 7708   4.533   1.406   6.864  1.2169 -0.0574  0.7170
   71CHL1   H2B 7709   4.688   1.463   6.816  1.5149  0.4818  1.0925
   71CHL1   C20 7710   4.880   1.688   7.738  0.0728 -0.0527  1.0034
   71CHL1   H20 7711   4.987   1.715   7.724 -0.8912  3.5002 -0.8344
   71CHL1   C21 7712   4.866   1.531   7.745 -0.1918 -0.0789 -0.0057
   71CHL1  H21A 7713   4.920   1.499   7.837  0.7996 -0.9445 -0.8655
   71CHL1  H21B 7714   4.915   1.484   7.657 -2.5730 -1.0143 -0.9208
   71CHL1  H21C 7715   4.760   1.498   7.748  0.1337 -1.1787 -0.1709
   71CHL1   C22 7716   4.846   1.758   7.873  0.4777  0.8916  0.0965
   71CHL1  H22A 7717   4.809   1.862   7.865 -2.6485 -0.0890  0.5220
   71CHL1  H22B 7718   4.768   1.699   7.925 -0.5904 -0.2992 -2.6559
   71CHL1   C23 7719   4.974   1.758   7.964  0.7302  0.3311  0.3419
   71CHL1  H23A 7720   4.938   1.765   8.069 -1.2650 -0.8321 -0.2157
   71CHL1  H23B 7721   5.023   1.658   7.961  0.6746  0.2850  0.8302
   71CHL1   C24 7722   5.079   1.862   7.932  0.1863 -0.0675  0.3326
   71CHL1  H24A 7723   5.134   1.831   7.841 -1.8193  0.2285 -1.0406
   71CHL1  H24B 7724   5.019   1.954   7.915  1.2626  0.7006  0.5353
   71CHL1   C25 7725   5.182   1.893   8.044 -0.6126 -0.5936 -0.4559
   71CHL1   H25 7726   5.231   1.985   8.006 -2.3710  0.5697 -0.0629
   71CHL1   C26 7727   5.107   1.929   8.179 -0.6474  0.6251 -0.4425
   71CHL1  H26A 7728   5.036   2.013   8.164 -0.3989  0.8678 -0.2779
   71CHL1  H26B 7729   5.049   1.841   8.215  0.6679  0.0878  0.4615
   71CHL1  H26C 7730   5.185   1.953   8.255 -1.4096  0.0594  0.5353
   71CHL1   C27 7731   5.288   1.778   8.053 -0.4297 -0.4241  0.1759
   71CHL1  H27A 7732   5.343   1.759   7.959  1.1402  2.4127  0.3868
   71CHL1  H27B 7733   5.369   1.797   8.127  0.9316  1.7700 -1.7406
   71CHL1  H27C 7734   5.241   1.681   8.081  2.5997 -2.4543 -1.3077
   72CHL1    C3 7735   3.961   5.762   7.094  0.4318  0.3533 -0.1818
   72CHL1    H3 7736   4.015   5.859   7.097  0.0714  0.5480 -0.0399
   72CHL1    O3 7737   3.912   5.738   6.961 -0.0318  0.0257 -0.2708
   72CHL1   H3' 7738   3.993   5.722   6.912  0.8889  2.2208  0.4234
   72CHL1    C4 7739   4.046   5.638   7.140 -1.1636 -0.3025  0.3577
   72CHL1   H4A 7740   3.981   5.550   7.124 -0.5258 -0.8441  0.7254
   72CHL1   H4B 7741   4.132   5.618   7.072 -3.1326  0.7332 -2.6464
   72CHL1    C5 7742   4.091   5.643   7.285  0.5804  0.0417 -1.3050
   72CHL1    C6 7743   4.224   5.630   7.326  1.2204  0.0805  0.4139
   72CHL1    H6 7744   4.294   5.611   7.243 -1.5791 -0.2222 -2.0392
   72CHL1    C7 7745   4.276   5.630   7.469 -0.2409 -0.3172  0.4998
   72CHL1   H7A 7746   4.359   5.560   7.493 -1.7466 -1.7381  1.8631
   72CHL1   H7B 7747   4.328   5.726   7.484  1.3213 -1.2803  1.5179
   72CHL1    C8 7748   4.150   5.618   7.556  0.0978 -0.2276 -1.1617
   72CHL1    H8 7749   4.114   5.513   7.551 -1.3752  0.2342 -0.9198
   72CHL1   C14 7750   4.186   5.637   7.703  0.3157  0.0942  0.3003
   72CHL1   H14 7751   4.220   5.743   7.708 -1.3087  0.6378  0.2696
   72CHL1   C15 7752   4.300   5.548   7.748 -0.1013 -0.2235 -0.0948
   72CHL1  H15A 7753   4.282   5.445   7.709 -1.3497 -0.8549  1.9850
   72CHL1  H15B 7754   4.397   5.595   7.722 -0.0906 -0.0775  0.2046
   72CHL1   C16 7755   4.274   5.542   7.902  0.7314  0.1506 -0.0579
   72CHL1  H16A 7756   4.260   5.437   7.936  1.9350 -0.2456 -0.7132
   72CHL1  H16B 7757   4.362   5.578   7.959  0.4696 -1.1703  1.2236
   72CHL1   C17 7758   4.150   5.630   7.943 -0.0045 -0.0930  0.8661
   72CHL1   H17 7759   4.182   5.735   7.963 -0.3034 -0.4473  3.6778
   72CHL1   C13 7760   4.070   5.630   7.807  0.6039 -0.2966  0.1223
   72CHL1   C18 7761   3.996   5.494   7.800  0.2298 -0.3182  0.3669
   72CHL1  H18A 7762   3.924   5.489   7.716 -0.8385  2.1426  1.0476
   72CHL1  H18B 7763   4.071   5.412   7.791  1.0569  0.6154 -2.0676
   72CHL1  H18C 7764   3.931   5.478   7.889  0.0107  0.8717  0.4427
   72CHL1   C12 7765   3.979   5.753   7.770 -0.2821  0.3266  0.1716
   72CHL1  H12A 7766   3.899   5.761   7.846  0.2110 -3.2641  1.2736
   72CHL1  H12B 7767   4.041   5.845   7.773  0.4109 -0.1007 -0.5659
   72CHL1   C11 7768   3.928   5.739   7.624  0.3038 -0.6310  0.1552
   72CHL1  H11A 7769   3.853   5.657   7.625 -1.5864  1.0113  0.5239
   72CHL1  H11B 7770   3.882   5.836   7.592 -0.0682 -0.1082  2.1437
   72CHL1    C9 7771   4.040   5.708   7.514  0.5282  0.6387 -0.4536
   72CHL1    H9 7772   4.093   5.804   7.499  1.4731  0.3781  0.9696
   72CHL1   C10 7773   3.977   5.669   7.378  0.1984  0.3142 -0.1892
   72CHL1   C19 7774   3.893   5.541   7.385  0.5594 -0.2519  0.2584
   72CHL1  H19A 7775   3.801   5.545   7.448  2.0031 -0.9170  2.5512
   72CHL1  H19B 7776   3.864   5.509   7.283  0.0822  0.1758  0.2549
   72CHL1  H19C 7777   3.947   5.452   7.425 -2.3288 -2.7288 -0.9465
   72CHL1    C1 7778   3.879   5.776   7.325  0.9917 -1.0412  0.5865
   72CHL1   H1A 7779   3.783   5.776   7.381  0.3083 -0.5894 -0.5471
   72CHL1   H1B 7780   3.930   5.871   7.351  1.3480 -0.9096 -0.5363
   72CHL1    C2 7781   3.839   5.770   7.182  0.4661  0.2301 -0.0224
   72CHL1   H2A 7782   3.776   5.858   7.155 -0.0101 -0.5658 -1.7062
   72CHL1   H2B 7783   3.773   5.680   7.179  1.1059 -0.2318 -1.5191
   72CHL1   C20 7784   4.075   5.599   8.071 -0.2262  0.6000  0.4110
   72CHL1   H20 7785   4.031   5.498   8.056  2.3228 -0.3845 -1.3036
   72CHL1   C21 7786   3.966   5.698   8.106 -0.4215 -0.0692 -0.1618
   72CHL1  H21A 7787   3.881   5.675   8.039  0.1304 -0.7072 -0.6526
   72CHL1  H21B 7788   4.004   5.803   8.097 -0.6060 -0.0813 -1.1524
   72CHL1  H21C 7789   3.921   5.680   8.206 -0.9128 -0.3551 -0.4332
   72CHL1   C22 7790   4.185   5.585   8.182  0.2485  0.3944 -0.7105
   72CHL1  H22A 7791   4.269   5.516   8.157  0.0917 -0.0168 -0.1215
   72CHL1  H22B 7792   4.232   5.684   8.201  1.0877 -0.3169  1.2216
   72CHL1   C23 7793   4.129   5.535   8.318 -0.4995 -0.4276  0.4627
   72CHL1  H23A 7794   4.216   5.544   8.387  1.6787  1.0728 -2.2410
   72CHL1  H23B 7795   4.047   5.600   8.354 -0.4041 -0.4050  0.6386
   72CHL1   C24 7796   4.094   5.385   8.319 -0.3516 -0.6494 -0.4580
   72CHL1  H24A 7797   4.016   5.364   8.242 -1.2769 -0.5873  0.4351
   72CHL1  H24B 7798   4.188   5.331   8.296  0.1577  0.4361 -0.9488
   72CHL1   C25 7799   4.048   5.343   8.460 -0.6100  0.1557  0.0199
   72CHL1   H25 7800   4.116   5.381   8.540 -1.7642  1.1050  0.5803
   72CHL1   C26 7801   3.912   5.407   8.495  0.5343 -0.5412  0.1367
   72CHL1  H26A 7802   3.874   5.381   8.596  0.4489 -1.2140 -0.0604
   72CHL1  H26B 7803   3.910   5.516   8.476  1.8903 -0.4549  0.3472
   72CHL1  H26C 7804   3.844   5.361   8.420  1.6500 -1.5739 -0.2897
   72CHL1   C27 7805   4.056   5.186   8.476  0.9456 -0.3174  0.0646
   72CHL1  H27A 7806   3.986   5.141   8.403  0.4282  1.4211 -0.5515
   72CHL1  H27B 7807   4.161   5.158   8.452  0.9542  1.5582 -2.3992
   72CHL1  H27C 7808   4.020   5.152   8.576 -3.6966 -1.6696 -1.7670
   73CHL1    C3 7809   2.787   1.697   6.901  0.2294  0.2155  0.2737
   73CHL1    H3 7810   2.799   1.587   6.897 -0.6675 -0.2252  4.7893
   73CHL1    O3 7811   2.773   1.765   6.778  0.0914  0.5453 -1.0237
   73CHL1   H3' 7812   2.757   1.854   6.811  2.3590  0.0479  1.7847
   73CHL1    C4 7813   2.662   1.717   6.986  0.3245 -0.7534 -0.2093
   73CHL1   H4A 7814   2.621   1.819   6.971  2.6637  0.1817 -0.5753
   73CHL1   H4B 7815   2.586   1.654   6.934  0.9032 -1.4355 -0.2371
   73CHL1    C5 7816   2.674   1.667   7.132  0.3352  0.6168  0.3010
   73CHL1    C6 7817   2.599   1.568   7.189 -0.6237  0.2115 -0.4214
   73CHL1    H6 7818   2.532   1.512   7.121 -0.2148  0.0027 -0.6562
   73CHL1    C7 7819   2.618   1.510   7.326 -0.3790 -0.2108 -0.0220
   73CHL1   H7A 7820   2.521   1.473   7.367 -1.6815  0.9527 -1.8936
   73CHL1   H7B 7821   2.675   1.417   7.304  3.5889  2.0994 -0.3667
   73CHL1    C8 7822   2.708   1.593   7.423  0.1012 -0.0780  0.1900
   73CHL1    H8 7823   2.648   1.680   7.456  1.7234  0.5787  1.5662
   73CHL1   C14 7824   2.754   1.512   7.544 -0.0246 -0.5428 -0.4285
   73CHL1   H14 7825   2.822   1.429   7.512  1.4952 -1.2902  4.0640
   73CHL1   C15 7826   2.638   1.446   7.619 -0.3897 -0.3636 -0.5763
   73CHL1  H15A 7827   2.548   1.507   7.643 -0.9568 -0.7384 -1.6934
   73CHL1  H15B 7828   2.608   1.353   7.566 -1.7917  0.0676 -0.5794
   73CHL1   C16 7829   2.705   1.416   7.757 -0.5964  0.1593  0.0706
   73CHL1  H16A 7830   2.640   1.465   7.833  0.8829 -0.1916  1.6185
   73CHL1  H16B 7831   2.715   1.307   7.777 -1.9197  0.1596  0.8693
   73CHL1   C17 7832   2.843   1.503   7.762 -0.2481  0.3743 -0.3442
   73CHL1   H17 7833   2.922   1.431   7.730 -0.8679 -0.3048 -0.3704
   73CHL1   C13 7834   2.822   1.601   7.643 -0.5079 -0.8564 -0.0905
   73CHL1   C18 7835   2.746   1.728   7.703  0.1196 -0.1541  0.7982
   73CHL1  H18A 7836   2.810   1.784   7.775 -1.2358  1.8308  0.5218
   73CHL1  H18B 7837   2.704   1.792   7.623  0.3941  0.6564  1.2958
   73CHL1  H18C 7838   2.655   1.697   7.758  1.3292 -1.3605  2.2189
   73CHL1   C12 7839   2.951   1.647   7.578 -0.4066  0.8402  0.5449
   73CHL1  H12A 7840   3.012   1.727   7.626  0.8676  0.0557  0.2725
   73CHL1  H12B 7841   3.026   1.566   7.563 -0.3295  1.3409 -2.5080
   73CHL1   C11 7842   2.922   1.727   7.448 -0.2421 -0.8031  0.3878
   73CHL1  H11A 7843   2.865   1.820   7.469  1.1635  0.2549 -0.3790
   73CHL1  H11B 7844   3.015   1.761   7.399 -0.7316  1.1831  0.7350
   73CHL1    C9 7845   2.834   1.651   7.353  0.4925  0.6253  0.1628
   73CHL1    H9 7846   2.879   1.554   7.320  0.1027  1.2090 -2.3247
   73CHL1   C10 7847   2.799   1.722   7.215  0.6811 -0.0388  0.1251
   73CHL1   C19 7848   2.763   1.871   7.248  0.4197 -0.0533 -0.6989
   73CHL1  H19A 7849   2.854   1.926   7.280  1.3384 -1.4856 -0.7571
   73CHL1  H19B 7850   2.723   1.931   7.164 -0.0192 -0.3951 -0.7424
   73CHL1  H19C 7851   2.675   1.860   7.315  0.7673 -0.6137 -0.3183
   73CHL1    C1 7852   2.926   1.715   7.125 -0.1834 -0.0692 -0.1080
   73CHL1   H1A 7853   3.017   1.763   7.167 -0.3515 -1.1677  1.6241
   73CHL1   H1B 7854   2.952   1.607   7.125  2.3004  0.4811  0.0785
   73CHL1    C2 7855   2.902   1.763   6.979 -0.0510 -0.0945  0.1698
   73CHL1   H2A 7856   2.994   1.731   6.926 -0.6115 -1.6525  0.1032
   73CHL1   H2B 7857   2.890   1.874   6.976 -0.4951 -0.0988  1.3057
   73CHL1   C20 7858   2.880   1.569   7.901 -0.7070 -0.8730 -0.2881
   73CHL1   H20 7859   2.819   1.658   7.928 -1.0850 -1.2931  0.2463
   73CHL1   C21 7860   3.022   1.620   7.895  0.6377 -0.1444 -0.5163
   73CHL1  H21A 7861   3.060   1.624   8.000  1.6713  1.2830 -0.9112
   73CHL1  H21B 7862   3.028   1.712   7.833  0.8212 -0.8004 -1.4782
   73CHL1  H21C 7863   3.080   1.554   7.827 -0.3097 -0.7082 -0.7845
   73CHL1   C22 7864   2.867   1.463   8.021  0.4570 -1.0626 -0.4550
   73CHL1  H22A 7865   2.757   1.446   8.019 -0.3865  3.0045  0.8702
   73CHL1  H22B 7866   2.935   1.382   7.988  0.1361 -1.1031 -1.0229
   73CHL1   C23 7867   2.901   1.517   8.158 -0.4500 -1.0728  0.0105
   73CHL1  H23A 7868   3.011   1.511   8.172 -0.4711  0.5621  1.2657
   73CHL1  H23B 7869   2.878   1.625   8.167 -0.5224 -1.0233 -0.6973
   73CHL1   C24 7870   2.837   1.450   8.278 -0.3678  0.1211 -0.5090
   73CHL1  H24A 7871   2.728   1.470   8.286 -0.7941 -1.9123 -0.5209
   73CHL1  H24B 7872   2.846   1.340   8.260  0.2512 -0.3790  2.4108
   73CHL1   C25 7873   2.901   1.489   8.414  0.1074 -0.4801  0.2010
   73CHL1   H25 7874   3.011   1.481   8.404  0.1223  1.7436 -3.8710
   73CHL1   C26 7875   2.867   1.640   8.443  0.3085 -0.1263  0.4417
   73CHL1  H26A 7876   2.881   1.702   8.351 -2.1586  0.8248  0.6282
   73CHL1  H26B 7877   2.761   1.658   8.469  0.6970  2.5433  0.5106
   73CHL1  H26C 7878   2.929   1.692   8.519  0.4982 -0.5560  0.5844
   73CHL1   C27 7879   2.844   1.398   8.525  0.2328  0.4270  0.5062
   73CHL1  H27A 7880   2.732   1.401   8.523  0.1999  1.5466 -2.8377
   73CHL1  H27B 7881   2.877   1.294   8.508  0.4082  0.1417  2.4049
   73CHL1  H27C 7882   2.891   1.427   8.621 -0.4666 -0.5659  1.1748
   74CHL1    C3 7883   3.009   0.785   6.872 -1.0002 -0.0649  0.9565
   74CHL1    H3 7884   3.118   0.779   6.854 -0.9193  1.4276  0.9047
   74CHL1    O3 7885   2.954   0.809   6.744  0.1456 -0.3342 -0.1906
   74CHL1   H3' 7886   2.859   0.793   6.751  0.0119  0.7618  1.2450
   74CHL1    C4 7887   2.970   0.645   6.922 -1.0721 -0.6270  0.4010
   74CHL1   H4A 7888   2.859   0.646   6.920 -1.1210 -2.3165  0.3403
   74CHL1   H4B 7889   3.009   0.570   6.850  0.0388 -0.0504  0.3833
   74CHL1    C5 7890   3.025   0.608   7.064 -0.1211  0.0957 -0.3265
   74CHL1    C6 7891   3.093   0.491   7.080 -0.7880 -0.0490  0.3194
   74CHL1    H6 7892   3.106   0.424   6.993  1.8342  1.5078 -0.5907
   74CHL1    C7 7893   3.164   0.447   7.204  0.4710  0.0394 -0.0274
   74CHL1   H7A 7894   3.125   0.344   7.214 -1.7294  0.4784 -2.8319
   74CHL1   H7B 7895   3.273   0.454   7.188  0.5381 -1.2766 -0.2278
   74CHL1    C8 7896   3.118   0.539   7.323  0.0887 -0.3661  0.2261
   74CHL1    H8 7897   3.017   0.500   7.347 -0.0729 -1.0403 -1.3835
   74CHL1   C14 7898   3.208   0.519   7.442 -0.2517  0.0714  0.0602
   74CHL1   H14 7899   3.305   0.561   7.407  1.0955 -1.4791  1.7484
   74CHL1   C15 7900   3.224   0.369   7.479  0.6810 -0.3767 -0.3419
   74CHL1  H15A 7901   3.131   0.314   7.455  0.2483 -0.6186  1.6773
   74CHL1  H15B 7902   3.299   0.316   7.417  0.2186 -1.4684  0.0071
   74CHL1   C16 7903   3.253   0.374   7.627  0.1119 -0.5866 -0.2299
   74CHL1  H16A 7904   3.169   0.319   7.675 -0.4815  0.2483 -0.2826
   74CHL1  H16B 7905   3.354   0.342   7.659  0.7131  1.2267 -0.2235
   74CHL1   C17 7906   3.266   0.526   7.657 -0.2978  0.5444 -0.2800
   74CHL1   H17 7907   3.367   0.554   7.619  1.2162 -3.5298  0.2646
   74CHL1   C13 7908   3.165   0.596   7.561 -0.4481  0.2304 -0.0661
   74CHL1   C18 7909   3.019   0.556   7.610  0.0554  0.2072 -0.8949
   74CHL1  H18A 7910   2.991   0.601   7.708 -1.1346 -0.3840 -0.9492
   74CHL1  H18B 7911   2.939   0.575   7.534 -2.0606 -3.2014  0.2647
   74CHL1  H18C 7912   3.023   0.447   7.629  3.0188  0.5389  0.9747
   74CHL1   C12 7913   3.179   0.748   7.536  0.3905 -0.1074  0.2740
   74CHL1  H12A 7914   3.153   0.802   7.629 -0.9210 -2.5905  1.4561
   74CHL1  H12B 7915   3.287   0.763   7.511  1.2407 -1.4178  2.7951
   74CHL1   C11 7916   3.095   0.784   7.413 -0.2623  0.1908 -0.3443
   74CHL1  H11A 7917   2.989   0.771   7.443 -0.3643 -1.5989 -1.2902
   74CHL1  H11B 7918   3.108   0.892   7.393  1.9907 -0.0763 -0.6236
   74CHL1    C9 7919   3.109   0.686   7.283 -0.6063 -0.7897 -0.0725
   74CHL1    H9 7920   3.207   0.715   7.238 -0.7767 -1.9384 -1.2122
   74CHL1   C10 7921   3.010   0.713   7.172  0.9009  0.3577  0.0274
   74CHL1   C19 7922   2.858   0.708   7.217  0.9097  0.1508 -0.1449
   74CHL1  H19A 7923   2.787   0.710   7.131 -1.8423 -1.3178  1.9155
   74CHL1  H19B 7924   2.848   0.621   7.284  1.1368 -1.5301 -2.1818
   74CHL1  H19C 7925   2.834   0.797   7.279 -2.4848 -0.6859 -0.0442
   74CHL1    C1 7926   3.030   0.859   7.108  0.1382  0.1649 -0.0104
   74CHL1   H1A 7927   3.006   0.937   7.184  0.4029 -1.2648  1.6127
   74CHL1   H1B 7928   3.139   0.861   7.090 -0.0962 -0.4497 -1.6639
   74CHL1    C2 7929   2.962   0.892   6.972 -0.3765 -0.4017  0.3210
   74CHL1   H2A 7930   2.979   0.999   6.946 -0.0465 -0.7204 -0.8178
   74CHL1   H2B 7931   2.852   0.881   6.988 -0.3978  0.2366  0.6676
   74CHL1   C20 7932   3.247   0.574   7.809 -0.5898 -0.7669  0.2931
   74CHL1   H20 7933   3.171   0.655   7.800  0.4087  0.6159  3.0755
   74CHL1   C21 7934   3.389   0.627   7.845 -0.0512 -0.2330  0.2971
   74CHL1  H21A 7935   3.461   0.543   7.852  0.4140  0.1968  0.7255
   74CHL1  H21B 7936   3.394   0.678   7.943  0.9078 -0.6583  0.4734
   74CHL1  H21C 7937   3.417   0.695   7.761  2.2328 -0.5273  0.7627
   74CHL1   C22 7938   3.207   0.456   7.905 -0.0303 -0.2558  0.1321
   74CHL1  H22A 7939   3.112   0.414   7.864  1.6768 -0.8044 -3.6367
   74CHL1  H22B 7940   3.286   0.378   7.909  0.6935  0.4889  0.5282
   74CHL1   C23 7941   3.185   0.508   8.054  0.0557  0.1920  0.6163
   74CHL1  H23A 7942   3.283   0.546   8.090  0.2633  1.0252 -0.7640
   74CHL1  H23B 7943   3.106   0.586   8.051 -0.8591 -0.6762  1.3293
   74CHL1   C24 7944   3.125   0.392   8.131 -0.3092  0.5582 -0.3160
   74CHL1  H24A 7945   3.044   0.346   8.072  1.0410 -1.5323 -0.6439
   74CHL1  H24B 7946   3.197   0.308   8.141 -0.3152  0.6573  0.7000
   74CHL1   C25 7947   3.083   0.421   8.278 -0.0931 -0.9056  1.3748
   74CHL1   H25 7948   3.169   0.473   8.325  1.6750 -4.4697  2.3714
   74CHL1   C26 7949   2.954   0.517   8.281 -0.0271 -0.8559  0.0261
   74CHL1  H26A 7950   2.906   0.533   8.380 -1.4906 -1.6838 -0.5219
   74CHL1  H26B 7951   2.985   0.615   8.239 -2.1042  0.2514  0.9431
   74CHL1  H26C 7952   2.878   0.496   8.203 -0.1963  2.1111 -0.7192
   74CHL1   C27 7953   3.052   0.292   8.346  0.9371 -0.3595 -0.8020
   74CHL1  H27A 7954   3.012   0.325   8.444 -0.0569  1.5173 -1.7942
   74CHL1  H27B 7955   2.976   0.232   8.292 -1.4974  0.0941  1.8780
   74CHL1  H27C 7956   3.150   0.242   8.358 -0.4317 -3.5922 -2.0330
   75CHL1    C3 7957   0.737   3.020   6.680 -0.1762  0.3293 -0.2278
   75CHL1    H3 7958   0.726   3.125   6.714 -2.6155 -0.7230  2.6599
   75CHL1    O3 7959   0.732   3.018   6.533 -0.1401  0.4891 -0.9724
   75CHL1   H3' 7960   0.733   2.924   6.515 -0.2784  0.0052  1.2244
   75CHL1    C4 7961   0.856   2.945   6.732  0.0177 -0.1237 -0.5940
   75CHL1   H4A 7962   0.854   2.841   6.694 -1.1462 -0.2732 -0.1457
   75CHL1   H4B 7963   0.947   2.993   6.690  0.2437  0.6877  0.7593
   75CHL1    C5 7964   0.864   2.935   6.887 -0.1367 -0.8775 -0.1876
   75CHL1    C6 7965   0.973   2.977   6.957  0.8942  0.0392  0.3962
   75CHL1    H6 7966   1.057   3.019   6.899 -0.5482 -0.0093 -1.8656
   75CHL1    C7 7967   0.981   2.961   7.107  0.0743 -0.0750 -0.0020
   75CHL1   H7A 7968   1.074   2.902   7.122  0.0828 -0.7772 -2.3497
   75CHL1   H7B 7969   0.996   3.064   7.144  1.8046  0.5276 -2.1898
   75CHL1    C8 7970   0.869   2.892   7.178  0.7732 -0.1549 -0.4674
   75CHL1    H8 7971   0.891   2.783   7.185  1.4702 -0.0923 -1.4062
   75CHL1   C14 7972   0.857   2.943   7.323  0.4893  0.7938  0.2455
   75CHL1   H14 7973   0.845   3.053   7.314  0.5771  1.0214  2.4784
   75CHL1   C15 7974   0.985   2.920   7.410 -0.1359  0.2517  0.5500
   75CHL1  H15A 7975   1.007   2.812   7.398 -1.8375  0.0849 -1.6604
   75CHL1  H15B 7976   1.068   2.989   7.385  0.6732 -0.8647  0.1232
   75CHL1   C16 7977   0.934   2.934   7.555  0.1792 -0.0267 -0.0673
   75CHL1  H16A 7978   0.951   2.840   7.613 -0.9625  0.9064  1.8920
   75CHL1  H16B 7979   0.987   3.018   7.604  0.4807  0.8872 -1.8748
   75CHL1   C17 7980   0.777   2.954   7.546  0.4916  0.5315 -0.4057
   75CHL1   H17 7981   0.755   3.063   7.543 -1.5892  0.1355 -0.4063
   75CHL1   C13 7982   0.743   2.896   7.405  0.1979  0.2692  0.0560
   75CHL1   C18 7983   0.759   2.738   7.419 -0.0004 -0.3653  0.1798
   75CHL1  H18A 7984   0.821   2.703   7.505 -1.5960  0.3447  1.6848
   75CHL1  H18B 7985   0.658   2.706   7.452  1.3013 -2.3475  2.5337
   75CHL1  H18C 7986   0.780   2.687   7.323 -2.8323  0.6238 -1.0778
   75CHL1   C12 7987   0.617   2.935   7.334 -0.1893  0.4847 -0.4903
   75CHL1  H12A 7988   0.520   2.909   7.382 -0.1540  2.2535  0.6350
   75CHL1  H12B 7989   0.610   3.044   7.317  2.6409  0.8117  0.0077
   75CHL1   C11 7990   0.609   2.877   7.187 -0.8599  0.0932  0.1958
   75CHL1  H11A 7991   0.601   2.767   7.203  3.5192 -0.4477 -0.2549
   75CHL1  H11B 7992   0.512   2.911   7.145 -1.0696 -0.2959  0.3559
   75CHL1    C9 7993   0.734   2.923   7.111 -0.7526 -0.0796 -0.3649
   75CHL1    H9 7994   0.734   3.034   7.118  1.4715 -0.0981  0.6930
   75CHL1   C10 7995   0.734   2.887   6.959  0.6935 -0.4613  0.1380
   75CHL1   C19 7996   0.725   2.731   6.950  0.2725 -0.2363 -0.1212
   75CHL1  H19A 7997   0.725   2.703   6.843 -1.0225 -0.8920  0.0289
   75CHL1  H19B 7998   0.804   2.680   7.010 -1.3069 -0.6378  1.7356
   75CHL1  H19C 7999   0.630   2.684   6.983 -0.5743  0.1408 -1.9423
   75CHL1    C1 8000   0.612   2.962   6.895  0.3730 -0.1639 -0.8817
   75CHL1   H1A 8001   0.509   2.929   6.921  0.7303 -0.8174 -0.2877
   75CHL1   H1B 8002   0.598   3.069   6.920 -0.0099 -0.3241 -0.3965
   75CHL1    C2 8003   0.613   2.955   6.740  0.1554  0.1047 -0.0867
   75CHL1   H2A 8004   0.519   3.001   6.704  0.7591  2.8559  1.5378
   75CHL1   H2B 8005   0.621   2.851   6.700  3.8005  0.5441 -0.8359
   75CHL1   C20 8006   0.701   2.910   7.672  0.5820  0.2765  0.0201
   75CHL1   H20 8007   0.695   2.799   7.669  2.5716  0.1324 -0.7205
   75CHL1   C21 8008   0.559   2.965   7.673  0.6577  0.3179 -0.8015
   75CHL1  H21A 8009   0.555   3.073   7.648  3.5834  0.6446 -0.2792
   75CHL1  H21B 8010   0.500   2.944   7.765 -0.2000  0.8690 -1.2193
   75CHL1  H21C 8011   0.504   2.914   7.592 -0.8862  0.0326  0.3847
   75CHL1   C22 8012   0.769   2.932   7.808 -0.0304 -0.2891  0.4956
   75CHL1  H22A 8013   0.868   2.883   7.803 -0.6653 -1.5798  0.2457
   75CHL1  H22B 8014   0.785   3.042   7.818 -1.4328  0.1261 -1.2814
   75CHL1   C23 8015   0.695   2.868   7.930  0.7559  0.5041  0.2209
   75CHL1  H23A 8016   0.597   2.919   7.939  1.1032  1.5180 -1.2652
   75CHL1  H23B 8017   0.662   2.764   7.908  0.0011  0.3837  1.8109
   75CHL1   C24 8018   0.774   2.889   8.060  0.0897 -0.4684 -0.2580
   75CHL1  H24A 8019   0.871   2.837   8.048 -0.4645 -2.0331  1.5045
   75CHL1  H24B 8020   0.800   2.997   8.062  0.9931 -0.6835  0.3941
   75CHL1   C25 8021   0.713   2.838   8.183 -0.1583  0.4284  0.2393
   75CHL1   H25 8022   0.609   2.877   8.174 -0.5737 -0.7334 -0.1497
   75CHL1   C26 8023   0.713   2.677   8.167 -0.3364 -0.5125  0.3057
   75CHL1  H26A 8024   0.644   2.631   8.241 -1.0519  1.4457  0.9305
   75CHL1  H26B 8025   0.683   2.655   8.063  1.7654 -1.9632 -0.0553
   75CHL1  H26C 8026   0.815   2.635   8.182  0.2117  0.7757  0.3862
   75CHL1   C27 8027   0.780   2.870   8.315 -0.1240 -0.0445  0.2341
   75CHL1  H27A 8028   0.711   2.828   8.392 -1.2859 -0.6670 -1.0981
   75CHL1  H27B 8029   0.881   2.824   8.328 -0.3718  0.0968  3.5101
   75CHL1  H27C 8030   0.794   2.980   8.316  1.7836 -0.2591  0.0159
   76CHL1    C3 8031   4.839   3.095   7.130 -0.4212  0.2154 -0.4184
   76CHL1    H3 8032   4.746   3.148   7.102 -0.1017 -0.4000 -2.9067
   76CHL1    O3 8033   4.895   3.024   7.021  0.0022  0.2449 -0.2457
   76CHL1   H3' 8034   4.968   2.978   7.063 -0.4312 -0.3501 -0.1267
   76CHL1    C4 8035   4.928   3.201   7.190  0.2860 -0.0192 -0.1238
   76CHL1   H4A 8036   5.022   3.149   7.219 -0.2847 -0.3272  1.2836
   76CHL1   H4B 8037   4.955   3.284   7.121 -0.8364  0.2144 -0.2968
   76CHL1    C5 8038   4.861   3.267   7.308  0.2884  0.1314 -0.1280
   76CHL1    C6 8039   4.833   3.399   7.306  0.3138  0.5459  1.0057
   76CHL1    H6 8040   4.853   3.447   7.209 -1.3598 -2.3236 -0.8805
   76CHL1    C7 8041   4.767   3.476   7.412 -0.3076  0.0939  0.0744
   76CHL1   H7A 8042   4.824   3.569   7.429 -0.9732  0.6421 -0.6368
   76CHL1   H7B 8043   4.668   3.502   7.368  1.1527 -1.4353 -4.7322
   76CHL1    C8 8044   4.758   3.388   7.541  0.8277  0.2540 -0.0697
   76CHL1    H8 8045   4.858   3.399   7.588  1.4514 -2.6219 -0.5812
   76CHL1   C14 8046   4.648   3.438   7.633  0.2787  0.1430 -0.2548
   76CHL1   H14 8047   4.547   3.422   7.590 -0.1677  0.5533  0.6082
   76CHL1   C15 8048   4.651   3.597   7.643  0.0400  0.4759 -0.7917
   76CHL1  H15A 8049   4.756   3.628   7.665  0.9247 -0.7172 -3.0258
   76CHL1  H15B 8050   4.617   3.640   7.547 -0.0283  1.5447 -0.3051
   76CHL1   C16 8051   4.560   3.628   7.762 -0.4749  0.0693  0.1478
   76CHL1  H16A 8052   4.614   3.690   7.837  0.5805 -0.4169 -0.1889
   76CHL1  H16B 8053   4.465   3.668   7.719 -0.8214 -0.8941 -0.0152
   76CHL1   C17 8054   4.534   3.489   7.834 -0.3270 -0.7537  0.2178
   76CHL1   H17 8055   4.436   3.457   7.793 -0.8393  1.0192 -0.0353
   76CHL1   C13 8056   4.637   3.389   7.776  0.7359 -0.0314  0.8247
   76CHL1   C18 8057   4.771   3.408   7.850 -0.5083 -0.2919  0.4222
   76CHL1  H18A 8058   4.849   3.363   7.784  0.7241 -1.4903  2.5967
   76CHL1  H18B 8059   4.789   3.513   7.880  1.9891 -0.7787  0.7928
   76CHL1  H18C 8060   4.782   3.344   7.940  1.4754 -0.1210  0.3274
   76CHL1   C12 8061   4.598   3.242   7.759  0.5508  0.1562  0.2926
   76CHL1  H12A 8062   4.596   3.197   7.860 -1.0161 -0.1969  0.1334
   76CHL1  H12B 8063   4.494   3.234   7.720  0.8171  0.4457 -0.5148
   76CHL1   C11 8064   4.702   3.174   7.668 -0.3022  0.4560 -0.4006
   76CHL1  H11A 8065   4.788   3.152   7.736 -0.4216  0.6770 -0.1808
   76CHL1  H11B 8066   4.670   3.071   7.641  0.5996  0.1663 -0.4216
   76CHL1    C9 8067   4.729   3.241   7.531  0.7826  0.0384  0.3405
   76CHL1    H9 8068   4.632   3.236   7.477  0.8861  0.2618  0.1272
   76CHL1   C10 8069   4.822   3.173   7.427  0.4638  0.3313  0.9960
   76CHL1   C19 8070   4.950   3.112   7.496 -0.7122  0.4766 -0.3056
   76CHL1  H19A 8071   5.002   3.204   7.532 -0.0696 -0.1535  0.4131
   76CHL1  H19B 8072   4.922   3.040   7.576 -2.3915  0.2285 -1.0684
   76CHL1  H19C 8073   5.013   3.056   7.425 -2.4942 -0.1377 -1.4833
   76CHL1    C1 8074   4.732   3.072   7.350  0.7537  0.6733  0.5137
   76CHL1   H1A 8075   4.694   3.004   7.428 -1.6144 -0.0995 -1.2104
   76CHL1   H1B 8076   4.644   3.114   7.296  0.7479 -1.7179 -1.5130
   76CHL1    C2 8077   4.803   2.994   7.237 -0.1264 -0.3820 -0.0738
   76CHL1   H2A 8078   4.737   2.911   7.204 -1.1954 -0.2301  1.5589
   76CHL1   H2B 8079   4.899   2.951   7.273 -0.2800 -1.8991 -1.3683
   76CHL1   C20 8080   4.525   3.499   7.987  0.3580 -0.0889  0.0253
   76CHL1   H20 8081   4.619   3.549   8.020 -0.5198  0.1925  2.2410
   76CHL1   C21 8082   4.502   3.364   8.053 -0.2527  0.2046  0.0335
   76CHL1  H21A 8083   4.586   3.293   8.036 -0.2683  0.2030 -0.0369
   76CHL1  H21B 8084   4.410   3.315   8.015  1.7243 -1.5713 -2.8591
   76CHL1  H21C 8085   4.485   3.380   8.162 -0.8036 -1.3219  0.1969
   76CHL1   C22 8086   4.417   3.604   8.026  0.2682 -0.0680 -0.3847
   76CHL1  H22A 8087   4.397   3.688   7.956 -1.5113  0.1353  0.3102
   76CHL1  H22B 8088   4.322   3.549   8.043 -0.4821  0.4550 -2.6151
   76CHL1   C23 8089   4.437   3.678   8.153  0.3974 -0.3220 -0.0493
   76CHL1  H23A 8090   4.476   3.609   8.231  1.0375 -0.0662 -0.1358
   76CHL1  H23B 8091   4.528   3.740   8.139  0.8116 -0.9219 -0.0898
   76CHL1   C24 8092   4.320   3.766   8.215 -0.3227  0.4699  0.3818
   76CHL1  H24A 8093   4.281   3.830   8.133 -2.6923  0.3407  1.3272
   76CHL1  H24B 8094   4.237   3.698   8.242  0.0564 -0.2893 -0.3358
   76CHL1   C25 8095   4.362   3.841   8.348  0.4804  0.2308 -0.0681
   76CHL1   H25 8096   4.279   3.902   8.389 -0.9357 -1.6306 -0.0283
   76CHL1   C26 8097   4.417   3.736   8.452  0.5865 -0.2096  0.0945
   76CHL1  H26A 8098   4.522   3.712   8.425  1.3955  1.9019  1.1444
   76CHL1  H26B 8099   4.416   3.788   8.551 -0.7907  0.1606 -0.0894
   76CHL1  H26C 8100   4.358   3.642   8.461 -3.3285  1.8707 -1.3399
   76CHL1   C27 8101   4.470   3.946   8.304  0.0275 -0.7191 -0.1491
   76CHL1  H27A 8102   4.441   4.012   8.220  0.8666 -2.2033 -1.6789
   76CHL1  H27B 8103   4.472   4.016   8.390 -3.9341 -0.1306 -0.3584
   76CHL1  H27C 8104   4.573   3.905   8.299 -0.1487 -1.7138  2.6295
   77CHL1    C3 8105   4.014   1.810   6.764 -0.2312  0.0898  0.0147
   77CHL1    H3 8106   3.920   1.870   6.767 -0.7010 -0.4886 -1.6134
   77CHL1    O3 8107   4.016   1.743   6.641  0.3101 -0.1309 -0.2270
   77CHL1   H3' 8108   4.106   1.713   6.629  0.3888  0.2489 -0.6215
   77CHL1    C4 8109   4.140   1.885   6.768 -0.1329 -0.2487  0.8878
   77CHL1   H4A 8110   4.224   1.815   6.749  0.3762  0.3239  0.9714
   77CHL1   H4B 8111   4.132   1.959   6.685 -0.6985 -0.1887  0.9945
   77CHL1    C5 8112   4.151   1.963   6.898 -0.5223 -0.0249  0.5658
   77CHL1    C6 8113   4.171   2.098   6.901  0.5978 -0.0272 -0.9220
   77CHL1    H6 8114   4.194   2.166   6.818  0.7574  0.6650 -0.3253
   77CHL1    C7 8115   4.177   2.174   7.026  0.2549 -1.2023  0.1413
   77CHL1   H7A 8116   4.251   2.256   7.025 -0.2935 -0.6977  0.0464
   77CHL1   H7B 8117   4.079   2.226   7.037  1.2186  0.5178  0.8579
   77CHL1    C8 8118   4.193   2.087   7.154  0.0155 -0.5634  0.0695
   77CHL1    H8 8119   4.296   2.046   7.151  0.2869  0.1339 -0.8407
   77CHL1   C14 8120   4.152   2.169   7.278 -0.1192 -0.0633  0.2610
   77CHL1   H14 8121   4.045   2.191   7.257 -0.3300 -0.9383  0.3912
   77CHL1   C15 8122   4.216   2.306   7.294 -0.5160  0.1475 -0.3190
   77CHL1  H15A 8123   4.327   2.297   7.288 -0.7277 -2.5681 -1.7277
   77CHL1  H15B 8124   4.187   2.376   7.214 -1.2403  0.7584  0.4670
   77CHL1   C16 8125   4.174   2.336   7.436 -0.3417  0.0269  0.6692
   77CHL1  H16A 8126   4.259   2.373   7.497  0.8969 -0.8221 -0.4772
   77CHL1  H16B 8127   4.093   2.412   7.436  1.2101  1.7340  1.6498
   77CHL1   C17 8128   4.112   2.209   7.500 -0.4685 -0.7599  1.1317
   77CHL1   H17 8129   4.001   2.212   7.493 -0.3803 -0.1003 -0.4151
   77CHL1   C13 8130   4.162   2.100   7.407  0.3026 -0.1593  0.0726
   77CHL1   C18 8131   4.308   2.065   7.443  0.9944  0.2192  0.4873
   77CHL1  H18A 8132   4.345   1.992   7.367  0.2687 -0.3180  0.6373
   77CHL1  H18B 8133   4.371   2.155   7.458 -1.3963  1.6586  2.5969
   77CHL1  H18C 8134   4.312   2.009   7.539  0.6895  0.4629  0.6459
   77CHL1   C12 8135   4.075   1.978   7.399 -0.1096  0.0429 -0.3422
   77CHL1  H12A 8136   4.086   1.906   7.483  1.5948 -2.0509 -2.2252
   77CHL1  H12B 8137   3.967   2.004   7.401 -0.5764 -1.8258  0.2298
   77CHL1   C11 8138   4.102   1.888   7.278 -0.3934 -0.4511 -0.2511
   77CHL1  H11A 8139   4.203   1.854   7.308 -0.6023 -0.6507  0.2311
   77CHL1  H11B 8140   4.035   1.801   7.299  0.6113 -1.1981 -0.0966
   77CHL1    C9 8141   4.104   1.963   7.143  0.1121 -0.4911 -0.1168
   77CHL1    H9 8142   3.997   1.994   7.135  0.0360 -0.5864  0.5400
   77CHL1   C10 8143   4.129   1.878   7.018 -0.3128  0.0966 -0.3224
   77CHL1   C19 8144   4.254   1.788   7.048  0.5306  0.4518  0.8956
   77CHL1  H19A 8145   4.336   1.852   7.084  1.5317 -0.2398 -0.0880
   77CHL1  H19B 8146   4.224   1.700   7.109 -1.4358  0.2397 -0.2734
   77CHL1  H19C 8147   4.288   1.750   6.949 -0.2815 -1.6042  1.3422
   77CHL1    C1 8148   4.008   1.778   7.006  0.0816 -0.0565 -0.3419
   77CHL1   H1A 8149   3.998   1.707   7.091 -0.3550  0.9978  0.5287
   77CHL1   H1B 8150   3.912   1.831   7.023  0.1808 -0.0599  0.2520
   77CHL1    C2 8151   3.994   1.708   6.871  0.2073 -0.4393  1.4596
   77CHL1   H2A 8152   3.901   1.650   6.850  1.5810 -2.3541  0.3408
   77CHL1   H2B 8153   4.079   1.637   6.866  0.8208  0.3238  0.6161
   77CHL1   C20 8154   4.139   2.201   7.650 -0.5900  0.9734 -0.1993
   77CHL1   H20 8155   4.248   2.195   7.671 -0.6404  1.1013  0.1044
   77CHL1   C21 8156   4.073   2.076   7.698 -0.0962 -0.1343  0.1838
   77CHL1  H21A 8157   4.120   1.980   7.670 -3.4862 -2.1440  0.9170
   77CHL1  H21B 8158   3.966   2.074   7.670  0.8256  1.0784 -4.2180
   77CHL1  H21C 8159   4.086   2.082   7.809  2.2045 -0.6190 -0.0123
   77CHL1   C22 8160   4.086   2.319   7.733 -1.0300  0.2361  0.3538
   77CHL1  H22A 8161   4.121   2.414   7.686  0.6235  0.3676  1.7294
   77CHL1  H22B 8162   3.975   2.326   7.736 -1.2645 -1.1171 -2.4626
   77CHL1   C23 8163   4.148   2.342   7.875 -0.0228 -0.6699  0.3251
   77CHL1  H23A 8164   4.125   2.255   7.940  1.0370  0.2847  2.0539
   77CHL1  H23B 8165   4.259   2.337   7.867 -0.0273 -0.9643  0.4534
   77CHL1   C24 8166   4.100   2.463   7.956 -0.4169 -0.2444  0.1644
   77CHL1  H24A 8167   4.173   2.456   8.040  0.7691 -2.2889 -0.9491
   77CHL1  H24B 8168   4.113   2.559   7.902  0.3031  1.2014  2.7295
   77CHL1   C25 8169   3.960   2.472   8.017  0.2943  0.6450  0.6746
   77CHL1   H25 8170   3.893   2.478   7.929  0.4963 -0.1737  0.4605
   77CHL1   C26 8171   3.931   2.332   8.086 -0.7167 -0.6136  0.0899
   77CHL1  H26A 8172   3.929   2.254   8.007  0.6027 -0.4972 -0.0760
   77CHL1  H26B 8173   4.018   2.313   8.152 -0.2380  2.4873  0.5022
   77CHL1  H26C 8174   3.847   2.334   8.158  0.7343  3.7589  1.9785
   77CHL1   C27 8175   3.947   2.593   8.110  0.0236  0.0146 -0.2810
   77CHL1  H27A 8176   4.021   2.595   8.193  0.7292 -1.2884 -0.8533
   77CHL1  H27B 8177   3.958   2.688   8.053  1.6823  0.9710  1.5255
   77CHL1  H27C 8178   3.848   2.584   8.159  0.0097 -0.9327 -0.4561
   78CHL1    C3 8179   1.245   3.465   7.016 -0.8324 -1.1901  0.1361
   78CHL1    H3 8180   1.351   3.460   7.049 -0.7692  2.5075  0.8438
   78CHL1    O3 8181   1.235   3.464   6.875  0.1138 -0.0942 -0.0114
   78CHL1   H3' 8182   1.147   3.494   6.852  0.0512  1.2426  1.8073
   78CHL1    C4 8183   1.149   3.366   7.080  0.8519 -0.7148 -0.0081
   78CHL1   H4A 8184   1.045   3.382   7.043  1.4710  3.3541 -0.3719
   78CHL1   H4B 8185   1.184   3.262   7.060  2.7579 -0.3421  1.2317
   78CHL1    C5 8186   1.148   3.371   7.231  0.4729 -0.1615  0.2837
   78CHL1    C6 8187   1.170   3.267   7.308 -0.3242 -0.3339 -0.0250
   78CHL1    H6 8188   1.185   3.172   7.255  0.7343  0.2643 -0.8487
   78CHL1    C7 8189   1.161   3.257   7.460  0.3644 -0.2067  0.5786
   78CHL1   H7A 8190   1.101   3.171   7.496  1.5799 -0.9534  0.8877
   78CHL1   H7B 8191   1.260   3.260   7.511  0.6623  2.7061 -0.0015
   78CHL1    C8 8192   1.088   3.382   7.511  0.0507  0.2470  0.0653
   78CHL1    H8 8193   0.982   3.369   7.480  0.0616  0.0035  0.1321
   78CHL1   C14 8194   1.089   3.384   7.665 -0.4272 -0.2407  0.9957
   78CHL1   H14 8195   1.197   3.377   7.686 -0.0562  1.5922 -0.0435
   78CHL1   C15 8196   1.021   3.278   7.748  0.2907  0.5339  0.3517
   78CHL1  H15A 8197   0.919   3.256   7.709  1.0173 -0.3159 -1.1463
   78CHL1  H15B 8198   1.081   3.186   7.763 -0.4308 -0.1983 -1.0685
   78CHL1   C16 8199   1.008   3.338   7.892  0.3160 -0.6749 -0.0030
   78CHL1  H16A 8200   0.901   3.321   7.914  0.4422 -0.6244  0.6667
   78CHL1  H16B 8201   1.058   3.285   7.976  1.3413  0.3823  0.0813
   78CHL1   C17 8202   1.053   3.482   7.882 -0.1077  0.9046 -0.0365
   78CHL1   H17 8203   1.163   3.476   7.900 -0.0204  0.3400 -0.7077
   78CHL1   C13 8204   1.040   3.510   7.731 -0.9212 -0.9591  0.3324
   78CHL1   C18 8205   0.895   3.525   7.698 -0.6696 -0.9734 -0.3183
   78CHL1  H18A 8206   0.830   3.443   7.736 -2.4785 -1.0059 -3.1311
   78CHL1  H18B 8207   0.866   3.630   7.718  1.1369 -0.5976  0.5244
   78CHL1  H18C 8208   0.888   3.511   7.587  1.5449  0.8188 -0.7621
   78CHL1   C12 8209   1.121   3.624   7.664 -0.1983  0.3152  0.4383
   78CHL1  H12A 8210   1.101   3.723   7.710 -0.9979  1.0508 -1.4054
   78CHL1  H12B 8211   1.230   3.606   7.673 -0.3884 -0.1636  2.0540
   78CHL1   C11 8212   1.097   3.634   7.516 -0.5289 -0.7135  0.4517
   78CHL1  H11A 8213   0.987   3.649   7.507 -0.8286 -1.0298  2.8810
   78CHL1  H11B 8214   1.142   3.720   7.462  1.8101 -1.9947  0.2665
   78CHL1    C9 8215   1.146   3.511   7.444 -0.6463  0.5766 -0.5684
   78CHL1    H9 8216   1.255   3.501   7.466 -0.3886  2.2052 -1.0054
   78CHL1   C10 8217   1.128   3.511   7.283  0.5327  0.2362 -0.2986
   78CHL1   C19 8218   0.976   3.551   7.267 -0.8067 -0.4525  0.0250
   78CHL1  H19A 8219   0.904   3.503   7.337 -1.4306  2.8851  1.8587
   78CHL1  H19B 8220   0.955   3.657   7.290 -1.5421 -0.6276  0.1916
   78CHL1  H19C 8221   0.941   3.540   7.162  0.7419  1.7904 -0.8017
   78CHL1    C1 8222   1.208   3.620   7.215  0.4705 -0.4628 -0.5744
   78CHL1   H1A 8223   1.163   3.720   7.236 -0.2013 -0.6390 -1.1191
   78CHL1   H1B 8224   1.310   3.616   7.259 -0.0507 -1.1517  0.6094
   78CHL1    C2 8225   1.209   3.613   7.059 -0.1718  0.6411 -0.2492
   78CHL1   H2A 8226   1.291   3.675   7.018  1.9991 -1.1939  1.0645
   78CHL1   H2B 8227   1.111   3.650   7.021  0.9417  2.9029 -1.0554
   78CHL1   C20 8228   0.991   3.573   7.991  0.3676 -0.0557  0.1492
   78CHL1   H20 8229   0.885   3.589   7.964 -0.4673  0.9006  3.4725
   78CHL1   C21 8230   1.072   3.699   7.997 -0.3609 -0.8607 -0.2170
   78CHL1  H21A 8231   1.176   3.675   8.027  0.5312  1.3796 -1.3119
   78CHL1  H21B 8232   1.024   3.781   8.054  2.6152  3.5425 -3.3549
   78CHL1  H21C 8233   1.091   3.752   7.901  1.6877  2.4297  1.8108
   78CHL1   C22 8234   1.000   3.513   8.136 -0.3293  0.1103  0.6758
   78CHL1  H22A 8235   0.969   3.407   8.137  2.2685 -0.7380  0.7512
   78CHL1  H22B 8236   1.106   3.516   8.169 -0.6412  1.0013  1.6479
   78CHL1   C23 8237   0.923   3.585   8.246  0.5131 -0.2080  0.2820
   78CHL1  H23A 8238   0.951   3.692   8.244 -0.1499  0.0467  2.5220
   78CHL1  H23B 8239   0.815   3.577   8.218  1.0696 -0.0450 -2.1869
   78CHL1   C24 8240   0.920   3.513   8.380 -0.3652  0.2478  0.1330
   78CHL1  H24A 8241   0.934   3.403   8.366  0.5622  0.4445 -0.6059
   78CHL1  H24B 8242   1.014   3.548   8.430 -0.7445  0.7551  0.5023
   78CHL1   C25 8243   0.799   3.536   8.477 -0.6616  0.3545  0.8003
   78CHL1   H25 8244   0.713   3.507   8.414  0.1597  1.3556 -0.8591
   78CHL1   C26 8245   0.814   3.441   8.597 -0.2928  0.1105 -1.0714
   78CHL1  H26A 8246   0.896   3.481   8.660 -0.9706  2.4453 -1.5597
   78CHL1  H26B 8247   0.717   3.429   8.650 -0.8460  1.9346 -1.5645
   78CHL1  H26C 8248   0.844   3.342   8.556  0.2395 -0.3366  0.3538
   78CHL1   C27 8249   0.790   3.682   8.523  0.0890  0.0426  0.2641
   78CHL1  H27A 8250   0.701   3.700   8.587  1.5394 -0.4220  2.5453
   78CHL1  H27B 8251   0.872   3.717   8.589  0.0030  2.2802 -0.7057
   78CHL1  H27C 8252   0.782   3.750   8.435  0.8742  1.8680  1.5293
   79CHL1    C3 8253   5.801   3.995   7.230 -0.4055  0.1516 -0.7628
   79CHL1    H3 8254   5.883   3.927   7.261  0.2265 -0.0302 -2.7063
   79CHL1    O3 8255   5.789   3.984   7.092  0.0223  0.0676  0.3464
   79CHL1   H3' 8256   5.856   4.038   7.049  2.3791 -1.7905  1.4342
   79CHL1    C4 8257   5.668   3.956   7.296 -0.5804  0.3059 -0.4707
   79CHL1   H4A 8258   5.588   4.020   7.252 -0.5969  0.7786  0.2252
   79CHL1   H4B 8259   5.648   3.852   7.260  3.1648 -0.7360  0.0842
   79CHL1    C5 8260   5.666   3.955   7.443  0.1211 -0.1533  0.2628
   79CHL1    C6 8261   5.645   3.838   7.511 -0.3838 -0.0961  0.2282
   79CHL1    H6 8262   5.608   3.747   7.461  0.1728 -1.2640  1.8659
   79CHL1    C7 8263   5.666   3.824   7.656  0.3444 -0.0841 -0.4448
   79CHL1   H7A 8264   5.583   3.762   7.697 -0.6082  1.7242  0.4779
   79CHL1   H7B 8265   5.761   3.767   7.667  1.8464  2.1715 -1.1218
   79CHL1    C8 8266   5.667   3.958   7.727 -0.4104 -0.3752 -0.8088
   79CHL1    H8 8267   5.563   3.995   7.733 -1.5834 -3.5176  0.4527
   79CHL1   C14 8268   5.713   3.923   7.865 -0.9970  0.0403 -0.3812
   79CHL1   H14 8269   5.822   3.899   7.869 -1.2297 -0.9369  1.9152
   79CHL1   C15 8270   5.643   3.813   7.949 -0.6538  0.3860  0.0348
   79CHL1  H15A 8271   5.533   3.831   7.946 -0.7193 -0.0971 -1.6117
   79CHL1  H15B 8272   5.669   3.711   7.914 -1.0084  0.3923 -0.2557
   79CHL1   C16 8273   5.681   3.851   8.092 -0.7841  0.1284 -0.0310
   79CHL1  H16A 8274   5.591   3.868   8.155 -1.7416  0.9321 -1.5373
   79CHL1  H16B 8275   5.733   3.763   8.135  2.9079  1.3138 -1.6957
   79CHL1   C17 8276   5.772   3.980   8.086 -0.0689 -0.1757  0.1504
   79CHL1   H17 8277   5.879   3.954   8.067 -0.2785 -0.0999 -1.2042
   79CHL1   C13 8278   5.729   4.052   7.953 -0.5570  0.1258  0.1399
   79CHL1   C18 8279   5.587   4.134   7.980 -0.3723  0.7999  0.1308
   79CHL1  H18A 8280   5.542   4.179   7.889 -0.1108  2.1917  0.6639
   79CHL1  H18B 8281   5.517   4.054   8.009 -0.7855 -0.2626 -3.3597
   79CHL1  H18C 8282   5.592   4.214   8.058  1.4648 -1.3601  2.3674
   79CHL1   C12 8283   5.834   4.144   7.894  0.6550  0.2799  0.3304
   79CHL1  H12A 8284   5.839   4.236   7.956 -0.3865 -0.7179  1.9519
   79CHL1  H12B 8285   5.934   4.095   7.895 -0.0359 -1.2246  2.4308
   79CHL1   C11 8286   5.804   4.181   7.745 -0.5458 -0.3315  0.4674
   79CHL1  H11A 8287   5.718   4.251   7.738 -0.3349 -0.1766 -1.0303
   79CHL1  H11B 8288   5.890   4.232   7.698 -0.9958 -0.4740 -0.5374
   79CHL1    C9 8289   5.766   4.054   7.656  0.4195  0.4108 -0.4372
   79CHL1    H9 8290   5.858   3.995   7.641  0.6156  1.0615 -2.0462
   79CHL1   C10 8291   5.720   4.086   7.506 -0.3797  0.2668  0.4808
   79CHL1   C19 8292   5.608   4.192   7.510  0.0860  0.3059  0.9760
   79CHL1  H19A 8293   5.582   4.219   7.405  2.5911 -1.9452 -0.3535
   79CHL1  H19B 8294   5.522   4.152   7.568  0.8859 -0.2425  1.8169
   79CHL1  H19C 8295   5.652   4.287   7.547 -0.0189  0.9284 -0.4517
   79CHL1    C1 8296   5.854   4.140   7.430  0.2663  0.2602  0.2467
   79CHL1   H1A 8297   5.869   4.243   7.467 -2.5227  0.7668  0.2000
   79CHL1   H1B 8298   5.944   4.083   7.462  0.5141 -0.9200 -2.2713
   79CHL1    C2 8299   5.844   4.139   7.277  0.0055 -0.3209  0.2903
   79CHL1   H2A 8300   5.932   4.174   7.218  0.4632 -2.4813 -0.3693
   79CHL1   H2B 8301   5.770   4.221   7.259  1.6108  1.2373  0.4769
   79CHL1   C20 8302   5.773   4.062   8.220  0.4708  0.0549  0.3069
   79CHL1   H20 8303   5.671   4.099   8.244  0.9242  1.3411  0.3228
   79CHL1   C21 8304   5.873   4.174   8.216 -0.5671  0.2197 -0.2308
   79CHL1  H21A 8305   5.966   4.145   8.163 -1.9589 -2.5150 -1.3953
   79CHL1  H21B 8306   5.907   4.204   8.317 -2.0647 -1.6670  0.8906
   79CHL1  H21C 8307   5.834   4.262   8.161  0.9364  1.6183  0.8531
   79CHL1   C22 8308   5.818   3.973   8.338  0.1817  0.5029 -0.0173
   79CHL1  H22A 8309   5.776   3.870   8.338 -0.7501  0.8605  1.1230
   79CHL1  H22B 8310   5.928   3.971   8.324 -0.1115  0.4391 -2.6959
   79CHL1   C23 8311   5.784   4.017   8.477 -0.2794  0.3564  0.6165
   79CHL1  H23A 8312   5.860   3.970   8.542 -1.9501 -1.9021  1.0675
   79CHL1  H23B 8313   5.796   4.128   8.479  1.5024  0.1737  1.3105
   79CHL1   C24 8314   5.654   3.973   8.542  0.0420  0.5494  0.1895
   79CHL1  H24A 8315   5.564   4.010   8.488  0.1363 -0.6675 -0.8619
   79CHL1  H24B 8316   5.642   3.862   8.546  0.3216  0.5548  1.7657
   79CHL1   C25 8317   5.647   4.008   8.692  1.1925  0.6156  0.3005
   79CHL1   H25 8318   5.736   3.971   8.747  3.8280  3.4980 -1.7450
   79CHL1   C26 8319   5.651   4.159   8.704  0.2814  0.3525  0.6211
   79CHL1  H26A 8320   5.620   4.186   8.807  1.3435 -0.5528  1.2039
   79CHL1  H26B 8321   5.751   4.200   8.677  0.5535 -0.1972  0.7644
   79CHL1  H26C 8322   5.590   4.208   8.625  0.6628  1.3960  0.9574
   79CHL1   C27 8323   5.516   3.959   8.761 -0.6141  0.3445  0.2548
   79CHL1  H27A 8324   5.500   3.850   8.751 -2.2805  0.0247  4.1792
   79CHL1  H27B 8325   5.508   3.982   8.870  1.2735 -0.4230  0.5872
   79CHL1  H27C 8326   5.431   4.004   8.704  1.0035  0.3093 -2.3196
   80CHL1    C3 8327   3.289   1.157   7.072  0.0328 -0.0774 -0.1128
   80CHL1    H3 8328   3.186   1.132   7.106 -0.0132  0.4459  0.1461
   80CHL1    O3 8329   3.289   1.186   6.934  0.2924  0.3319  1.0931
   80CHL1   H3' 8330   3.378   1.158   6.913 -0.7200 -1.5194 -1.2528
   80CHL1    C4 8331   3.333   1.285   7.142 -0.8733 -0.3866  0.2066
   80CHL1   H4A 8332   3.433   1.318   7.104 -1.7653  0.8034 -1.2487
   80CHL1   H4B 8333   3.261   1.365   7.115 -0.4488 -0.3415 -0.8895
   80CHL1    C5 8334   3.341   1.278   7.291  0.5045  0.2496 -0.1907
   80CHL1    C6 8335   3.299   1.372   7.372  0.0837 -0.0883 -0.1431
   80CHL1    H6 8336   3.251   1.458   7.322  0.0960 -1.3444 -2.4370
   80CHL1    C7 8337   3.322   1.389   7.521 -0.1912  0.2377  0.5446
   80CHL1   H7A 8338   3.360   1.492   7.535 -1.6211  0.6424  1.6503
   80CHL1   H7B 8339   3.225   1.377   7.575 -0.8019 -1.6655 -0.8705
   80CHL1    C8 8340   3.414   1.274   7.574  0.4406  0.6316  0.2349
   80CHL1    H8 8341   3.517   1.310   7.555  1.0860 -0.3834  1.6491
   80CHL1   C14 8342   3.401   1.243   7.724  0.8305 -0.1817 -0.2376
   80CHL1   H14 8343   3.309   1.181   7.733  1.2712 -0.7726  0.2337
   80CHL1   C15 8344   3.368   1.363   7.815  0.1363  0.0979 -0.6077
   80CHL1  H15A 8345   3.429   1.452   7.790  0.9913 -0.3224 -0.0747
   80CHL1  H15B 8346   3.261   1.394   7.817  0.2879  0.6365  1.2096
   80CHL1   C16 8347   3.402   1.301   7.956 -0.4590 -0.6970  0.4748
   80CHL1  H16A 8348   3.481   1.365   7.999 -0.4569 -2.2001  2.8549
   80CHL1  H16B 8349   3.320   1.307   8.030  0.1143 -2.2608  1.2863
   80CHL1   C17 8350   3.463   1.157   7.933 -0.0160 -0.4036  0.0715
   80CHL1   H17 8351   3.378   1.088   7.954  0.5964 -1.3133 -0.3761
   80CHL1   C13 8352   3.499   1.160   7.790  0.1048  0.1774  0.3828
   80CHL1   C18 8353   3.638   1.221   7.770  0.9002 -0.3159  0.2417
   80CHL1  H18A 8354   3.664   1.236   7.663  1.8154 -2.0106  0.1943
   80CHL1  H18B 8355   3.643   1.321   7.818  0.1059 -0.4196  0.5642
   80CHL1  H18C 8356   3.719   1.154   7.805  0.2174 -1.0329  0.4830
   80CHL1   C12 8357   3.500   1.023   7.717  0.7245 -0.5670  0.2150
   80CHL1  H12A 8358   3.595   0.971   7.742  0.7786 -0.2482  0.6822
   80CHL1  H12B 8359   3.408   0.962   7.734  0.7742 -1.0632 -1.1645
   80CHL1   C11 8360   3.505   1.039   7.560  0.1874 -0.2292  0.2547
   80CHL1  H11A 8361   3.607   1.076   7.536  0.8825 -2.4161 -0.4733
   80CHL1  H11B 8362   3.493   0.947   7.498 -1.0459  0.8963 -1.2670
   80CHL1    C9 8363   3.402   1.142   7.495  0.3264 -0.1180  0.1551
   80CHL1    H9 8364   3.300   1.101   7.510 -0.1041  0.2687 -1.5628
   80CHL1   C10 8365   3.418   1.160   7.343 -0.8783 -0.8396  0.1172
   80CHL1   C19 8366   3.565   1.193   7.307  0.4891 -0.0591 -0.1070
   80CHL1  H19A 8367   3.632   1.107   7.330 -0.1134 -0.4973  0.0575
   80CHL1  H19B 8368   3.565   1.223   7.201 -0.1324  2.8448  0.6262
   80CHL1  H19C 8369   3.582   1.290   7.359 -1.8290  0.3725 -0.0314
   80CHL1    C1 8370   3.382   1.033   7.268  0.8234  1.0680  0.1627
   80CHL1   H1A 8371   3.455   0.954   7.294  3.2770  3.2131  0.1117
   80CHL1   H1B 8372   3.288   0.993   7.312  1.4834 -0.8757 -0.0791
   80CHL1    C2 8373   3.377   1.040   7.114 -0.2520  0.5943  0.4213
   80CHL1   H2A 8374   3.349   0.944   7.065  0.4300 -0.4082  1.9390
   80CHL1   H2B 8375   3.474   1.075   7.074 -0.7298  2.8909  1.1171
   80CHL1   C20 8376   3.587   1.123   8.033  0.5773 -0.3566  0.4262
   80CHL1   H20 8377   3.670   1.194   8.016  0.3163  0.1436  1.1787
   80CHL1   C21 8378   3.626   0.978   8.018 -0.9648  0.1881 -0.5052
   80CHL1  H21A 8379   3.674   0.958   7.919 -0.7677 -0.7673 -0.2289
   80CHL1  H21B 8380   3.542   0.907   8.033 -1.0497  0.3676 -0.1281
   80CHL1  H21C 8381   3.702   0.935   8.087  0.2641  0.5568 -1.5698
   80CHL1   C22 8382   3.534   1.146   8.175 -0.1163  0.2780 -0.6484
   80CHL1  H22A 8383   3.500   1.252   8.180 -0.4708  0.1002  1.7683
   80CHL1  H22B 8384   3.441   1.091   8.200 -0.0965  0.1529 -0.8432
   80CHL1   C23 8385   3.638   1.121   8.281 -0.4333  0.4953  0.6508
   80CHL1  H23A 8386   3.649   1.010   8.286 -0.1594  0.5004  0.2411
   80CHL1  H23B 8387   3.735   1.166   8.252  0.6856 -2.2692 -0.2930
   80CHL1   C24 8388   3.583   1.172   8.413 -0.4279  0.4724 -1.0868
   80CHL1  H24A 8389   3.570   1.282   8.423  1.6702  0.6368  0.6843
   80CHL1  H24B 8390   3.482   1.126   8.419  0.1174 -0.6494  0.0766
   80CHL1   C25 8391   3.667   1.123   8.541 -0.2630 -0.6163  0.6153
   80CHL1   H25 8392   3.667   1.012   8.541 -0.7482 -0.7216 -2.7364
   80CHL1   C26 8393   3.819   1.174   8.541 -0.0103 -0.9331 -0.5490
   80CHL1  H26A 8394   3.822   1.277   8.499 -1.3202  0.1627  1.7896
   80CHL1  H26B 8395   3.852   1.166   8.647 -1.7500 -1.3385  0.0068
   80CHL1  H26C 8396   3.885   1.107   8.482  1.4881 -1.0529  1.1790
   80CHL1   C27 8397   3.591   1.175   8.664  0.0581 -0.2276  0.2786
   80CHL1  H27A 8398   3.483   1.148   8.664 -0.2952  1.1014  1.4261
   80CHL1  H27B 8399   3.643   1.136   8.754  1.6932 -1.5162 -1.1415
   80CHL1  H27C 8400   3.591   1.286   8.665 -0.5938 -0.1586 -1.8503
   81CHL1    C3 8401   2.961   2.697   6.907  0.0852  0.3039 -0.7687
   81CHL1    H3 8402   2.852   2.713   6.901  0.2274  0.9676 -1.9816
   81CHL1    O3 8403   3.023   2.707   6.780  0.2345 -0.0098  0.0352
   81CHL1   H3' 8404   2.948   2.717   6.721 -2.5133  1.0434  3.3379
   81CHL1    C4 8405   3.031   2.799   6.993 -0.0937  0.2822 -0.2345
   81CHL1   H4A 8406   3.142   2.805   6.989 -0.1333  0.6617 -0.9501
   81CHL1   H4B 8407   2.992   2.892   6.947 -3.0323 -1.1222 -0.8057
   81CHL1    C5 8408   2.982   2.793   7.140  0.2306  0.4686  0.2450
   81CHL1    C6 8409   2.927   2.898   7.206 -0.3243  0.4063 -0.0420
   81CHL1    H6 8410   2.918   2.998   7.161  0.0015  0.5557  0.2172
   81CHL1    C7 8411   2.899   2.901   7.349  0.0745  0.0868 -0.3374
   81CHL1   H7A 8412   2.929   2.993   7.403  1.2862  0.6396 -1.8848
   81CHL1   H7B 8413   2.789   2.898   7.367 -0.1626 -1.9231 -1.7791
   81CHL1    C8 8414   2.955   2.774   7.422 -0.3320  0.1669  0.2543
   81CHL1    H8 8415   3.061   2.797   7.443 -1.2280  2.0814  3.4230
   81CHL1   C14 8416   2.886   2.757   7.555  0.0798 -0.2800  0.6019
   81CHL1   H14 8417   2.778   2.742   7.534  0.3170 -0.9462 -0.2440
   81CHL1   C15 8418   2.894   2.876   7.651 -0.9651  0.0235  0.2205
   81CHL1  H15A 8419   2.990   2.931   7.645 -1.2562  0.4288 -1.0248
   81CHL1  H15B 8420   2.821   2.955   7.624 -0.4828  0.4224  0.0909
   81CHL1   C16 8421   2.875   2.813   7.792 -0.3088 -0.4482 -0.2238
   81CHL1  H16A 8422   2.967   2.827   7.853 -1.0570  1.6490  0.5123
   81CHL1  H16B 8423   2.790   2.862   7.843 -0.5039 -1.2003  0.1845
   81CHL1   C17 8424   2.847   2.669   7.766 -0.0645  0.9157 -0.4432
   81CHL1   H17 8425   2.738   2.657   7.747  0.5010 -0.2938 -3.6381
   81CHL1   C13 8426   2.921   2.633   7.636 -1.3033  0.0060  0.1903
   81CHL1   C18 8427   3.079   2.628   7.667  0.1943  0.5263 -0.2286
   81CHL1  H18A 8428   3.129   2.624   7.568 -3.0557 -0.6626 -1.9681
   81CHL1  H18B 8429   3.118   2.700   7.742  0.8739 -1.5990  1.5939
   81CHL1  H18C 8430   3.083   2.531   7.722  3.5826 -0.0425 -1.2596
   81CHL1   C12 8431   2.874   2.510   7.553  0.4252  0.3240 -0.6288
   81CHL1  H12A 8432   2.888   2.411   7.602 -0.4057  2.1149  3.7736
   81CHL1  H12B 8433   2.763   2.522   7.550  0.0498 -1.8918  1.2783
   81CHL1   C11 8434   2.931   2.511   7.408  0.1981 -0.1496 -0.8188
   81CHL1  H11A 8435   3.037   2.478   7.416  1.3549  3.1572 -1.3076
   81CHL1  H11B 8436   2.866   2.437   7.356 -0.8192 -0.3677  0.7193
   81CHL1    C9 8437   2.922   2.653   7.340  0.2908 -0.2674  0.0362
   81CHL1    H9 8438   2.815   2.662   7.313  0.3285  2.1297  0.4665
   81CHL1   C10 8439   2.996   2.655   7.200 -0.2996  0.2277  0.8955
   81CHL1   C19 8440   3.143   2.628   7.218 -0.9326 -0.0610 -0.4116
   81CHL1  H19A 8441   3.199   2.707   7.272 -1.0116 -1.3234  1.6253
   81CHL1  H19B 8442   3.165   2.544   7.287  1.9754  1.7257  1.0086
   81CHL1  H19C 8443   3.198   2.621   7.121  0.4111  1.7135  0.1572
   81CHL1    C1 8444   2.933   2.542   7.110  0.5388 -0.6605  0.2203
   81CHL1   H1A 8445   2.954   2.439   7.147 -0.7093 -1.2726 -0.7067
   81CHL1   H1B 8446   2.824   2.558   7.105  0.5383 -0.4381  0.8333
   81CHL1    C2 8447   2.978   2.558   6.964  0.2255 -0.4278  0.0634
   81CHL1   H2A 8448   2.924   2.488   6.898  1.1813 -1.3547  0.2328
   81CHL1   H2B 8449   3.084   2.524   6.955  0.4732 -0.3270  2.0390
   81CHL1   C20 8450   2.859   2.579   7.892  0.7255  0.4920 -0.7924
   81CHL1   H20 8451   2.959   2.598   7.937  0.2946  0.8744  0.0167
   81CHL1   C21 8452   2.835   2.428   7.875 -0.1157  0.0809 -0.0045
   81CHL1  H21A 8453   2.841   2.379   7.975 -0.9750 -0.7529 -0.3483
   81CHL1  H21B 8454   2.892   2.369   7.800 -0.4291  1.3686 -1.3039
   81CHL1  H21C 8455   2.728   2.408   7.856 -0.0558 -0.0207 -0.2339
   81CHL1   C22 8456   2.765   2.635   7.998 -0.0098 -0.2771  0.5337
   81CHL1  H22A 8457   2.757   2.746   7.997 -0.3069 -0.2979  0.0452
   81CHL1  H22B 8458   2.668   2.581   7.991 -0.4119  0.6387 -1.9698
   81CHL1   C23 8459   2.812   2.610   8.142 -0.0491 -0.1848 -0.6778
   81CHL1  H23A 8460   2.847   2.505   8.153  0.8581  0.3065  1.6794
   81CHL1  H23B 8461   2.898   2.678   8.159 -0.9374  0.3683  2.0117
   81CHL1   C24 8462   2.708   2.632   8.243 -0.0584  0.7963  0.3740
   81CHL1  H24A 8463   2.694   2.742   8.246  3.3903  1.3053  2.1576
   81CHL1  H24B 8464   2.615   2.583   8.207  0.7627 -0.4868 -0.0573
   81CHL1   C25 8465   2.737   2.573   8.382 -0.3782  0.0193 -0.4683
   81CHL1   H25 8466   2.667   2.609   8.460 -0.6779 -2.2903  0.3969
   81CHL1   C26 8467   2.717   2.425   8.389  0.5757 -0.0329  0.1251
   81CHL1  H26A 8468   2.623   2.393   8.339 -0.2298 -1.6212  2.4533
   81CHL1  H26B 8469   2.788   2.364   8.330  0.0141 -0.8916  0.3083
   81CHL1  H26C 8470   2.727   2.398   8.497  0.9838  2.1200  0.6638
   81CHL1   C27 8471   2.873   2.620   8.430  0.0731 -0.4546 -0.3779
   81CHL1  H27A 8472   2.888   2.730   8.433 -2.3286 -0.0878 -0.3006
   81CHL1  H27B 8473   2.892   2.593   8.536  2.4441 -0.1744 -0.6602
   81CHL1  H27C 8474   2.952   2.578   8.363 -0.0770  0.6757 -1.2927
   82CHL1    C3 8475   1.614   3.639   7.125 -0.2124 -0.8224  0.0824
   82CHL1    H3 8476   1.506   3.656   7.145  0.0344 -0.4979  1.2098
   82CHL1    O3 8477   1.643   3.684   6.993  0.1448  0.7187 -0.0460
   82CHL1   H3' 8478   1.561   3.659   6.949 -1.2378 -1.1793  3.2583
   82CHL1    C4 8479   1.696   3.730   7.226  0.4598 -1.5212 -0.5612
   82CHL1   H4A 8480   1.802   3.701   7.211  0.4653 -2.0268  0.3861
   82CHL1   H4B 8481   1.681   3.838   7.206 -1.3382 -1.8236 -0.9922
   82CHL1    C5 8482   1.663   3.697   7.374  1.2101  0.0069  0.5660
   82CHL1    C6 8483   1.607   3.785   7.455  0.2008  0.4578  0.1359
   82CHL1    H6 8484   1.598   3.890   7.424  1.5479 -0.4756 -4.0672
   82CHL1    C7 8485   1.565   3.755   7.598  0.5578 -0.4322 -0.4565
   82CHL1   H7A 8486   1.600   3.837   7.665 -1.0463  1.6747 -2.0451
   82CHL1   H7B 8487   1.456   3.771   7.603  0.8587  1.9723 -0.3877
   82CHL1    C8 8488   1.625   3.625   7.649 -0.1588  0.1426  0.3864
   82CHL1    H8 8489   1.727   3.644   7.689 -0.5177  1.4090  0.7479
   82CHL1   C14 8490   1.530   3.583   7.764 -0.0446  0.3980  0.0489
   82CHL1   H14 8491   1.425   3.573   7.729 -0.6722 -0.2484  2.0000
   82CHL1   C15 8492   1.497   3.682   7.876  0.0888  0.2328  0.2028
   82CHL1  H15A 8493   1.591   3.736   7.898 -0.7077  2.1758 -0.9709
   82CHL1  H15B 8494   1.418   3.751   7.841 -0.2734 -0.2173  0.1154
   82CHL1   C16 8495   1.459   3.593   8.000 -0.5221  0.0114 -0.1232
   82CHL1  H16A 8496   1.532   3.626   8.077 -1.5533  0.2453  0.7746
   82CHL1  H16B 8497   1.359   3.605   8.047 -0.4468  2.4242 -0.4740
   82CHL1   C17 8498   1.470   3.445   7.951 -0.3574  0.4617 -0.1424
   82CHL1   H17 8499   1.372   3.416   7.908 -0.7712 -1.3527  1.8254
   82CHL1   C13 8500   1.574   3.458   7.836  0.5111 -0.0055 -0.5084
   82CHL1   C18 8501   1.716   3.481   7.900  0.6306  0.4422  0.1798
   82CHL1  H18A 8502   1.708   3.574   7.961 -0.3813  0.4029  0.1348
   82CHL1  H18B 8503   1.732   3.394   7.967 -2.4366  0.9402  1.7938
   82CHL1  H18C 8504   1.801   3.488   7.829  2.5147 -3.0895  1.8432
   82CHL1   C12 8505   1.575   3.348   7.731  0.5824 -0.0605 -0.5151
   82CHL1  H12A 8506   1.612   3.254   7.778 -1.1942 -0.3645  0.3479
   82CHL1  H12B 8507   1.472   3.327   7.696  0.4689  1.4843 -1.1715
   82CHL1   C11 8508   1.663   3.379   7.603  0.0022  0.3230 -0.0478
   82CHL1  H11A 8509   1.765   3.389   7.648 -1.6826  0.4406  4.2341
   82CHL1  H11B 8510   1.665   3.294   7.532  1.6007  1.2205 -1.1379
   82CHL1    C9 8511   1.615   3.511   7.542 -0.1569  0.2570 -0.6890
   82CHL1    H9 8512   1.507   3.501   7.521 -0.3883 -2.0409  1.1469
   82CHL1   C10 8513   1.675   3.546   7.404  0.0101 -0.0476  0.5039
   82CHL1   C19 8514   1.828   3.525   7.426  0.2643  0.2370 -0.1276
   82CHL1  H19A 8515   1.857   3.418   7.434  0.2895  0.3507  1.5732
   82CHL1  H19B 8516   1.884   3.566   7.339  0.2663 -2.4708 -1.5086
   82CHL1  H19C 8517   1.860   3.564   7.525  0.2056 -0.6917  0.2692
   82CHL1    C1 8518   1.624   3.454   7.292 -0.5821 -0.1467  0.5877
   82CHL1   H1A 8519   1.632   3.344   7.304 -0.9421 -0.5688 -2.2876
   82CHL1   H1B 8520   1.515   3.472   7.303 -0.7501  0.1051 -1.2216
   82CHL1    C2 8521   1.655   3.495   7.144 -0.1535  0.7229  0.4344
   82CHL1   H2A 8522   1.603   3.428   7.073 -0.3216  0.4133  0.8449
   82CHL1   H2B 8523   1.762   3.473   7.127 -0.3045  0.0605  0.3341
   82CHL1   C20 8524   1.499   3.346   8.063  0.2523  0.2740  1.5168
   82CHL1   H20 8525   1.554   3.267   8.007 -1.1410  1.5617 -1.9373
   82CHL1   C21 8526   1.362   3.298   8.114 -0.2279  0.3003 -0.4221
   82CHL1  H21A 8527   1.326   3.371   8.190  0.8720  0.1801  0.2264
   82CHL1  H21B 8528   1.386   3.196   8.152  1.9815  0.4593 -1.2383
   82CHL1  H21C 8529   1.286   3.279   8.034  0.1552  0.2555 -0.7821
   82CHL1   C22 8530   1.576   3.400   8.190 -0.4204 -0.4820  0.1746
   82CHL1  H22A 8531   1.664   3.457   8.154  0.4365 -4.2561 -4.8402
   82CHL1  H22B 8532   1.510   3.462   8.255 -0.8568 -0.0140 -0.6995
   82CHL1   C23 8533   1.640   3.285   8.280  0.3736 -0.2959  1.0879
   82CHL1  H23A 8534   1.561   3.207   8.284 -0.3153  0.0838 -2.2426
   82CHL1  H23B 8535   1.726   3.248   8.220  0.3523 -1.5407  1.8005
   82CHL1   C24 8536   1.690   3.334   8.417  0.1611  0.2443  0.4178
   82CHL1  H24A 8537   1.786   3.388   8.411  1.0013 -1.0248  1.7492
   82CHL1  H24B 8538   1.619   3.402   8.469 -0.6059 -0.3054  0.1262
   82CHL1   C25 8539   1.738   3.210   8.518  0.5660 -0.3235 -0.5157
   82CHL1   H25 8540   1.651   3.141   8.521 -0.8035  1.3150 -0.9906
   82CHL1   C26 8541   1.871   3.152   8.469  0.2516 -0.1489 -0.3056
   82CHL1  H26A 8542   1.845   3.072   8.397 -2.6116 -0.3496  0.8505
   82CHL1  H26B 8543   1.933   3.226   8.414 -1.7138  1.4712 -0.4580
   82CHL1  H26C 8544   1.944   3.111   8.542  1.2586  1.6007 -0.2621
   82CHL1   C27 8545   1.752   3.260   8.663  1.0556 -0.3386  0.9312
   82CHL1  H27A 8546   1.657   3.308   8.695  1.3203  1.4081 -0.7453
   82CHL1  H27B 8547   1.766   3.171   8.728 -1.4776 -1.2739  0.3273
   82CHL1  H27C 8548   1.830   3.339   8.664 -1.3345  2.3112 -1.8965
   83CHL1    C3 8549   5.303   3.270   6.994 -0.1672  0.4599  0.4794
   83CHL1    H3 8550   5.257   3.172   7.021  0.9831 -0.0345  0.7226
   83CHL1    O3 8551   5.256   3.294   6.862 -0.3963 -0.1788  0.1107
   83CHL1   H3' 8552   5.265   3.209   6.818 -0.4295  0.5081 -1.2840
   83CHL1    C4 8553   5.254   3.388   7.082 -1.1449  0.1203 -0.6952
   83CHL1   H4A 8554   5.300   3.481   7.044 -1.4510  0.3750 -0.4555
   83CHL1   H4B 8555   5.144   3.406   7.076 -0.9203  1.2665 -1.6912
   83CHL1    C5 8556   5.308   3.360   7.226  0.3591  0.2100 -0.3893
   83CHL1    C6 8557   5.215   3.351   7.326  0.2171 -0.6324  0.4940
   83CHL1    H6 8558   5.109   3.377   7.312  0.3248  0.7542  1.9647
   83CHL1    C7 8559   5.255   3.331   7.466  0.4985  0.2680 -0.2194
   83CHL1   H7A 8560   5.177   3.382   7.527  0.7427  1.9116 -1.2202
   83CHL1   H7B 8561   5.257   3.221   7.472  3.3360  0.1726 -1.1258
   83CHL1    C8 8562   5.404   3.362   7.493  0.2188 -0.0416 -0.1084
   83CHL1    H8 8563   5.415   3.473   7.491  1.4515 -0.1497 -1.4399
   83CHL1   C14 8564   5.440   3.300   7.618  0.1093 -0.1283 -0.7067
   83CHL1   H14 8565   5.446   3.190   7.604 -0.9824 -0.1231 -1.3139
   83CHL1   C15 8566   5.348   3.335   7.740 -0.8297 -0.3856 -0.4848
   83CHL1  H15A 8567   5.294   3.430   7.721 -0.7810 -0.6782 -2.1973
   83CHL1  H15B 8568   5.279   3.249   7.749  0.1453 -1.0166  1.6651
   83CHL1   C16 8569   5.450   3.332   7.860  0.0759  0.1513  0.2371
   83CHL1  H16A 8570   5.456   3.435   7.901 -0.2965 -0.2077  1.2250
   83CHL1  H16B 8571   5.402   3.274   7.942 -1.0796  1.4854  0.5561
   83CHL1   C17 8572   5.584   3.280   7.811  0.4446  0.3288 -0.0813
   83CHL1   H17 8573   5.579   3.170   7.801  0.3650  0.4288 -1.3389
   83CHL1   C13 8574   5.582   3.329   7.664 -0.0562  0.0333 -0.9337
   83CHL1   C18 8575   5.614   3.481   7.650 -0.8400  0.0720 -0.0763
   83CHL1  H18A 8576   5.550   3.539   7.722 -0.3670  0.3225  0.1460
   83CHL1  H18B 8577   5.718   3.496   7.684 -0.8981  0.5805 -0.1033
   83CHL1  H18C 8578   5.609   3.516   7.545 -3.0004  1.4032  0.3811
   83CHL1   C12 8579   5.672   3.256   7.564  0.2702 -0.0933 -0.7838
   83CHL1  H12A 8580   5.774   3.277   7.602  0.6884  0.4685 -2.1485
   83CHL1  H12B 8581   5.659   3.146   7.572 -0.1355 -0.0909 -1.3869
   83CHL1   C11 8582   5.645   3.293   7.418  0.2980  0.1223 -1.1456
   83CHL1  H11A 8583   5.704   3.385   7.399  0.1299  0.5704  0.3518
   83CHL1  H11B 8584   5.697   3.217   7.356  0.2359  0.2375 -1.3406
   83CHL1    C9 8585   5.496   3.300   7.383  0.5143 -0.5691 -0.3380
   83CHL1    H9 8586   5.462   3.194   7.385  0.1769 -0.4695 -0.6986
   83CHL1   C10 8587   5.465   3.341   7.239 -0.5121 -0.5839  0.4914
   83CHL1   C19 8588   5.539   3.476   7.220 -0.0892  0.3390 -0.0085
   83CHL1  H19A 8589   5.517   3.530   7.125  1.1053  2.7311  0.9774
   83CHL1  H19B 8590   5.516   3.559   7.291 -1.2061  0.2161 -0.2081
   83CHL1  H19C 8591   5.650   3.470   7.228  0.2539  3.3185 -1.0396
   83CHL1    C1 8592   5.512   3.236   7.134 -0.1124 -0.4278 -0.5579
   83CHL1   H1A 8593   5.623   3.229   7.140 -0.0955  0.0558 -0.1836
   83CHL1   H1B 8594   5.471   3.138   7.165  0.5852 -0.4786  0.2490
   83CHL1    C2 8595   5.457   3.257   6.990 -0.1378 -0.3647  0.5606
   83CHL1   H2A 8596   5.481   3.167   6.928 -0.4369  1.3420 -2.1661
   83CHL1   H2B 8597   5.503   3.353   6.959  1.5768 -2.0714 -2.7623
   83CHL1   C20 8598   5.707   3.301   7.903  1.3836 -0.1143  0.0702
   83CHL1   H20 8599   5.727   3.410   7.895  0.0141  0.2347  1.0500
   83CHL1   C21 8600   5.828   3.218   7.858  0.4144  0.2953 -0.4021
   83CHL1  H21A 8601   5.907   3.223   7.936  0.2983  0.7781 -0.3106
   83CHL1  H21B 8602   5.875   3.272   7.773  0.3641 -1.6280 -1.7069
   83CHL1  H21C 8603   5.793   3.114   7.842 -1.7405  0.7256  1.0118
   83CHL1   C22 8604   5.675   3.270   8.050  0.7151  0.2445  0.2532
   83CHL1  H22A 8605   5.772   3.291   8.100  1.8206  1.8309 -2.3776
   83CHL1  H22B 8606   5.602   3.350   8.073  1.4158  1.4063 -1.3887
   83CHL1   C23 8607   5.615   3.133   8.094 -0.4492  0.7699  0.6065
   83CHL1  H23A 8608   5.510   3.114   8.062 -0.2724 -0.1406  0.5428
   83CHL1  H23B 8609   5.678   3.047   8.062 -1.0332  0.7648 -0.5716
   83CHL1   C24 8610   5.614   3.116   8.249  0.3500  0.6430 -0.4280
   83CHL1  H24A 8611   5.720   3.114   8.280  0.3507  0.7358 -0.4255
   83CHL1  H24B 8612   5.568   3.206   8.294 -1.4245 -0.1324 -0.5993
   83CHL1   C25 8613   5.543   2.990   8.294  0.5095  0.7034  0.3313
   83CHL1   H25 8614   5.432   2.998   8.286  0.3226 -1.4169  0.2123
   83CHL1   C26 8615   5.568   2.865   8.212 -0.2941  0.6218 -0.7167
   83CHL1  H26A 8616   5.491   2.797   8.253 -0.0787  0.5631 -0.4133
   83CHL1  H26B 8617   5.541   2.875   8.104  0.7692  1.5407 -0.9170
   83CHL1  H26C 8618   5.670   2.825   8.230 -0.7602  0.1201  0.9010
   83CHL1   C27 8619   5.575   2.963   8.442 -0.5936 -0.4180  0.3853
   83CHL1  H27A 8620   5.511   2.880   8.481 -1.1486 -0.7061 -1.0915
   83CHL1  H27B 8621   5.684   2.948   8.450 -0.4672 -1.6028 -2.3585
   83CHL1  H27C 8622   5.537   3.053   8.495  2.0110  0.8412  0.2215
   84CHL1    C3 8623   0.333   6.771   7.060  0.3793 -0.5543 -0.0494
   84CHL1    H3 8624   0.223   6.767   7.069  0.3253  1.1301  0.5407
   84CHL1    O3 8625   0.361   6.752   6.926  0.1969  0.1238  0.7290
   84CHL1   H3' 8626   0.416   6.673   6.926 -2.4243 -1.8612  0.5004
   84CHL1    C4 8627   0.371   6.917   7.103 -0.5097  0.4457 -0.1057
   84CHL1   H4A 8628   0.479   6.932   7.085 -0.3550 -1.2150 -0.7035
   84CHL1   H4B 8629   0.317   6.992   7.040 -1.1249 -0.6124 -0.8635
   84CHL1    C5 8630   0.346   6.934   7.248  0.2327  0.7846  0.6025
   84CHL1    C6 8631   0.267   7.034   7.298  0.5035  0.5530  0.2111
   84CHL1    H6 8632   0.220   7.111   7.234  1.3039  1.4367  0.6532
   84CHL1    C7 8633   0.240   7.055   7.446 -0.9820  0.3418 -0.2190
   84CHL1   H7A 8634   0.252   7.162   7.474 -3.2264  0.7515 -0.5978
   84CHL1   H7B 8635   0.136   7.033   7.481 -1.7951  2.7138 -0.9560
   84CHL1    C8 8636   0.332   6.974   7.542 -1.3393 -0.2161 -0.1866
   84CHL1    H8 8637   0.433   7.019   7.535 -1.9390  1.7848  2.3073
   84CHL1   C14 8638   0.285   6.975   7.686 -0.2437 -0.2857 -0.3139
   84CHL1   H14 8639   0.184   6.928   7.680  0.1527 -1.4214  1.4580
   84CHL1   C15 8640   0.265   7.116   7.749 -0.0137 -0.4633 -0.5477
   84CHL1  H15A 8641   0.352   7.180   7.721 -0.4028 -0.3162 -1.4680
   84CHL1  H15B 8642   0.177   7.170   7.709 -1.0994 -1.6557  0.1719
   84CHL1   C16 8643   0.270   7.082   7.899 -0.3798  0.3767  0.4382
   84CHL1  H16A 8644   0.336   7.154   7.952 -0.2872  0.3794  0.3196
   84CHL1  H16B 8645   0.167   7.088   7.942 -0.2078  0.0168  0.9093
   84CHL1   C17 8646   0.305   6.926   7.911 -0.4323 -0.4265  0.4993
   84CHL1   H17 8647   0.202   6.885   7.900  0.0184 -1.6029  0.5695
   84CHL1   C13 8648   0.373   6.895   7.774  0.0872  0.0180  0.2132
   84CHL1   C18 8649   0.519   6.949   7.778 -0.5306  0.3502  0.6242
   84CHL1  H18A 8650   0.552   6.955   7.672 -2.0011  0.7240  0.1551
   84CHL1  H18B 8651   0.518   7.054   7.815  0.1038  1.0895 -1.2959
   84CHL1  H18C 8652   0.594   6.888   7.831  0.5302  1.2433  0.1999
   84CHL1   C12 8653   0.355   6.752   7.720 -0.5278  0.4209  0.8526
   84CHL1  H12A 8654   0.396   6.687   7.800  0.9567 -0.4627 -0.5545
   84CHL1  H12B 8655   0.246   6.734   7.723 -0.2979 -1.6067 -0.8696
   84CHL1   C11 8656   0.414   6.736   7.580  0.1654  0.0298 -0.0736
   84CHL1  H11A 8657   0.522   6.759   7.587  0.1182  0.0492  0.6568
   84CHL1  H11B 8658   0.395   6.631   7.549 -0.3807 -0.0216  0.4284
   84CHL1    C9 8659   0.347   6.831   7.486 -0.2515  1.1073  0.1654
   84CHL1    H9 8660   0.242   6.795   7.489  0.4804 -1.1022  1.3259
   84CHL1   C10 8661   0.400   6.825   7.335 -0.1905  0.4892 -0.0458
   84CHL1   C19 8662   0.551   6.845   7.344 -0.0759 -0.0067 -0.2441
   84CHL1  H19A 8663   0.597   6.826   7.244 -2.1383  0.6553 -1.3788
   84CHL1  H19B 8664   0.583   6.943   7.385 -1.7675  0.1572  0.7526
   84CHL1  H19C 8665   0.595   6.762   7.404  0.0869 -0.1756 -0.5894
   84CHL1    C1 8666   0.379   6.669   7.288 -0.9232 -0.3111 -0.5885
   84CHL1   H1A 8667   0.462   6.605   7.327 -1.4582 -1.0587 -0.6463
   84CHL1   H1B 8668   0.274   6.639   7.307 -0.8249 -0.3206 -0.0574
   84CHL1    C2 8669   0.405   6.665   7.136 -0.2642  0.0336 -0.6935
   84CHL1   H2A 8670   0.380   6.567   7.088 -1.0614 -0.4853  0.7304
   84CHL1   H2B 8671   0.511   6.691   7.116 -0.3612  1.2411  0.2542
   84CHL1   C20 8672   0.368   6.876   8.039  0.2048 -0.2589  0.3240
   84CHL1   H20 8673   0.435   6.793   8.010 -0.3739 -0.6417  0.0799
   84CHL1   C21 8674   0.255   6.817   8.122 -0.8061 -0.1079  0.2507
   84CHL1  H21A 8675   0.213   6.727   8.072 -1.5735 -0.1935  1.0344
   84CHL1  H21B 8676   0.178   6.897   8.124  1.9299  2.7129  3.1776
   84CHL1  H21C 8677   0.275   6.776   8.223  1.7944  1.8908  0.6500
   84CHL1   C22 8678   0.446   6.986   8.122  0.1197 -0.0753 -0.1151
   84CHL1  H22A 8679   0.498   7.050   8.047 -1.8551  0.1836 -1.3294
   84CHL1  H22B 8680   0.375   7.058   8.167 -0.5065 -0.6214 -0.2142
   84CHL1   C23 8681   0.543   6.917   8.226  0.3045 -0.2794  0.7570
   84CHL1  H23A 8682   0.589   6.986   8.300  0.8168  0.3529 -0.1218
   84CHL1  H23B 8683   0.485   6.835   8.273 -1.2413 -0.5968 -1.5180
   84CHL1   C24 8684   0.666   6.861   8.154  0.3387 -0.3806  0.2451
   84CHL1  H24A 8685   0.725   6.814   8.236  0.3430  1.2204  1.2201
   84CHL1  H24B 8686   0.646   6.781   8.081  0.1081 -0.4746  0.4127
   84CHL1   C25 8687   0.766   6.958   8.074 -0.0549  0.2148  1.1376
   84CHL1   H25 8688   0.712   7.006   7.990  0.4845 -0.0377  0.6451
   84CHL1   C26 8689   0.814   7.073   8.166  0.0699 -0.1031 -0.1786
   84CHL1  H26A 8690   0.863   7.029   8.255 -1.9254 -2.7553 -0.2864
   84CHL1  H26B 8691   0.886   7.137   8.111  0.0514  0.8438  0.8601
   84CHL1  H26C 8692   0.735   7.143   8.200 -0.8614 -1.6262  0.9011
   84CHL1   C27 8693   0.888   6.876   8.016 -0.3448 -0.6091 -1.1895
   84CHL1  H27A 8694   0.957   6.945   7.964 -0.1832 -2.0900 -3.0816
   84CHL1  H27B 8695   0.939   6.811   8.090 -1.6320 -1.8122 -1.2981
   84CHL1  H27C 8696   0.854   6.808   7.934  0.5051 -2.0670 -0.3738
   85CHL1    C3 8697   6.290   4.008   6.914  1.0791  0.8975 -0.1559
   85CHL1    H3 8698   6.293   4.119   6.917  1.8189  0.8684  0.6009
   85CHL1    O3 8699   6.273   3.975   6.777 -0.2813  0.7408 -0.4289
   85CHL1   H3' 8700   6.298   3.883   6.773 -0.1082  0.7745 -0.1525
   85CHL1    C4 8701   6.421   3.946   6.970  0.5746  0.2982 -0.4501
   85CHL1   H4A 8702   6.426   3.837   6.948 -0.6792  0.4060 -1.3779
   85CHL1   H4B 8703   6.513   3.988   6.922  0.5256  1.6860  0.6089
   85CHL1    C5 8704   6.425   3.969   7.117  0.3228  0.2629 -0.3248
   85CHL1    C6 8705   6.531   4.026   7.180 -0.0784  0.9825 -0.2455
   85CHL1    H6 8706   6.618   4.057   7.120  0.1323  1.2690  0.2065
   85CHL1    C7 8707   6.549   4.031   7.334  0.1952  0.1229 -0.1969
   85CHL1   H7A 8708   6.651   3.992   7.357  0.3635  0.7671  0.1835
   85CHL1   H7B 8709   6.548   4.133   7.379 -0.1969  0.3465 -0.6962
   85CHL1    C8 8710   6.453   3.931   7.408 -1.0518 -0.1501 -0.3408
   85CHL1    H8 8711   6.508   3.835   7.397  0.5957  0.7820 -0.5813
   85CHL1   C14 8712   6.455   3.975   7.563 -0.0978  0.1546  0.3275
   85CHL1   H14 8713   6.434   4.083   7.546 -0.1000 -0.2655 -3.0697
   85CHL1   C15 8714   6.582   3.979   7.646 -0.5618  1.1705  0.5734
   85CHL1  H15A 8715   6.640   3.885   7.651 -0.6995  1.1300  1.7001
   85CHL1  H15B 8716   6.647   4.063   7.613 -0.0284  1.1954  1.6405
   85CHL1   C16 8717   6.534   4.011   7.787  0.7251 -0.1439  0.1235
   85CHL1  H16A 8718   6.578   3.931   7.851  0.1056 -0.8396 -0.3054
   85CHL1  H16B 8719   6.569   4.112   7.815  5.6254 -1.2988 -0.9221
   85CHL1   C17 8720   6.379   4.000   7.788  0.0135  0.2448  0.1600
   85CHL1   H17 8721   6.352   4.108   7.789 -0.2519  0.1901 -0.6170
   85CHL1   C13 8722   6.340   3.922   7.656 -0.2598 -0.1002 -0.1825
   85CHL1   C18 8723   6.365   3.774   7.682  0.1053  0.3763  0.7071
   85CHL1  H18A 8724   6.409   3.723   7.594  1.9235 -0.9481  2.2788
   85CHL1  H18B 8725   6.443   3.742   7.755  0.9238  0.4119 -0.1310
   85CHL1  H18C 8726   6.275   3.721   7.719 -0.7986  1.1371 -0.3423
   85CHL1   C12 8727   6.206   3.954   7.582 -0.1555 -0.2015  0.6151
   85CHL1  H12A 8728   6.108   3.933   7.629 -0.1110 -1.7666  0.0425
   85CHL1  H12B 8729   6.208   4.063   7.560 -1.3238 -0.0979  0.9612
   85CHL1   C11 8730   6.204   3.888   7.443  0.1025  0.1314  0.6564
   85CHL1  H11A 8731   6.218   3.778   7.446 -0.5891 -0.0317 -0.9288
   85CHL1  H11B 8732   6.102   3.911   7.408  0.2780 -2.2992 -1.8078
   85CHL1    C9 8733   6.310   3.943   7.348 -0.7450 -0.0481 -0.0365
   85CHL1    H9 8734   6.295   4.053   7.349 -1.7880 -0.1826  1.0403
   85CHL1   C10 8735   6.306   3.907   7.199 -0.5076 -0.0276 -0.4185
   85CHL1   C19 8736   6.302   3.754   7.188  0.3275  0.1076  0.2395
   85CHL1  H19A 8737   6.213   3.717   7.244 -0.6240  0.5802 -0.9134
   85CHL1  H19B 8738   6.314   3.713   7.086  0.8775  1.6990 -0.3644
   85CHL1  H19C 8739   6.391   3.718   7.243  1.4921 -0.7372 -2.1164
   85CHL1    C1 8740   6.182   3.972   7.139  0.7036  0.8002  1.5837
   85CHL1   H1A 8741   6.088   3.947   7.192 -0.1987  0.0311 -0.2960
   85CHL1   H1B 8742   6.183   4.082   7.151  0.8426  1.2055 -1.3408
   85CHL1    C2 8743   6.174   3.939   6.988 -0.4149  0.2122 -0.6113
   85CHL1   H2A 8744   6.081   3.984   6.948 -0.2424  1.0243 -0.1173
   85CHL1   H2B 8745   6.156   3.831   6.973 -1.7162  0.5841 -1.9348
   85CHL1   C20 8746   6.318   3.943   7.920  0.3906  0.1283 -0.1192
   85CHL1   H20 8747   6.359   3.840   7.927  2.2230  0.4543 -3.6866
   85CHL1   C21 8748   6.164   3.938   7.906 -0.9302 -0.2357  0.0918
   85CHL1  H21A 8749   6.115   3.911   8.002 -0.9699  2.0804  0.7795
   85CHL1  H21B 8750   6.136   3.873   7.820  1.6278 -0.0862 -0.9703
   85CHL1  H21C 8751   6.138   4.042   7.877  0.9153  0.5238  0.9272
   85CHL1   C22 8752   6.357   4.018   8.049  0.3868  0.4251 -0.8525
   85CHL1  H22A 8753   6.460   3.982   8.068  0.9023  1.8292 -0.9014
   85CHL1  H22B 8754   6.376   4.127   8.042  3.4539  0.1438  1.3894
   85CHL1   C23 8755   6.264   3.994   8.175 -0.8233  0.2434  0.1784
   85CHL1  H23A 8756   6.167   4.043   8.152  0.6505  2.3276 -2.0072
   85CHL1  H23B 8757   6.270   3.883   8.183 -0.4646  0.2816  0.4880
   85CHL1   C24 8758   6.333   4.057   8.295  0.2046 -0.2948 -0.0402
   85CHL1  H24A 8759   6.428   4.001   8.302  0.5023  0.0713 -0.9404
   85CHL1  H24B 8760   6.347   4.159   8.253  0.2112 -0.7665 -1.2488
   85CHL1   C25 8761   6.256   4.072   8.430 -0.1726 -0.0972 -0.1182
   85CHL1   H25 8762   6.161   4.128   8.419 -1.1738 -1.8528 -0.7062
   85CHL1   C26 8763   6.231   3.940   8.498 -0.0702  0.7154 -0.5325
   85CHL1  H26A 8764   6.308   3.925   8.577 -0.5893 -0.6819 -0.2782
   85CHL1  H26B 8765   6.138   3.945   8.557  1.6400  0.3228  2.3653
   85CHL1  H26C 8766   6.220   3.848   8.436 -3.2109 -0.1118  1.0838
   85CHL1   C27 8767   6.342   4.163   8.526 -0.6468  0.3664  0.7559
   85CHL1  H27A 8768   6.299   4.170   8.628 -1.0129  1.7052  0.5294
   85CHL1  H27B 8769   6.438   4.106   8.526 -1.6933 -1.4583  1.4035
   85CHL1  H27C 8770   6.363   4.268   8.495  1.9074  0.2617  1.8231
   86CHL1    C3 8771   1.976   0.869   7.019  0.1792  0.8242 -1.1256
   86CHL1    H3 8772   2.086   0.862   7.014  0.2116  1.4826 -1.4322
   86CHL1    O3 8773   1.939   0.895   6.884 -0.4856 -0.4860 -0.3175
   86CHL1   H3' 8774   1.858   0.945   6.894  1.1774  2.1485  0.9282
   86CHL1    C4 8775   1.926   0.738   7.088  0.2467  0.0774  0.0172
   86CHL1   H4A 8776   1.817   0.731   7.104  0.6361  0.3112  3.4096
   86CHL1   H4B 8777   1.959   0.653   7.024  0.8746  0.1842  0.1930
   86CHL1    C5 8778   1.980   0.730   7.232 -0.3251 -0.8632 -0.1291
   86CHL1    C6 8779   2.052   0.629   7.283 -1.5321  0.4110  0.1629
   86CHL1    H6 8780   2.086   0.544   7.222 -0.7691  0.1522  0.9241
   86CHL1    C7 8781   2.098   0.614   7.422  0.5132  0.1802 -0.1728
   86CHL1   H7A 8782   2.084   0.508   7.450 -0.4792  0.3915  0.2002
   86CHL1   H7B 8783   2.203   0.648   7.429  0.5449  0.4267 -1.4973
   86CHL1    C8 8784   2.028   0.714   7.519 -0.2738  0.1483  0.6450
   86CHL1    H8 8785   1.921   0.684   7.527 -0.3543  0.1538 -0.3481
   86CHL1   C14 8786   2.106   0.720   7.654 -0.1353 -0.6004 -0.5351
   86CHL1   H14 8787   2.210   0.756   7.636  0.5584 -2.6344 -0.9342
   86CHL1   C15 8788   2.123   0.584   7.724 -0.1168 -0.3942 -0.3883
   86CHL1  H15A 8789   2.022   0.542   7.742 -2.3724  3.7792 -1.8472
   86CHL1  H15B 8790   2.195   0.512   7.681 -0.0297 -1.3365  1.2573
   86CHL1   C16 8791   2.159   0.625   7.871  0.4095 -0.1373 -0.2303
   86CHL1  H16A 8792   2.091   0.578   7.945  0.8659  0.3105  0.4890
   86CHL1  H16B 8793   2.266   0.605   7.890  0.4400  0.2229 -0.0039
   86CHL1   C17 8794   2.151   0.787   7.870  0.1421  0.3626 -0.1081
   86CHL1   H17 8795   2.243   0.824   7.820  1.4769 -3.4760 -0.8495
   86CHL1   C13 8796   2.052   0.821   7.756  0.8011 -0.4065  0.1124
   86CHL1   C18 8797   1.910   0.778   7.796  0.4471 -0.0932  0.4421
   86CHL1  H18A 8798   1.851   0.761   7.704 -1.0690 -1.1500  1.5399
   86CHL1  H18B 8799   1.920   0.680   7.849  2.2596 -0.1622  0.0205
   86CHL1  H18C 8800   1.863   0.850   7.866  0.2050 -0.8043  1.0337
   86CHL1   C12 8801   2.062   0.961   7.687  0.8949 -0.2564  0.0846
   86CHL1  H12A 8802   2.020   1.038   7.754 -0.0668  1.9249 -2.8177
   86CHL1  H12B 8803   2.170   0.981   7.671  1.0533 -0.1343  1.2544
   86CHL1   C11 8804   1.982   0.960   7.557 -0.0271  0.1396  0.8752
   86CHL1  H11A 8805   1.875   0.950   7.585 -0.3867 -1.5819 -0.8530
   86CHL1  H11B 8806   2.000   1.052   7.498 -1.3741 -0.3036 -0.2992
   86CHL1    C9 8807   2.027   0.852   7.449  0.1947  0.0338 -0.2337
   86CHL1    H9 8808   2.135   0.871   7.433 -0.1899  2.3358 -0.5021
   86CHL1   C10 8809   1.951   0.855   7.318  0.0593 -0.0012  0.6508
   86CHL1   C19 8810   1.799   0.863   7.345 -0.2340 -0.8882 -0.2175
   86CHL1  H19A 8811   1.764   0.788   7.419  2.0849 -0.5257  1.3560
   86CHL1  H19B 8812   1.776   0.961   7.393  2.3369 -0.5733  0.5187
   86CHL1  H19C 8813   1.731   0.861   7.257 -1.2736  2.5084  0.3676
   86CHL1    C1 8814   2.008   0.976   7.239  0.4552 -0.0503 -0.0218
   86CHL1   H1A 8815   2.006   1.075   7.291  0.5560 -1.7342  3.4926
   86CHL1   H1B 8816   2.118   0.968   7.226  0.4034 -2.8313  0.6974
   86CHL1    C2 8817   1.946   0.988   7.103 -0.0728  0.3283  0.4760
   86CHL1   H2A 8818   1.989   1.075   7.048 -0.9128 -0.2988 -1.2159
   86CHL1   H2B 8819   1.836   0.997   7.117 -0.2773 -3.0975  2.0639
   86CHL1   C20 8820   2.134   0.851   8.012  0.0979 -0.0040 -0.1254
   86CHL1   H20 8821   2.110   0.959   8.015  2.3534  0.5380  1.6065
   86CHL1   C21 8822   2.275   0.850   8.076 -0.3208 -0.0885  0.2731
   86CHL1  H21A 8823   2.335   0.916   8.011  0.2669 -1.6600 -0.8473
   86CHL1  H21B 8824   2.328   0.753   8.065  1.6674  1.0125 -0.1254
   86CHL1  H21C 8825   2.279   0.881   8.183  0.0128 -1.3792  0.6593
   86CHL1   C22 8826   2.040   0.772   8.111  1.0498 -0.0221  0.3386
   86CHL1  H22A 8827   1.951   0.732   8.057  1.0255  1.4576 -0.7775
   86CHL1  H22B 8828   2.096   0.686   8.151 -0.8832 -0.2500  2.7996
   86CHL1   C23 8829   1.996   0.859   8.233  0.3995 -0.1982  0.2315
   86CHL1  H23A 8830   2.075   0.930   8.267  1.3122 -1.0348 -0.0784
   86CHL1  H23B 8831   1.911   0.920   8.196 -0.1769 -0.5667  0.9228
   86CHL1   C24 8832   1.946   0.774   8.349 -0.9300  0.3749  0.3634
   86CHL1  H24A 8833   2.029   0.707   8.379  1.0370  2.1058 -0.9493
   86CHL1  H24B 8834   1.935   0.843   8.436  2.0264  0.0786  1.0768
   86CHL1   C25 8835   1.819   0.696   8.323 -0.2478 -0.4164 -0.0266
   86CHL1   H25 8836   1.818   0.647   8.224  1.6997 -0.0393 -0.2818
   86CHL1   C26 8837   1.792   0.590   8.437 -0.8310  0.0808  0.5547
   86CHL1  H26A 8838   1.793   0.639   8.537  0.5197  1.0931  0.0711
   86CHL1  H26B 8839   1.690   0.548   8.428  0.2615 -2.3035 -2.2912
   86CHL1  H26C 8840   1.870   0.511   8.428 -1.5793 -0.4916 -1.2715
   86CHL1   C27 8841   1.698   0.791   8.330 -0.0926  0.1050  0.2319
   86CHL1  H27A 8842   1.710   0.858   8.418 -0.4240 -1.8463  1.8451
   86CHL1  H27B 8843   1.694   0.851   8.237  1.6600  1.5654  1.0516
   86CHL1  H27C 8844   1.605   0.730   8.339 -0.0291  0.1312  1.1993
   87CHL1    C3 8845   2.049   6.814   7.039 -0.1890 -0.6768 -0.2739
   87CHL1    H3 8846   1.948   6.859   7.052  0.0403 -0.2731  0.1241
   87CHL1    O3 8847   2.104   6.841   6.914  0.8666 -0.0808  0.0270
   87CHL1   H3' 8848   2.163   6.915   6.929  0.0733  0.3316  1.2419
   87CHL1    C4 8849   2.143   6.869   7.143  0.0817  0.1498 -0.6937
   87CHL1   H4A 8850   2.251   6.846   7.130  0.1717 -1.1160  1.7089
   87CHL1   H4B 8851   2.142   6.980   7.139 -1.4827  0.1663 -0.3285
   87CHL1    C5 8852   2.104   6.830   7.282  0.2507 -0.6438  0.2607
   87CHL1    C6 8853   2.080   6.917   7.382  0.2546 -0.1829 -0.6156
   87CHL1    H6 8854   2.074   7.024   7.355 -1.9024  0.0611  0.5988
   87CHL1    C7 8855   2.044   6.873   7.530  0.2053 -0.2065  0.2052
   87CHL1   H7A 8856   2.089   6.935   7.611 -0.5317 -1.0161  1.2774
   87CHL1   H7B 8857   1.934   6.880   7.544  0.2334 -1.3499  1.2020
   87CHL1    C8 8858   2.080   6.732   7.558  0.0019  0.5271 -0.1061
   87CHL1    H8 8859   2.191   6.732   7.567 -0.1362 -0.4437  2.2137
   87CHL1   C14 8860   2.028   6.673   7.695  0.0750  0.1764 -0.0003
   87CHL1   H14 8861   1.919   6.663   7.675  0.3032 -0.8793 -0.8045
   87CHL1   C15 8862   2.021   6.755   7.822 -0.1717 -0.1695  0.2022
   87CHL1  H15A 8863   2.121   6.799   7.847  0.3960 -2.3948  2.2149
   87CHL1  H15B 8864   1.940   6.831   7.816 -0.3002 -0.4415 -2.3864
   87CHL1   C16 8865   1.988   6.657   7.927  0.1782 -0.0207 -0.8080
   87CHL1  H16A 8866   2.059   6.666   8.012 -0.5364 -0.1182 -0.2013
   87CHL1  H16B 8867   1.890   6.677   7.973  1.0899 -1.6094  2.0518
   87CHL1   C17 8868   1.991   6.518   7.876  0.2632  0.3661 -0.2550
   87CHL1   H17 8869   1.886   6.488   7.851  0.6794  0.0554 -1.7171
   87CHL1   C13 8870   2.067   6.534   7.736 -0.1690  0.3823  0.2318
   87CHL1   C18 8871   2.218   6.520   7.752 -0.5681 -0.1586  0.6032
   87CHL1  H18A 8872   2.256   6.416   7.763  0.2644  0.2486  1.7489
   87CHL1  H18B 8873   2.271   6.572   7.670 -0.7294  0.2753  0.7736
   87CHL1  H18C 8874   2.246   6.576   7.844 -2.6426  0.5567  0.8624
   87CHL1   C12 8875   2.023   6.435   7.619 -0.0319  0.1819 -0.7608
   87CHL1  H12A 8876   2.064   6.338   7.653  0.7261  0.8925  0.4110
   87CHL1  H12B 8877   1.913   6.426   7.632 -0.2827  4.3706  1.7503
   87CHL1   C11 8878   2.067   6.481   7.483  0.3224  0.7977 -0.0051
   87CHL1  H11A 8879   2.173   6.452   7.466 -0.1383 -0.4858 -0.7882
   87CHL1  H11B 8880   2.015   6.416   7.409  1.6538 -1.9044  1.3146
   87CHL1    C9 8881   2.046   6.633   7.445 -0.7131 -0.2024  0.0038
   87CHL1    H9 8882   1.935   6.632   7.441 -0.6822 -1.8261 -1.7287
   87CHL1   C10 8883   2.095   6.675   7.306 -0.4840  0.0973  0.3038
   87CHL1   C19 8884   2.246   6.633   7.293  0.3386 -0.6415 -0.1486
   87CHL1  H19A 8885   2.264   6.524   7.288  0.4625 -0.5601 -1.9433
   87CHL1  H19B 8886   2.285   6.663   7.194 -1.5322 -1.3450 -1.1485
   87CHL1  H19C 8887   2.313   6.683   7.367 -0.3843  1.5854 -0.9074
   87CHL1    C1 8888   2.010   6.613   7.198 -0.1037  0.4495 -0.4871
   87CHL1   H1A 8889   2.022   6.503   7.195  1.9150  0.6298  0.0142
   87CHL1   H1B 8890   1.904   6.646   7.207  0.2349  1.4151  0.0957
   87CHL1    C2 8891   2.044   6.662   7.052 -0.5031 -0.4901  0.8368
   87CHL1   H2A 8892   1.971   6.618   6.981 -2.1267  0.4367  1.8755
   87CHL1   H2B 8893   2.144   6.621   7.027 -0.1996  1.2072 -0.9067
   87CHL1   C20 8894   2.062   6.432   7.978  0.5199 -0.2847  0.3533
   87CHL1   H20 8895   2.169   6.463   7.982  0.9803 -1.7073 -0.2855
   87CHL1   C21 8896   2.062   6.283   7.932  0.2806  0.4066 -0.0681
   87CHL1  H21A 8897   2.125   6.262   7.843 -1.0702 -1.4425 -0.6527
   87CHL1  H21B 8898   1.962   6.242   7.907  1.7029 -2.3017 -1.7227
   87CHL1  H21C 8899   2.102   6.215   8.010  1.4203  0.1869 -0.8234
   87CHL1   C22 8900   1.990   6.431   8.119 -0.3168  0.7200  0.1568
   87CHL1  H22A 8901   2.046   6.358   8.180  0.3749  0.2065 -1.0610
   87CHL1  H22B 8902   2.006   6.523   8.179  0.4560  1.4963 -1.1866
   87CHL1   C23 8903   1.840   6.404   8.123  0.4212 -0.7463 -0.6993
   87CHL1  H23A 8904   1.782   6.493   8.091  1.0280 -0.9328 -2.3826
   87CHL1  H23B 8905   1.800   6.336   8.045 -4.5071  1.9241 -0.8995
   87CHL1   C24 8906   1.796   6.352   8.259  0.1859 -0.0228 -0.0833
   87CHL1  H24A 8907   1.848   6.255   8.270  0.2002 -0.1138 -0.8918
   87CHL1  H24B 8908   1.842   6.412   8.340 -2.0140  0.0261  1.1966
   87CHL1   C25 8909   1.645   6.353   8.285 -0.6251 -0.2191  0.3018
   87CHL1   H25 8910   1.591   6.311   8.198  1.6986 -0.9367 -0.8623
   87CHL1   C26 8911   1.601   6.273   8.410 -0.0962  0.1685  0.2434
   87CHL1  H26A 8912   1.630   6.166   8.415 -0.1790  0.1426  0.1803
   87CHL1  H26B 8913   1.651   6.309   8.503  1.3428 -4.1964  1.4069
   87CHL1  H26C 8914   1.491   6.281   8.424 -0.2403  1.2153 -1.2391
   87CHL1   C27 8915   1.600   6.503   8.290 -0.1512 -0.4122 -0.1091
   87CHL1  H27A 8916   1.634   6.557   8.199  0.3217 -1.5486 -0.6331
   87CHL1  H27B 8917   1.490   6.512   8.295 -0.0883 -0.1049  0.7922
   87CHL1  H27C 8918   1.657   6.548   8.374 -0.9334 -1.1111  0.8122
   88CHL1    C3 8919   0.515   5.732   6.868  0.0328  0.2420  0.3185
   88CHL1    H3 8920   0.584   5.817   6.852  2.3681 -1.8003 -1.2483
   88CHL1    O3 8921   0.480   5.678   6.742  0.7184 -0.6887 -0.1332
   88CHL1   H3' 8922   0.482   5.583   6.757  2.0845 -0.8360 -1.0763
   88CHL1    C4 8923   0.586   5.629   6.954  0.4254 -0.4947  0.2335
   88CHL1   H4A 8924   0.527   5.536   6.965  0.3883 -0.6590 -1.1618
   88CHL1   H4B 8925   0.681   5.594   6.908  0.0207 -2.3183  0.7063
   88CHL1    C5 8926   0.611   5.681   7.094  0.0499 -0.4841  0.0143
   88CHL1    C6 8927   0.726   5.677   7.159 -0.1902 -0.6401 -1.2816
   88CHL1    H6 8928   0.814   5.639   7.105  2.3354  1.1025  1.3181
   88CHL1    C7 8929   0.750   5.710   7.301  0.3244 -0.1305 -0.5732
   88CHL1   H7A 8930   0.826   5.652   7.357 -1.0890 -1.6407 -0.1449
   88CHL1   H7B 8931   0.800   5.809   7.290  1.2949 -0.7636 -2.1418
   88CHL1    C8 8932   0.620   5.735   7.386 -0.6808 -0.1715  0.1835
   88CHL1    H8 8933   0.574   5.639   7.418 -2.2963  0.7451  0.7348
   88CHL1   C14 8934   0.652   5.821   7.510 -0.1845 -0.2635  0.0841
   88CHL1   H14 8935   0.694   5.914   7.465 -1.0925 -0.9100 -2.2359
   88CHL1   C15 8936   0.755   5.752   7.606  0.0486  0.9054 -0.2000
   88CHL1  H15A 8937   0.739   5.643   7.597  2.4228  0.3752  0.9474
   88CHL1  H15B 8938   0.858   5.779   7.574  0.4467 -0.4472 -0.0997
   88CHL1   C16 8939   0.714   5.812   7.742 -0.3026  0.0452 -0.1547
   88CHL1  H16A 8940   0.696   5.731   7.815  1.5864 -1.6987 -1.4968
   88CHL1  H16B 8941   0.793   5.875   7.789 -0.9691  0.1515  0.8543
   88CHL1   C17 8942   0.599   5.910   7.720 -0.4497  0.5999  0.2277
   88CHL1   H17 8943   0.659   6.002   7.705  0.0422  0.2583  0.0997
   88CHL1   C13 8944   0.536   5.863   7.595 -0.5910 -0.5413 -0.2462
   88CHL1   C18 8945   0.442   5.740   7.625  0.6106 -0.1606 -0.3505
   88CHL1  H18A 8946   0.363   5.779   7.692  2.3872 -0.7010  2.1982
   88CHL1  H18B 8947   0.400   5.690   7.535 -3.1265  0.0432  1.1175
   88CHL1  H18C 8948   0.511   5.666   7.671 -1.5871 -0.4141  2.8535
   88CHL1   C12 8949   0.457   5.954   7.501  0.1934 -0.6111 -0.0835
   88CHL1  H12A 8950   0.372   5.996   7.559 -0.0886 -1.7953  0.3708
   88CHL1  H12B 8951   0.525   6.038   7.475  1.0777 -1.4251 -0.4405
   88CHL1   C11 8952   0.415   5.893   7.364  0.2308  0.3832 -1.1784
   88CHL1  H11A 8953   0.330   5.829   7.397  2.0388 -0.9792  1.1719
   88CHL1  H11B 8954   0.374   5.970   7.296 -0.4228 -0.9897 -2.3802
   88CHL1    C9 8955   0.520   5.813   7.296  0.1892 -0.7202  0.8860
   88CHL1    H9 8956   0.586   5.894   7.259  0.4231 -0.1493  2.5029
   88CHL1   C10 8957   0.485   5.737   7.166  0.1260  0.3579  0.3167
   88CHL1   C19 8958   0.403   5.613   7.209 -0.4664  0.4615  0.0686
   88CHL1  H19A 8959   0.330   5.636   7.289  0.2724 -1.4570  1.3532
   88CHL1  H19B 8960   0.349   5.583   7.116  2.1288  3.2274 -2.5715
   88CHL1  H19C 8961   0.460   5.525   7.245 -1.8777  0.5203  2.6580
   88CHL1    C1 8962   0.409   5.838   7.076 -0.6179  0.8577 -0.1941
   88CHL1   H1A 8963   0.310   5.859   7.121 -0.6261 -1.7255  1.2136
   88CHL1   H1B 8964   0.468   5.932   7.074  0.2872  0.3080 -0.4716
   88CHL1    C2 8965   0.384   5.789   6.934  0.5457  0.3805  0.6689
   88CHL1   H2A 8966   0.345   5.872   6.872 -1.7573 -1.2554 -0.2446
   88CHL1   H2B 8967   0.312   5.705   6.926 -0.0577  0.9168  0.3770
   88CHL1   C20 8968   0.511   5.921   7.847  0.0010 -0.4972 -0.0760
   88CHL1   H20 8969   0.461   5.826   7.877  1.8948 -0.9517  1.9067
   88CHL1   C21 8970   0.404   6.032   7.839 -0.0611 -0.1134  0.3020
   88CHL1  H21A 8971   0.327   6.007   7.763 -0.2056  1.8462 -0.2474
   88CHL1  H21B 8972   0.453   6.131   7.824  1.6975 -1.2753 -2.4674
   88CHL1  H21C 8973   0.351   6.041   7.936 -0.4915  0.4356  0.0241
   88CHL1   C22 8974   0.584   5.949   7.984 -0.2734 -0.8597 -0.0683
   88CHL1  H22A 8975   0.676   5.888   7.973 -0.6353 -1.1097 -2.3598
   88CHL1  H22B 8976   0.603   6.058   7.997 -3.7290 -0.3907  2.6868
   88CHL1   C23 8977   0.516   5.889   8.101 -1.3002  0.2756 -0.3238
   88CHL1  H23A 8978   0.420   5.943   8.116 -0.8535  0.4990  1.9698
   88CHL1  H23B 8979   0.502   5.781   8.082  0.3365  0.1603 -1.1014
   88CHL1   C24 8980   0.596   5.921   8.229 -1.5249  0.2163 -0.8152
   88CHL1  H24A 8981   0.702   5.900   8.202 -1.7444 -1.1924 -0.6660
   88CHL1  H24B 8982   0.586   6.029   8.251 -0.1251 -0.0539  1.4403
   88CHL1   C25 8983   0.552   5.844   8.350 -0.5355 -0.0473  0.0928
   88CHL1   H25 8984   0.576   5.738   8.327  1.8474  0.4601  0.0053
   88CHL1   C26 8985   0.635   5.883   8.471  0.2638  0.0671 -0.3249
   88CHL1  H26A 8986   0.607   5.839   8.569 -3.5355  1.7862 -0.4508
   88CHL1  H26B 8987   0.745   5.875   8.458  0.2576 -0.8578  0.1421
   88CHL1  H26C 8988   0.621   5.992   8.485 -0.2962 -0.0309 -0.0854
   88CHL1   C27 8989   0.403   5.857   8.373  0.9200  0.7463 -0.3563
   88CHL1  H27A 8990   0.390   5.967   8.378  3.5343  1.1262 -0.3091
   88CHL1  H27B 8991   0.335   5.812   8.298  0.0991 -1.4995  1.6329
   88CHL1  H27C 8992   0.384   5.812   8.472 -0.8585 -0.7163 -1.3040
   89CHL1    C3 8993   2.524   0.451   7.168  0.0815 -0.6663 -0.1767
   89CHL1    H3 8994   2.603   0.521   7.204  1.0627 -1.6866 -0.2893
   89CHL1    O3 8995   2.492   0.442   7.031 -1.2656 -0.5314 -0.5361
   89CHL1   H3' 8996   2.582   0.444   6.998 -2.0301  0.8469 -2.7804
   89CHL1    C4 8997   2.589   0.313   7.205 -0.3323  0.2949 -0.1400
   89CHL1   H4A 8998   2.529   0.228   7.166  0.2638 -0.7720  1.1879
   89CHL1   H4B 8999   2.688   0.315   7.156 -0.2416  1.3172  0.0673
   89CHL1    C5 9000   2.621   0.287   7.353 -0.1991 -0.1280  0.1841
   89CHL1    C6 9001   2.748   0.255   7.398 -0.2558 -0.0241  0.2772
   89CHL1    H6 9002   2.826   0.237   7.323 -1.8046  2.6144 -2.1800
   89CHL1    C7 9003   2.780   0.229   7.542  0.9228  0.0389 -0.3569
   89CHL1   H7A 9004   2.832   0.132   7.553  0.0166 -0.2469  2.1964
   89CHL1   H7B 9005   2.849   0.305   7.585  1.6477 -0.9134  0.2032
   89CHL1    C8 9006   2.649   0.222   7.629 -1.3528  0.2639 -0.8386
   89CHL1    H8 9007   2.604   0.121   7.619 -1.0370 -0.0793  0.8406
   89CHL1   C14 9008   2.693   0.234   7.778  0.2246  0.1799 -0.3683
   89CHL1   H14 9009   2.727   0.339   7.785  1.3786 -0.0647 -1.8931
   89CHL1   C15 9010   2.808   0.147   7.827 -0.7389 -0.6267 -0.1558
   89CHL1  H15A 9011   2.786   0.045   7.791 -1.3087 -0.3188 -0.7128
   89CHL1  H15B 9012   2.903   0.196   7.797  0.2073 -2.5100 -0.3630
   89CHL1   C16 9013   2.798   0.151   7.980  0.2317 -0.0062 -0.7954
   89CHL1  H16A 9014   2.804   0.045   8.014  0.6285 -0.2440 -1.5937
   89CHL1  H16B 9015   2.890   0.204   8.014  1.2715 -1.7228 -0.7845
   89CHL1   C17 9016   2.671   0.236   8.004  0.2943 -0.2906 -0.3465
   89CHL1   H17 9017   2.695   0.344   8.009 -1.5165  0.0897  2.5214
   89CHL1   C13 9018   2.580   0.223   7.879 -0.0469 -0.0054  0.1573
   89CHL1   C18 9019   2.507   0.082   7.865 -0.9322 -0.1265 -0.9527
   89CHL1  H18A 9020   2.568   0.000   7.909 -1.0185  0.2053 -0.1916
   89CHL1  H18B 9021   2.416   0.087   7.930  1.2226  1.4154  2.2330
   89CHL1  H18C 9022   2.480   0.068   7.758  0.2226 -0.9676 -1.1513
   89CHL1   C12 9023   2.473   0.333   7.850  0.0141  0.3898 -0.0284
   89CHL1  H12A 9024   2.380   0.299   7.901 -1.9978  1.5340 -2.7039
   89CHL1  H12B 9025   2.502   0.438   7.871  1.5169  0.0177 -0.1386
   89CHL1   C11 9026   2.441   0.346   7.696  0.8733  0.2065 -0.1234
   89CHL1  H11A 9027   2.384   0.254   7.676  0.2506  0.8689 -1.5304
   89CHL1  H11B 9028   2.378   0.437   7.682 -1.3491 -1.2507 -0.0440
   89CHL1    C9 9029   2.553   0.331   7.600  0.3038 -0.1377  0.7383
   89CHL1    H9 9030   2.600   0.432   7.610 -1.7067  0.9968 -0.6162
   89CHL1   C10 9031   2.504   0.322   7.451  0.2891  0.0800 -0.3463
   89CHL1   C19 9032   2.405   0.207   7.438 -0.3735  0.7557  0.4261
   89CHL1  H19A 9033   2.308   0.249   7.474  0.0466  2.7729 -0.6965
   89CHL1  H19B 9034   2.384   0.184   7.332 -0.1883  0.4889  0.4458
   89CHL1  H19C 9035   2.440   0.113   7.487 -0.9680  0.1590 -0.2672
   89CHL1    C1 9036   2.436   0.457   7.412  0.4717 -0.0299 -0.2184
   89CHL1   H1A 9037   2.344   0.475   7.473  0.2510 -0.3278 -0.4578
   89CHL1   H1B 9038   2.504   0.541   7.437 -0.0982  1.2600 -2.6590
   89CHL1    C2 9039   2.402   0.466   7.261  0.3407 -0.8036  0.2416
   89CHL1   H2A 9040   2.359   0.566   7.242  1.5651 -0.0727  1.1396
   89CHL1   H2B 9041   2.328   0.387   7.237 -1.9801  0.8690  1.5402
   89CHL1   C20 9042   2.603   0.213   8.140 -0.3641  0.5239 -0.7797
   89CHL1   H20 9043   2.495   0.238   8.132 -0.7312 -0.1604  1.5005
   89CHL1   C21 9044   2.667   0.308   8.249 -0.6829 -0.0392 -0.2675
   89CHL1  H21A 9045   2.619   0.306   8.349  0.3530 -0.4475  0.2400
   89CHL1  H21B 9046   2.667   0.414   8.216  2.2615  0.2334  0.3086
   89CHL1  H21C 9047   2.776   0.290   8.261 -0.2339  3.2580  2.0648
   89CHL1   C22 9048   2.605   0.068   8.198  0.2753 -0.9516  0.0501
   89CHL1  H22A 9049   2.587  -0.000   8.112 -1.5729 -1.3377  0.7124
   89CHL1  H22B 9050   2.709   0.061   8.237  1.1490  2.7946 -1.2285
   89CHL1   C23 9051   2.490   0.037   8.292  0.2636 -0.6538  0.4643
   89CHL1  H23A 9052   2.497   0.095   8.386  0.8090  0.7207 -0.3921
   89CHL1  H23B 9053   2.391   0.065   8.250  1.4897  0.8957 -1.5983
   89CHL1   C24 9054   2.479  -0.116   8.307  0.1570  0.2846  0.2301
   89CHL1  H24A 9055   2.432  -0.165   8.220  1.4223 -0.8032  0.1229
   89CHL1  H24B 9056   2.582  -0.157   8.306 -0.4931 -1.3966 -0.7157
   89CHL1   C25 9057   2.410  -0.162   8.436  0.9602  0.8441  0.3885
   89CHL1   H25 9058   2.320  -0.100   8.452  0.1204 -0.5641  1.3697
   89CHL1   C26 9059   2.346  -0.306   8.419  0.1980  0.1903 -0.0490
   89CHL1  H26A 9060   2.303  -0.328   8.519 -1.2475  2.1175 -0.1907
   89CHL1  H26B 9061   2.266  -0.299   8.342 -0.5848  2.9753  0.8693
   89CHL1  H26C 9062   2.427  -0.376   8.391 -0.6666 -1.1889  0.8197
   89CHL1   C27 9063   2.501  -0.146   8.560  0.1424  0.0243  0.6101
   89CHL1  H27A 9064   2.441  -0.149   8.654  1.7176  0.3184  1.6683
   89CHL1  H27B 9065   2.571  -0.232   8.567  0.0151 -0.3476 -1.8179
   89CHL1  H27C 9066   2.562  -0.053   8.567 -0.4254  0.3573  1.3443
   90CHL1    C3 9067   3.602   2.137   6.769  0.2701  0.0183  0.1457
   90CHL1    H3 9068   3.503   2.094   6.796  1.9603 -3.8427  0.9413
   90CHL1    O3 9069   3.625   2.122   6.631 -0.4383  0.4913  0.2764
   90CHL1   H3' 9070   3.698   2.178   6.603  0.5392 -0.1202  1.5318
   90CHL1    C4 9071   3.615   2.285   6.804  0.1664 -0.5996 -0.0146
   90CHL1   H4A 9072   3.719   2.313   6.776 -0.0163 -1.3397 -1.5615
   90CHL1   H4B 9073   3.538   2.340   6.746 -1.4541 -2.2865  0.4680
   90CHL1    C5 9074   3.588   2.301   6.953 -1.0688  0.0725 -0.0086
   90CHL1    C6 9075   3.492   2.378   6.994 -0.5315 -0.3442 -0.1491
   90CHL1    H6 9076   3.427   2.434   6.926 -0.3466 -0.7326 -0.6487
   90CHL1    C7 9077   3.453   2.406   7.141  0.0571 -0.0902  0.7695
   90CHL1   H7A 9078   3.410   2.508   7.145 -0.0922 -0.1966  3.5600
   90CHL1   H7B 9079   3.368   2.338   7.163 -0.5345 -0.0269 -1.1135
   90CHL1    C8 9080   3.574   2.368   7.231 -0.4577 -0.0369  0.0965
   90CHL1    H8 9081   3.655   2.441   7.207 -0.9178 -0.0962 -1.8102
   90CHL1   C14 9082   3.541   2.374   7.378 -0.0628  0.8059  0.2726
   90CHL1   H14 9083   3.455   2.304   7.379 -1.1316  1.8916 -2.7493
   90CHL1   C15 9084   3.483   2.507   7.426 -0.3361  0.2736 -0.3497
   90CHL1  H15A 9085   3.528   2.592   7.371 -0.9329 -0.0893 -1.4210
   90CHL1  H15B 9086   3.376   2.505   7.395 -1.3102 -0.7770  2.6753
   90CHL1   C16 9087   3.513   2.509   7.580 -0.2479  0.8344  0.6226
   90CHL1  H16A 9088   3.576   2.595   7.610  0.5841 -0.2785  2.1892
   90CHL1  H16B 9089   3.425   2.507   7.649 -0.9127 -1.6010 -0.2057
   90CHL1   C17 9090   3.580   2.367   7.606  0.7775  0.8263 -0.4929
   90CHL1   H17 9091   3.495   2.297   7.617  1.1792  0.3677 -0.2498
   90CHL1   C13 9092   3.645   2.333   7.475 -0.0103 -0.0763  0.3955
   90CHL1   C18 9093   3.767   2.426   7.459  0.3608  0.0733  0.7129
   90CHL1  H18A 9094   3.850   2.403   7.530  3.1638 -3.7301 -3.2247
   90CHL1  H18B 9095   3.818   2.418   7.360 -1.0392 -2.4003  0.1002
   90CHL1  H18C 9096   3.745   2.534   7.463 -0.8360 -0.1960  1.7480
   90CHL1   C12 9097   3.680   2.183   7.451 -0.0120 -0.0302  0.0573
   90CHL1  H12A 9098   3.764   2.157   7.520  0.0019  0.4062  0.2084
   90CHL1  H12B 9099   3.589   2.121   7.463  1.4267 -2.2077  0.2592
   90CHL1   C11 9100   3.720   2.164   7.302 -0.5362 -0.4561  0.3006
   90CHL1  H11A 9101   3.820   2.212   7.300 -0.8382  0.5480  3.7540
   90CHL1  H11B 9102   3.732   2.055   7.288 -1.0328 -0.6214  1.0767
   90CHL1    C9 9103   3.624   2.223   7.198 -0.0048 -0.3395 -0.1410
   90CHL1    H9 9104   3.538   2.154   7.203 -2.2517  2.3895  1.6368
   90CHL1   C10 9105   3.672   2.217   7.051  0.3947  0.1533  0.3955
   90CHL1   C19 9106   3.818   2.269   7.057 -0.1206  0.6489 -0.0384
   90CHL1  H19A 9107   3.829   2.362   7.117 -0.4783  0.9909 -0.4837
   90CHL1  H19B 9108   3.884   2.194   7.105 -0.4358  1.0857  1.1123
   90CHL1  H19C 9109   3.859   2.293   6.956  0.9602 -0.2188  0.1902
   90CHL1    C1 9110   3.657   2.070   7.003 -0.6011 -0.2377  0.6972
   90CHL1   H1A 9111   3.733   2.005   7.053  0.7581 -0.7857 -1.8662
   90CHL1   H1B 9112   3.556   2.031   7.027 -0.6627 -0.0012  0.8226
   90CHL1    C2 9113   3.691   2.047   6.853 -0.8333 -0.5540  0.3587
   90CHL1   H2A 9114   3.673   1.940   6.830  0.3445 -0.3240 -1.8187
   90CHL1   H2B 9115   3.792   2.090   6.841 -1.1424  0.7770  2.0773
   90CHL1   C20 9116   3.653   2.371   7.736  0.2807  0.5720 -0.0851
   90CHL1   H20 9117   3.746   2.430   7.720  0.5912 -0.1781 -1.1812
   90CHL1   C21 9118   3.701   2.228   7.781 -0.4085  0.2306 -0.3478
   90CHL1  H21A 9119   3.775   2.197   7.705  0.0302  2.9694 -1.1455
   90CHL1  H21B 9120   3.620   2.152   7.770 -0.2940 -0.0619  0.7588
   90CHL1  H21C 9121   3.744   2.213   7.882  0.9286 -3.0529 -1.2434
   90CHL1   C22 9122   3.564   2.423   7.851  0.1227  0.1119  0.1836
   90CHL1  H22A 9123   3.618   2.419   7.948 -0.1759 -1.1412  0.3176
   90CHL1  H22B 9124   3.557   2.531   7.829  1.0141  0.1533  0.0537
   90CHL1   C23 9125   3.437   2.353   7.884 -0.1299  0.3848  0.1885
   90CHL1  H23A 9126   3.374   2.368   7.794 -1.4842  2.3876  1.3956
   90CHL1  H23B 9127   3.440   2.242   7.889  0.2660  0.3268 -1.0085
   90CHL1   C24 9128   3.365   2.423   7.997 -0.6929  0.0510 -0.0908
   90CHL1  H24A 9129   3.425   2.402   8.089  2.1749  1.4781 -1.4998
   90CHL1  H24B 9130   3.366   2.530   7.966 -1.1168 -0.1132 -0.6819
   90CHL1   C25 9131   3.217   2.392   8.011 -0.2428  0.3097  0.6445
   90CHL1   H25 9132   3.163   2.404   7.915  0.6689  0.8794  0.1907
   90CHL1   C26 9133   3.203   2.241   8.053 -0.8463 -0.9121  0.3160
   90CHL1  H26A 9134   3.256   2.186   7.972 -0.9783  0.7905 -0.9676
   90CHL1  H26B 9135   3.249   2.230   8.153 -0.4085  0.6358  0.3106
   90CHL1  H26C 9136   3.093   2.226   8.054 -1.0219  0.2040 -0.4419
   90CHL1   C27 9137   3.144   2.479   8.102  0.4769 -0.3222 -0.5726
   90CHL1  H27A 9138   3.176   2.469   8.208  0.3982 -1.2257 -0.6231
   90CHL1  H27B 9139   3.152   2.585   8.069  2.1340 -0.2550 -0.0602
   90CHL1  H27C 9140   3.038   2.450   8.118 -0.1404  2.1864  0.2494
   91CHL1    C3 9141   5.881   4.804   7.029  0.0302 -0.9607  0.3941
   91CHL1    H3 9142   5.889   4.913   7.050 -1.3651 -1.2583  2.7800
   91CHL1    O3 9143   5.918   4.768   6.903 -0.4123 -0.2499  0.4401
   91CHL1   H3' 9144   6.013   4.765   6.916 -0.3306  1.2609  0.3690
   91CHL1    C4 9145   5.993   4.740   7.116  0.0815 -0.6527  0.0750
   91CHL1   H4A 9146   6.006   4.636   7.079  0.2341  0.0011 -1.7785
   91CHL1   H4B 9147   6.086   4.793   7.088  0.4297 -0.7956  0.9328
   91CHL1    C5 9148   5.961   4.752   7.269 -0.3703 -0.2653  0.7562
   91CHL1    C6 9149   6.061   4.792   7.353  0.0719  0.1760 -0.4392
   91CHL1    H6 9150   6.168   4.809   7.333  0.0539 -0.9117 -1.5621
   91CHL1    C7 9151   6.033   4.796   7.505 -0.0668  0.0226 -0.2812
   91CHL1   H7A 9152   6.104   4.731   7.559  0.3130  0.6800  0.0131
   91CHL1   H7B 9153   6.052   4.898   7.545 -0.9805  1.3381 -2.9279
   91CHL1    C8 9154   5.899   4.737   7.548  0.2472  0.3704 -0.0341
   91CHL1    H8 9155   5.908   4.627   7.560  2.9866  0.4573 -0.5886
   91CHL1   C14 9156   5.872   4.780   7.690 -0.0842  0.0819 -0.5059
   91CHL1   H14 9157   5.863   4.890   7.701  2.8046  0.2212  1.4172
   91CHL1   C15 9158   5.964   4.736   7.798 -0.0450  0.2962  0.4127
   91CHL1  H15A 9159   5.986   4.628   7.787 -3.1429 -0.3594 -0.4508
   91CHL1  H15B 9160   6.063   4.785   7.789 -0.7351  1.5353 -0.7803
   91CHL1   C16 9161   5.893   4.759   7.924 -0.4713 -0.4353 -0.3073
   91CHL1  H16A 9162   5.897   4.675   7.996 -2.9754 -0.0401  0.4169
   91CHL1  H16B 9163   5.924   4.852   7.976 -0.4606 -1.0348  0.7813
   91CHL1   C17 9164   5.739   4.786   7.885  0.2298  0.5486 -0.3960
   91CHL1   H17 9165   5.709   4.893   7.893 -1.8647  0.0869 -1.2435
   91CHL1   C13 9166   5.732   4.732   7.739  0.9708  0.0504  0.1603
   91CHL1   C18 9167   5.732   4.571   7.749 -0.3599  1.0742 -0.1168
   91CHL1  H18A 9168   5.630   4.528   7.763 -0.1800  0.0082 -1.7193
   91CHL1  H18B 9169   5.769   4.531   7.652  2.4032  1.0297  0.8709
   91CHL1  H18C 9170   5.798   4.523   7.824 -0.9321 -1.8193 -1.3072
   91CHL1   C12 9171   5.632   4.796   7.640 -0.2003 -0.2826 -0.2404
   91CHL1  H12A 9172   5.527   4.779   7.672 -0.1040  0.7403  0.6728
   91CHL1  H12B 9173   5.646   4.906   7.636  2.4236 -0.3383  2.9058
   91CHL1   C11 9174   5.652   4.736   7.497 -0.2352 -0.0900  0.6024
   91CHL1  H11A 9175   5.623   4.628   7.491 -2.3388  0.4798 -1.0296
   91CHL1  H11B 9176   5.579   4.798   7.441  0.8270  1.8259  1.2462
   91CHL1    C9 9177   5.787   4.775   7.450  0.0386  0.0150  0.5071
   91CHL1    H9 9178   5.794   4.885   7.438 -1.2342 -0.0076 -0.6363
   91CHL1   C10 9179   5.820   4.721   7.309  0.2216  0.0771  0.0538
   91CHL1   C19 9180   5.816   4.561   7.306  1.1076 -0.9715 -0.1074
   91CHL1  H19A 9181   5.818   4.518   7.203  0.0908  1.3632 -1.1618
   91CHL1  H19B 9182   5.901   4.528   7.370  0.0859 -0.3416  1.6535
   91CHL1  H19C 9183   5.723   4.518   7.350 -1.5121  3.2184 -0.9336
   91CHL1    C1 9184   5.712   4.793   7.214 -0.0897 -0.2843 -0.3572
   91CHL1   H1A 9185   5.607   4.762   7.232 -0.1561 -1.4418 -2.4566
   91CHL1   H1B 9186   5.720   4.903   7.227  1.4915 -0.5319  1.2003
   91CHL1    C2 9187   5.739   4.762   7.069 -0.2208  0.1156  0.0231
   91CHL1   H2A 9188   5.673   4.825   7.006  1.0678  0.8469 -0.6339
   91CHL1   H2B 9189   5.725   4.654   7.051 -1.9456  0.5452 -1.5563
   91CHL1   C20 9190   5.639   4.704   7.981  1.1662  0.5425 -0.4527
   91CHL1   H20 9191   5.657   4.594   7.987 -3.1631 -0.4252 -1.6254
   91CHL1   C21 9192   5.493   4.729   7.946  0.4346 -0.3171  0.8227
   91CHL1  H21A 9193   5.460   4.834   7.929  1.4750 -0.2379 -1.0381
   91CHL1  H21B 9194   5.431   4.695   8.031 -0.6678  1.8080  0.9427
   91CHL1  H21C 9195   5.456   4.665   7.863 -1.7475  0.4731  1.1262
   91CHL1   C22 9196   5.670   4.747   8.128 -0.3723  0.5574  0.0428
   91CHL1  H22A 9197   5.772   4.787   8.150 -1.2385  2.5350  0.6831
   91CHL1  H22B 9198   5.602   4.830   8.156  0.5860  1.1611  0.6658
   91CHL1   C23 9199   5.633   4.631   8.223  0.4141 -0.2361 -0.3299
   91CHL1  H23A 9200   5.542   4.573   8.196  1.2567 -2.6276  1.5336
   91CHL1  H23B 9201   5.723   4.566   8.224  1.5377  1.2765 -0.1992
   91CHL1   C24 9202   5.627   4.684   8.362  0.2931 -0.3505 -0.2649
   91CHL1  H24A 9203   5.722   4.741   8.374  0.8906 -1.3668 -0.0482
   91CHL1  H24B 9204   5.534   4.741   8.383  1.0412  0.0307  2.3584
   91CHL1   C25 9205   5.626   4.568   8.461 -0.2266 -0.3129 -0.0889
   91CHL1   H25 9206   5.724   4.516   8.463  0.3587  0.7505 -0.5808
   91CHL1   C26 9207   5.632   4.626   8.603  0.1950 -0.1430 -0.1797
   91CHL1  H26A 9208   5.557   4.703   8.630 -1.4021 -2.5104  2.7323
   91CHL1  H26B 9209   5.626   4.536   8.668 -2.1539 -0.3947 -0.6449
   91CHL1  H26C 9210   5.723   4.686   8.623 -0.6548  1.2447 -0.3328
   91CHL1   C27 9211   5.514   4.473   8.436 -0.0862 -0.3891  0.3941
   91CHL1  H27A 9212   5.510   4.411   8.529  2.8196  0.9182  1.5242
   91CHL1  H27B 9213   5.416   4.522   8.419  1.0000  1.3934 -1.0905
   91CHL1  H27C 9214   5.533   4.420   8.340 -0.6622  0.5973 -0.2784
   92CHL1    C3 9215   1.252   6.465   6.817  0.0165 -0.6475  0.2293
   92CHL1    H3 9216   1.359   6.436   6.822  0.2066  0.1416  0.9794
   92CHL1    O3 9217   1.224   6.547   6.702 -0.5922  0.0101 -0.5096
   92CHL1   H3' 9218   1.220   6.639   6.729  0.0143  0.7100 -2.5849
   92CHL1    C4 9219   1.171   6.337   6.814 -0.0999  0.0881 -0.6533
   92CHL1   H4A 9220   1.066   6.349   6.781 -0.4517  0.5613  0.5828
   92CHL1   H4B 9221   1.224   6.286   6.730 -0.4423 -2.1366  0.4071
   92CHL1    C5 9222   1.181   6.248   6.940 -0.6979  0.3081 -0.1431
   92CHL1    C6 9223   1.223   6.120   6.938  0.4917 -0.3337  0.1201
   92CHL1    H6 9224   1.252   6.055   6.854 -0.7161 -0.1420 -0.4595
   92CHL1    C7 9225   1.220   6.033   7.054 -0.1752 -0.3324  0.0784
   92CHL1   H7A 9226   1.188   5.929   7.034  2.3359 -1.1911  0.0600
   92CHL1   H7B 9227   1.324   6.010   7.087 -1.0341 -0.1827  3.1907
   92CHL1    C8 9228   1.149   6.094   7.178  1.1080  0.1208  0.1051
   92CHL1    H8 9229   1.039   6.082   7.162  1.1530  1.4434 -1.4348
   92CHL1   C14 9230   1.186   6.023   7.311  0.5792  0.9223  0.3610
   92CHL1   H14 9231   1.291   6.051   7.334  0.7317 -0.2461  1.1588
   92CHL1   C15 9232   1.187   5.869   7.314  0.4214 -0.3764 -0.4031
   92CHL1  H15A 9233   1.098   5.825   7.265  1.1423  0.1004 -2.2302
   92CHL1  H15B 9234   1.281   5.833   7.266  0.1665  0.6871 -1.7723
   92CHL1   C16 9235   1.169   5.838   7.468  0.2086  0.0497 -0.1722
   92CHL1  H16A 9236   1.068   5.791   7.476  0.8214 -1.5264 -1.1263
   92CHL1  H16B 9237   1.250   5.769   7.499  0.2928  0.5371  0.7213
   92CHL1   C17 9238   1.165   5.973   7.543 -0.7288  0.2835  0.9054
   92CHL1   H17 9239   1.272   6.003   7.556 -0.8092  0.9250  0.1568
   92CHL1   C13 9240   1.110   6.068   7.437 -0.0544 -0.6207 -0.1239
   92CHL1   C18 9241   0.958   6.047   7.420  0.5279 -0.1933  0.8105
   92CHL1  H18A 9242   0.924   5.942   7.404 -2.3188  0.1701  3.3281
   92CHL1  H18B 9243   0.905   6.071   7.515  1.1184 -0.1873  1.1401
   92CHL1  H18C 9244   0.919   6.109   7.337 -0.9864 -0.9510  0.8988
   92CHL1   C12 9245   1.140   6.216   7.456  0.4020  0.0507 -0.7420
   92CHL1  H12A 9246   1.071   6.251   7.536  2.2014  0.5842  0.6379
   92CHL1  H12B 9247   1.241   6.221   7.501  1.2752  0.9635 -2.7112
   92CHL1   C11 9248   1.115   6.292   7.326  0.1081 -0.5353  0.5330
   92CHL1  H11A 9249   1.006   6.310   7.310  0.4451 -0.5365 -2.4997
   92CHL1  H11B 9250   1.158   6.394   7.328 -2.0766  0.4406  0.0998
   92CHL1    C9 9251   1.186   6.238   7.198  0.6498 -0.2305 -0.6874
   92CHL1    H9 9252   1.296   6.246   7.211  0.3614  1.0150  1.5904
   92CHL1   C10 9253   1.150   6.325   7.074 -0.3446  0.1897 -0.0728
   92CHL1   C19 9254   0.993   6.356   7.066 -0.4728 -0.1062  0.1023
   92CHL1  H19A 9255   0.962   6.438   7.134  0.7368  2.6016 -2.4002
   92CHL1  H19B 9256   0.960   6.383   6.963  0.1215 -2.0051 -0.6350
   92CHL1  H19C 9257   0.941   6.263   7.097  0.1607 -1.0246 -1.4650
   92CHL1    C1 9258   1.235   6.456   7.072  0.1000 -0.5365 -0.1460
   92CHL1   H1A 9259   1.212   6.509   7.167  2.4010 -1.2271  0.8692
   92CHL1   H1B 9260   1.340   6.422   7.085  0.0855 -0.2623  0.7653
   92CHL1    C2 9261   1.221   6.540   6.943  0.5735 -0.4133  0.1078
   92CHL1   H2A 9262   1.285   6.630   6.959 -0.8621  0.2823  2.4387
   92CHL1   H2B 9263   1.116   6.578   6.934  1.1482  1.5895  1.1732
   92CHL1   C20 9264   1.104   5.956   7.687  0.6979  0.0836  1.1277
   92CHL1   H20 9265   0.995   5.951   7.668  0.9818 -1.2219 -0.4365
   92CHL1   C21 9266   1.125   6.095   7.754 -0.7703 -0.4711  0.3755
   92CHL1  H21A 9267   1.226   6.136   7.733 -1.3820  0.9499  0.1281
   92CHL1  H21B 9268   1.115   6.080   7.864  2.3968 -0.4344  0.7600
   92CHL1  H21C 9269   1.050   6.166   7.713  2.0673  1.7122 -1.4340
   92CHL1   C22 9270   1.160   5.839   7.775 -0.0764  0.6821 -0.3952
   92CHL1  H22A 9271   1.165   5.747   7.713 -1.9212 -0.8662  1.5900
   92CHL1  H22B 9272   1.258   5.874   7.814  0.4267  1.1397 -2.0054
   92CHL1   C23 9273   1.064   5.807   7.898  0.1848  0.2363  0.0102
   92CHL1  H23A 9274   1.042   5.901   7.953  0.4033 -0.3623  1.1660
   92CHL1  H23B 9275   0.964   5.776   7.862  0.0303  0.9631 -0.1918
   92CHL1   C24 9276   1.117   5.688   7.987 -0.0927 -0.0712  0.5605
   92CHL1  H24A 9277   1.096   5.593   7.932  0.4896 -0.8118  1.5692
   92CHL1  H24B 9278   1.225   5.710   8.000 -0.4256  1.5615  0.7141
   92CHL1   C25 9279   1.042   5.690   8.122 -0.9035  0.4654 -0.4989
   92CHL1   H25 9280   0.932   5.696   8.111 -0.7156  1.9052 -2.0391
   92CHL1   C26 9281   1.070   5.551   8.194  0.4126 -0.1693  0.8681
   92CHL1  H26A 9282   1.174   5.555   8.233 -0.2864 -0.3955  2.8701
   92CHL1  H26B 9283   1.000   5.520   8.275 -1.7545 -3.1347 -1.8813
   92CHL1  H26C 9284   1.063   5.470   8.118  0.4580  0.1243  0.5538
   92CHL1   C27 9285   1.090   5.812   8.205  0.0410 -0.1473  0.9662
   92CHL1  H27A 9286   1.200   5.808   8.216  0.0035  0.4306  1.6136
   92CHL1  H27B 9287   1.061   5.915   8.175 -1.2978 -1.0549 -1.0599
   92CHL1  H27C 9288   1.054   5.798   8.309 -1.9300  0.3635  0.3971
   93CHL1    C3 9289   5.281   4.837   7.004 -0.3516  0.7565  0.9482
   93CHL1    H3 9290   5.216   4.746   7.004  0.2963  0.2358  3.3005
   93CHL1    O3 9291   5.358   4.829   6.887 -1.0522  0.4094  0.6517
   93CHL1   H3' 9292   5.375   4.923   6.873 -2.3711  0.5110 -0.4503
   93CHL1    C4 9293   5.199   4.966   6.994  1.1379 -0.7650 -0.2314
   93CHL1   H4A 9294   5.266   5.050   6.965  0.5102 -0.0734  0.2849
   93CHL1   H4B 9295   5.128   4.943   6.912  0.6858  0.0781 -0.0883
   93CHL1    C5 9296   5.123   4.998   7.117  0.0127 -0.3906 -0.0953
   93CHL1    C6 9297   4.991   5.015   7.119  0.8288  0.1857  0.2150
   93CHL1    H6 9298   4.935   5.031   7.026 -1.3906 -0.2420  1.4208
   93CHL1    C7 9299   4.908   5.027   7.247 -0.4212 -0.6970  0.0086
   93CHL1   H7A 9300   4.817   5.088   7.229 -1.2838 -2.0440 -0.3768
   93CHL1   H7B 9301   4.870   4.926   7.275  0.8449 -1.1921  0.0067
   93CHL1    C8 9302   4.986   5.090   7.359 -0.6532 -0.3060 -0.0901
   93CHL1    H8 9303   5.009   5.195   7.331 -1.5645 -0.9825 -3.9816
   93CHL1   C14 9304   4.911   5.091   7.487 -0.8755  0.5584  0.4426
   93CHL1   H14 9305   4.904   4.981   7.501  0.5226  0.2275 -1.1418
   93CHL1   C15 9306   4.770   5.132   7.489  0.2199 -0.7520 -0.3650
   93CHL1  H15A 9307   4.764   5.233   7.444 -0.4484 -0.7405 -0.2657
   93CHL1  H15B 9308   4.693   5.075   7.433 -0.3047 -0.0759 -0.3438
   93CHL1   C16 9309   4.740   5.141   7.643 -0.2477  0.1520 -0.0394
   93CHL1  H16A 9310   4.674   5.222   7.681 -0.3334 -0.1202  0.3978
   93CHL1  H16B 9311   4.680   5.053   7.674  1.9979 -1.7331 -0.7175
   93CHL1   C17 9312   4.874   5.122   7.718  1.1056 -0.4827 -0.9370
   93CHL1   H17 9313   4.861   5.013   7.733 -2.4202 -0.2667 -1.6187
   93CHL1   C13 9314   4.978   5.151   7.615 -1.0295  0.1101 -0.1634
   93CHL1   C18 9315   4.998   5.300   7.594  0.1901 -0.0735  0.0414
   93CHL1  H18A 9316   5.066   5.337   7.673 -1.1277  0.0142  1.1771
   93CHL1  H18B 9317   5.044   5.316   7.494 -3.6872  0.0296 -1.9218
   93CHL1  H18C 9318   4.900   5.352   7.591 -0.2403 -0.9156 -1.8187
   93CHL1   C12 9319   5.116   5.078   7.636 -0.2639  0.0031  0.4141
   93CHL1  H12A 9320   5.178   5.129   7.713  3.5693 -1.7004 -1.2853
   93CHL1  H12B 9321   5.090   4.972   7.656 -2.1590  0.6877  1.9743
   93CHL1   C11 9322   5.196   5.071   7.499 -0.1860  0.0985  0.3787
   93CHL1  H11A 9323   5.222   5.176   7.473 -2.3827  0.4506 -0.6215
   93CHL1  H11B 9324   5.279   4.998   7.514  0.5672 -0.0948 -3.6456
   93CHL1    C9 9325   5.120   5.015   7.376 -0.2198  0.0609 -0.2907
   93CHL1    H9 9326   5.091   4.910   7.396 -0.1140  0.3213  1.3359
   93CHL1   C10 9327   5.205   4.994   7.241 -0.6591 -0.0599 -0.4256
   93CHL1   C19 9328   5.304   5.108   7.236 -0.2098  0.0300 -0.5641
   93CHL1  H19A 9329   5.251   5.203   7.256  0.4185  0.3474 -0.3813
   93CHL1  H19B 9330   5.373   5.094   7.322 -0.4055  0.3037 -0.3605
   93CHL1  H19C 9331   5.355   5.119   7.137 -0.2906 -0.5244 -0.6688
   93CHL1    C1 9332   5.282   4.857   7.249  0.4325  0.2441 -0.2191
   93CHL1   H1A 9333   5.350   4.849   7.336  2.7303 -0.7340 -1.9923
   93CHL1   H1B 9334   5.212   4.771   7.244  2.6521 -1.6121 -1.2575
   93CHL1    C2 9335   5.376   4.845   7.127 -0.3897 -0.5543 -0.0957
   93CHL1   H2A 9336   5.431   4.749   7.138  0.9728  0.1224 -0.7808
   93CHL1   H2B 9337   5.453   4.924   7.115  0.5248 -1.3310  0.4764
   93CHL1   C20 9338   4.873   5.197   7.861 -0.4033  0.4907  0.0267
   93CHL1   H20 9339   4.872   5.308   7.850 -0.6205  0.5729  0.8723
   93CHL1   C21 9340   5.010   5.174   7.926 -0.5586  0.1249 -0.7747
   93CHL1  H21A 9341   5.092   5.211   7.860 -0.4087  1.1416 -0.0276
   93CHL1  H21B 9342   5.020   5.066   7.950 -2.0153  0.5865  2.4009
   93CHL1  H21C 9343   5.018   5.226   8.023 -3.5599 -2.8811  1.3057
   93CHL1   C22 9344   4.759   5.149   7.951 -0.0811  0.8785 -0.7438
   93CHL1  H22A 9345   4.662   5.181   7.906  0.8434  3.9465 -0.7651
   93CHL1  H22B 9346   4.748   5.039   7.962 -1.0277  0.5889 -3.5860
   93CHL1   C23 9347   4.764   5.204   8.099 -1.0102 -0.0694 -0.4574
   93CHL1  H23A 9348   4.857   5.163   8.142  0.1881  0.6459 -2.2286
   93CHL1  H23B 9349   4.774   5.315   8.095 -1.5043 -0.0067 -0.0832
   93CHL1   C24 9350   4.633   5.177   8.177 -0.7360 -0.1345 -0.4799
   93CHL1  H24A 9351   4.551   5.203   8.107  1.4341 -1.1517 -3.6849
   93CHL1  H24B 9352   4.623   5.067   8.190  0.7516 -0.2434 -0.0243
   93CHL1   C25 9353   4.618   5.243   8.316  0.1067  0.2775  0.2019
   93CHL1   H25 9354   4.640   5.351   8.302 -1.3471  0.9166  2.3497
   93CHL1   C26 9355   4.473   5.227   8.363 -0.0674 -0.0214  0.2063
   93CHL1  H26A 9356   4.401   5.269   8.290  0.9281  0.3200 -0.6136
   93CHL1  H26B 9357   4.448   5.120   8.381 -0.0891  0.2843  2.2195
   93CHL1  H26C 9358   4.451   5.276   8.460  2.4920 -0.2472  0.9835
   93CHL1   C27 9359   4.725   5.200   8.418 -0.3736 -0.3704  0.1990
   93CHL1  H27A 9360   4.824   5.220   8.373 -0.7779  2.4155  0.3277
   93CHL1  H27B 9361   4.708   5.255   8.514 -1.5167 -0.3998  0.0254
   93CHL1  H27C 9362   4.713   5.091   8.430  1.9625 -1.0182 -2.4312
   94CHL1    C3 9363   0.575   0.535   6.936 -0.7434  0.7983 -0.0206
   94CHL1    H3 9364   0.549   0.641   6.952 -3.4332  0.1471  0.3983
   94CHL1    O3 9365   0.557   0.507   6.803 -0.0161  0.1018  0.3224
   94CHL1   H3' 9366   0.605   0.426   6.788  1.8662  1.5814 -2.4736
   94CHL1    C4 9367   0.726   0.523   6.969  0.0185  0.2123 -0.5044
   94CHL1   H4A 9368   0.755   0.421   6.935  1.4869  0.3610  0.2432
   94CHL1   H4B 9369   0.784   0.586   6.898  0.8524 -0.2224 -0.2216
   94CHL1    C5 9370   0.759   0.549   7.110 -0.1814  0.4346 -0.3101
   94CHL1    C6 9371   0.856   0.634   7.153  0.4539  0.6876 -0.4194
   94CHL1    H6 9372   0.928   0.687   7.089  1.9753  0.8222  1.3085
   94CHL1    C7 9373   0.893   0.655   7.294  0.7707 -0.4325  0.5706
   94CHL1   H7A 9374   1.003   0.643   7.306  0.7898  0.0191  0.8517
   94CHL1   H7B 9375   0.859   0.756   7.325  1.3830 -0.4390  1.3122
   94CHL1    C8 9376   0.823   0.549   7.386 -0.5448 -0.5825  0.2975
   94CHL1    H8 9377   0.885   0.456   7.382 -1.0629 -0.9526  0.7931
   94CHL1   C14 9378   0.825   0.601   7.525 -0.5363 -0.0807  0.4401
   94CHL1   H14 9379   0.759   0.691   7.525 -1.1125 -0.5024  0.1465
   94CHL1   C15 9380   0.960   0.658   7.577  0.2301  0.5189  0.3032
   94CHL1  H15A 9381   1.040   0.584   7.555 -1.5731 -1.2545 -0.5425
   94CHL1  H15B 9382   0.975   0.758   7.531 -3.0403  1.1252  0.3419
   94CHL1   C16 9383   0.936   0.672   7.724  0.2423  0.5206 -0.2716
   94CHL1  H16A 9384   1.012   0.609   7.776 -0.1554  0.1466 -0.1326
   94CHL1  H16B 9385   0.940   0.774   7.768  0.5834 -1.4536  5.0275
   94CHL1   C17 9386   0.788   0.607   7.748 -0.0185 -1.0483  0.8880
   94CHL1   H17 9387   0.716   0.690   7.734 -0.1523 -1.1913  0.7287
   94CHL1   C13 9388   0.761   0.512   7.631  0.0448 -0.5568  0.2503
   94CHL1   C18 9389   0.844   0.382   7.653 -0.0563  0.4558 -0.4908
   94CHL1  H18A 9390   0.860   0.329   7.557 -1.0198  0.1216 -0.4734
   94CHL1  H18B 9391   0.947   0.400   7.692 -0.1534  2.1400 -0.9348
   94CHL1  H18C 9392   0.793   0.315   7.726  2.5063 -1.7934 -0.6016
   94CHL1   C12 9393   0.619   0.489   7.594  0.4518  0.3507  0.3776
   94CHL1  H12A 9394   0.575   0.413   7.662 -0.5497  0.3107 -0.2982
   94CHL1  H12B 9395   0.561   0.580   7.619  0.0209  0.2614 -0.2809
   94CHL1   C11 9396   0.602   0.438   7.451 -0.6389 -0.2400  0.0555
   94CHL1  H11A 9397   0.644   0.336   7.442  1.2658  0.6383 -1.7107
   94CHL1  H11B 9398   0.491   0.435   7.448 -0.8837  1.6362  2.9472
   94CHL1    C9 9399   0.682   0.523   7.341  0.1306 -0.3443 -0.6085
   94CHL1    H9 9400   0.630   0.619   7.319  0.1109 -0.6122 -1.8379
   94CHL1   C10 9401   0.662   0.471   7.200  0.4104 -0.3910  0.1275
   94CHL1   C19 9402   0.689   0.320   7.203  0.4952 -0.3267 -0.2876
   94CHL1  H19A 9403   0.712   0.288   7.099  2.3486 -0.3237  0.0942
   94CHL1  H19B 9404   0.779   0.301   7.265 -0.4338  1.4391  1.7449
   94CHL1  H19C 9405   0.605   0.256   7.238  1.0094 -1.9393 -1.8603
   94CHL1    C1 9406   0.506   0.490   7.164  0.1549  0.1370  0.3828
   94CHL1   H1A 9407   0.431   0.444   7.231  0.0621  0.6253  0.6127
   94CHL1   H1B 9408   0.485   0.598   7.176 -0.7035  0.1833 -1.1609
   94CHL1    C2 9409   0.481   0.442   7.020  0.4567 -0.1459 -0.4591
   94CHL1   H2A 9410   0.374   0.461   6.993  0.4632  1.0558  0.2751
   94CHL1   H2B 9411   0.501   0.335   6.998  0.6244 -0.3407  0.5964
   94CHL1   C20 9412   0.772   0.561   7.891 -0.6867  0.3294 -0.4698
   94CHL1   H20 9413   0.850   0.484   7.910 -0.4785  0.7412  0.4119
   94CHL1   C21 9414   0.636   0.489   7.917  0.4186  0.0570  0.0323
   94CHL1  H21A 9415   0.545   0.547   7.892  1.6583  0.7068 -3.5119
   94CHL1  H21B 9416   0.618   0.456   8.022 -0.5043  1.8200  0.4706
   94CHL1  H21C 9417   0.625   0.399   7.853 -0.4028  0.4940 -0.4519
   94CHL1   C22 9418   0.808   0.674   7.993  0.5338 -0.1140 -0.0851
   94CHL1  H22A 9419   0.914   0.703   7.978  0.6749 -0.3713  0.3925
   94CHL1  H22B 9420   0.739   0.760   7.976 -0.6360 -0.8061  0.9991
   94CHL1   C23 9421   0.796   0.622   8.136  0.3166  1.1632  0.9235
   94CHL1  H23A 9422   0.691   0.586   8.150  1.1813 -1.4579  1.2866
   94CHL1  H23B 9423   0.873   0.545   8.155  1.3963  2.0755  0.3322
   94CHL1   C24 9424   0.809   0.737   8.230  0.3900 -0.1857 -0.1017
   94CHL1  H24A 9425   0.887   0.811   8.203 -0.5453  1.2780  1.0387
   94CHL1  H24B 9426   0.726   0.808   8.209  0.4754 -0.1063 -0.1702
   94CHL1   C25 9427   0.808   0.705   8.379  0.6301  0.2200 -0.0077
   94CHL1   H25 9428   0.801   0.802   8.433  0.2702 -0.1173  0.5641
   94CHL1   C26 9429   0.680   0.636   8.412 -0.3504 -0.0025 -0.4841
   94CHL1  H26A 9430   0.671   0.629   8.522  2.3141 -1.1989 -0.2565
   94CHL1  H26B 9431   0.599   0.693   8.363  0.6061  2.4408  0.6330
   94CHL1  H26C 9432   0.694   0.533   8.373 -3.1724 -0.6609  0.0180
   94CHL1   C27 9433   0.938   0.628   8.407 -0.0106  0.1118 -0.5256
   94CHL1  H27A 9434   0.933   0.522   8.374 -0.8676 -0.7255  2.0704
   94CHL1  H27B 9435   1.018   0.690   8.361  0.3769  0.1696  0.2073
   94CHL1  H27C 9436   0.966   0.628   8.515  2.7900 -0.2174 -1.1631
   95CHL1    C3 9437   1.827   6.507   6.690  0.1042  0.2532 -0.6717
   95CHL1    H3 9438   1.901   6.561   6.753 -0.3748 -1.2089  1.2545
   95CHL1    O3 9439   1.837   6.546   6.555 -0.0250  0.8623  0.3960
   95CHL1   H3' 9440   1.784   6.482   6.508  2.2199 -0.8816  0.0475
   95CHL1    C4 9441   1.862   6.351   6.692 -0.0976 -0.2320 -0.3934
   95CHL1   H4A 9442   1.787   6.301   6.627 -0.8234 -1.2267  1.1546
   95CHL1   H4B 9443   1.968   6.346   6.659  0.6356  0.9542  1.5795
   95CHL1    C5 9444   1.852   6.318   6.840  1.4730  0.5814 -0.5097
   95CHL1    C6 9445   1.955   6.260   6.901  0.0655  0.0696  0.3199
   95CHL1    H6 9446   2.044   6.241   6.840  0.5722 -0.4851  1.2101
   95CHL1    C7 9447   1.950   6.225   7.047 -0.0372 -0.1246  0.1872
   95CHL1   H7A 9448   2.006   6.133   7.074 -1.2065 -0.1530  2.7084
   95CHL1   H7B 9449   2.002   6.301   7.108 -0.2548 -0.3758  0.6899
   95CHL1    C8 9450   1.806   6.214   7.100 -0.8678 -0.5026 -0.1544
   95CHL1    H8 9451   1.760   6.118   7.068 -0.5764 -0.9278  0.6821
   95CHL1   C14 9452   1.813   6.211   7.253 -0.4563 -0.1214  0.1380
   95CHL1   H14 9453   1.870   6.299   7.288  0.5037 -0.1226 -1.2993
   95CHL1   C15 9454   1.895   6.094   7.318  0.0474 -1.0455 -0.1806
   95CHL1  H15A 9455   1.859   6.004   7.262 -0.1031 -0.9040 -0.3107
   95CHL1  H15B 9456   2.003   6.117   7.306 -0.5858  1.8065 -0.9828
   95CHL1   C16 9457   1.844   6.094   7.460 -0.2284 -0.6950 -0.4964
   95CHL1  H16A 9458   1.798   5.994   7.470 -1.2678 -0.4655 -2.4614
   95CHL1  H16B 9459   1.933   6.102   7.527  0.2844  1.6632 -1.3704
   95CHL1   C17 9460   1.732   6.201   7.473  0.6127 -0.1302  0.0571
   95CHL1   H17 9461   1.784   6.296   7.499 -1.2862  1.3217 -1.1254
   95CHL1   C13 9462   1.675   6.216   7.326 -1.3506 -1.1547  0.1825
   95CHL1   C18 9463   1.594   6.095   7.290 -0.3542 -0.3895 -0.4395
   95CHL1  H18A 9464   1.645   6.002   7.325  2.0306  1.6724  1.9415
   95CHL1  H18B 9465   1.497   6.108   7.343  0.6028  0.9780  1.0638
   95CHL1  H18C 9466   1.564   6.083   7.184 -2.8004 -4.3152  0.4642
   95CHL1   C12 9467   1.603   6.345   7.287  0.5081 -0.0097 -0.5547
   95CHL1  H12A 9468   1.503   6.337   7.335 -0.9419 -2.7121 -3.6246
   95CHL1  H12B 9469   1.662   6.435   7.314  0.4501  0.2930 -1.4012
   95CHL1   C11 9470   1.582   6.349   7.131 -0.7181  0.2793 -0.6140
   95CHL1  H11A 9471   1.510   6.274   7.093  2.0873 -3.7810  1.2743
   95CHL1  H11B 9472   1.544   6.452   7.117 -1.1525  0.1137 -0.6510
   95CHL1    C9 9473   1.719   6.328   7.057 -0.0401 -0.0106 -0.1883
   95CHL1    H9 9474   1.768   6.421   7.094 -1.8780  0.0292  2.4482
   95CHL1   C10 9475   1.709   6.355   6.907  0.5616  0.8528  0.8322
   95CHL1   C19 9476   1.617   6.248   6.855  0.0197  0.3946  0.2004
   95CHL1  H19A 9477   1.641   6.146   6.893 -1.0664  1.5671  4.5587
   95CHL1  H19B 9478   1.508   6.254   6.876 -0.3388 -0.3351 -1.2998
   95CHL1  H19C 9479   1.616   6.250   6.744 -1.9802 -2.3077  0.0678
   95CHL1    C1 9480   1.653   6.497   6.883 -0.7482 -0.8982  0.0224
   95CHL1   H1A 9481   1.544   6.505   6.904 -1.6335 -0.5873 -3.9007
   95CHL1   H1B 9482   1.714   6.572   6.938 -0.2802  0.3106 -2.0421
   95CHL1    C2 9483   1.684   6.536   6.736 -0.4812 -0.1636 -0.2657
   95CHL1   H2A 9484   1.673   6.646   6.722  0.1858 -0.2434 -1.5773
   95CHL1   H2B 9485   1.606   6.487   6.674 -0.8821 -0.4484  0.4528
   95CHL1   C20 9486   1.629   6.176   7.581 -0.1693  0.0369 -0.0968
   95CHL1   H20 9487   1.549   6.109   7.543 -1.0590  0.5449  0.8411
   95CHL1   C21 9488   1.568   6.308   7.630  0.5005 -0.3233  0.3922
   95CHL1  H21A 9489   1.648   6.376   7.669  1.7159 -2.0793  1.1178
   95CHL1  H21B 9490   1.493   6.283   7.708  0.4287 -0.1156  0.3920
   95CHL1  H21C 9491   1.519   6.367   7.550  2.3232  2.6201  1.2666
   95CHL1   C22 9492   1.696   6.089   7.691 -0.2153  0.0604 -0.6450
   95CHL1  H22A 9493   1.715   5.985   7.655  2.0010  0.1217  0.1907
   95CHL1  H22B 9494   1.801   6.124   7.706 -0.2610  0.5855 -1.4715
   95CHL1   C23 9495   1.615   6.074   7.815  0.5365 -0.4482 -0.1295
   95CHL1  H23A 9496   1.593   6.173   7.861 -0.3469 -0.0312 -1.4027
   95CHL1  H23B 9497   1.516   6.037   7.779 -0.1261 -0.0928  1.2664
   95CHL1   C24 9498   1.671   5.976   7.911 -0.6798 -0.3158 -0.4135
   95CHL1  H24A 9499   1.653   5.868   7.896  0.9455 -1.1286  2.6112
   95CHL1  H24B 9500   1.781   5.995   7.918 -0.7527  0.4639 -1.1973
   95CHL1   C25 9501   1.609   6.002   8.045 -0.3366 -0.0195 -0.7937
   95CHL1   H25 9502   1.636   6.107   8.071 -0.5046 -0.2481  0.3465
   95CHL1   C26 9503   1.455   5.974   8.052  0.0036  0.1716 -0.4823
   95CHL1  H26A 9504   1.396   6.043   7.988 -0.8542 -1.0547 -1.0497
   95CHL1  H26B 9505   1.425   5.872   8.019  0.4627  0.8276 -3.1604
   95CHL1  H26C 9506   1.434   5.989   8.160  0.2882 -0.7908 -0.2802
   95CHL1   C27 9507   1.676   5.913   8.147 -0.2171  0.0728  0.1980
   95CHL1  H27A 9508   1.785   5.934   8.157 -0.3515 -0.1522  2.6211
   95CHL1  H27B 9509   1.628   5.936   8.244  1.3091  0.9707  0.7614
   95CHL1  H27C 9510   1.677   5.803   8.128  0.8492  0.0385  0.3666
   96CHL1    C3 9511   0.465   3.663   6.598 -0.0091 -0.2345  0.5748
   96CHL1    H3 9512   0.558   3.723   6.594 -1.0680  1.4268 -1.7547
   96CHL1    O3 9513   0.425   3.641   6.461 -0.3639  0.3209 -0.0455
   96CHL1   H3' 9514   0.365   3.566   6.458 -0.9367  0.7931 -1.1033
   96CHL1    C4 9515   0.517   3.527   6.649 -0.2176  0.2559 -0.6261
   96CHL1   H4A 9516   0.455   3.442   6.613  2.1504 -2.1227  0.5407
   96CHL1   H4B 9517   0.617   3.530   6.601 -1.6812  2.2969 -3.8213
   96CHL1    C5 9518   0.534   3.517   6.802  0.2634 -0.3901  0.0102
   96CHL1    C6 9519   0.647   3.470   6.858  0.4333  0.8363  0.1753
   96CHL1    H6 9520   0.729   3.439   6.791  1.0181  1.9890  0.3197
   96CHL1    C7 9521   0.666   3.452   7.003 -0.7577  0.0159  0.3057
   96CHL1   H7A 9522   0.717   3.359   7.037 -0.7547  0.9642  3.1779
   96CHL1   H7B 9523   0.725   3.532   7.051 -1.0126  0.1459  0.4060
   96CHL1    C8 9524   0.530   3.462   7.073  0.9785 -0.5768  0.0085
   96CHL1    H8 9525   0.471   3.371   7.049  1.5702 -1.0033  0.1447
   96CHL1   C14 9526   0.557   3.470   7.224  0.7744  0.6462  0.4124
   96CHL1   H14 9527   0.612   3.566   7.239  0.2507  1.5016 -2.5188
   96CHL1   C15 9528   0.647   3.363   7.290  0.2278 -0.6411 -0.5796
   96CHL1  H15A 9529   0.622   3.265   7.244  1.2088 -1.2269  0.1015
   96CHL1  H15B 9530   0.754   3.383   7.265  0.1551  0.2225 -0.2309
   96CHL1   C16 9531   0.613   3.373   7.439 -1.1602  0.4251 -0.1069
   96CHL1  H16A 9532   0.590   3.271   7.475 -1.7954  1.5656  3.0380
   96CHL1  H16B 9533   0.704   3.408   7.494 -0.3937 -1.6653  0.0580
   96CHL1   C17 9534   0.502   3.476   7.449 -0.2798  0.1772  0.3243
   96CHL1   H17 9535   0.543   3.576   7.476 -1.2105  0.7273 -0.2073
   96CHL1   C13 9536   0.434   3.478   7.310  0.0021  0.3605  0.4987
   96CHL1   C18 9537   0.350   3.353   7.284 -0.8418  0.1322 -0.2430
   96CHL1  H18A 9538   0.323   3.345   7.176 -2.9916 -0.2729  0.2749
   96CHL1  H18B 9539   0.405   3.264   7.320  0.6380  1.4492  0.8594
   96CHL1  H18C 9540   0.252   3.357   7.337 -0.5010 -0.0083  0.3999
   96CHL1   C12 9541   0.366   3.607   7.274  0.2966  0.1448  0.5157
   96CHL1  H12A 9542   0.277   3.621   7.339  0.4273 -0.5821  0.8576
   96CHL1  H12B 9543   0.433   3.695   7.276  0.7696 -0.2020  0.1754
   96CHL1   C11 9544   0.330   3.606   7.125 -0.2814 -0.1791 -0.6776
   96CHL1  H11A 9545   0.243   3.537   7.119  1.2264 -2.3829  1.1438
   96CHL1  H11B 9546   0.277   3.703   7.110  0.1308  0.5579  2.0565
   96CHL1    C9 9547   0.448   3.588   7.028  0.3311  0.2845 -0.6317
   96CHL1    H9 9548   0.516   3.675   7.043  0.0452  0.6464 -1.3848
   96CHL1   C10 9549   0.414   3.576   6.882  0.3755 -0.2532  1.0891
   96CHL1   C19 9550   0.282   3.500   6.872  0.4906  0.6176 -0.2336
   96CHL1  H19A 9551   0.286   3.397   6.913 -1.9594 -0.0733 -1.5139
   96CHL1  H19B 9552   0.201   3.559   6.919  1.1291  0.2507  1.3709
   96CHL1  H19C 9553   0.267   3.486   6.763  2.5883 -2.6413 -0.2238
   96CHL1    C1 9554   0.374   3.719   6.827  1.2715  0.2005 -0.7221
   96CHL1   H1A 9555   0.283   3.754   6.882  1.5592  1.3227 -0.9317
   96CHL1   H1B 9556   0.455   3.789   6.855  0.8204  0.3052  0.4170
   96CHL1    C2 9557   0.348   3.726   6.679  0.0400  0.3198 -0.2891
   96CHL1   H2A 9558   0.342   3.831   6.644  2.8670  0.0609 -1.8696
   96CHL1   H2B 9559   0.254   3.682   6.642  0.6579  0.0510 -1.5694
   96CHL1   C20 9560   0.424   3.433   7.573  0.4237 -0.4719  0.5474
   96CHL1   H20 9561   0.380   3.332   7.558 -0.7823 -0.0563  1.1841
   96CHL1   C21 9562   0.311   3.530   7.607  0.0833 -0.7242 -0.3131
   96CHL1  H21A 9563   0.229   3.542   7.533  0.2766  0.0351 -0.4103
   96CHL1  H21B 9564   0.351   3.633   7.604  0.1645 -0.7667 -0.6778
   96CHL1  H21C 9565   0.264   3.520   7.707 -0.8326  1.2816 -0.4858
   96CHL1   C22 9566   0.517   3.420   7.700  0.0663 -0.6097 -0.0038
   96CHL1  H22A 9567   0.593   3.343   7.674  0.8236  0.5488 -1.3018
   96CHL1  H22B 9568   0.566   3.517   7.722  1.3328 -1.5455  1.5121
   96CHL1   C23 9569   0.460   3.364   7.832 -0.1578 -0.4056 -0.3665
   96CHL1  H23A 9570   0.401   3.442   7.886  1.4268 -0.4159  1.4961
   96CHL1  H23B 9571   0.386   3.283   7.814  0.2064 -1.1462  1.2936
   96CHL1   C24 9572   0.583   3.329   7.923  0.2323  0.1210 -0.1811
   96CHL1  H24A 9573   0.653   3.266   7.864 -0.0492  1.4949 -2.0656
   96CHL1  H24B 9574   0.633   3.423   7.954 -2.0559  1.5549 -0.5512
   96CHL1   C25 9575   0.540   3.264   8.059  1.0856  0.2340 -0.0516
   96CHL1   H25 9576   0.496   3.164   8.040  2.1825 -0.1181 -0.8804
   96CHL1   C26 9577   0.662   3.251   8.152  0.3531  0.0398  0.4956
   96CHL1  H26A 9578   0.638   3.210   8.253 -0.7841  0.1533  0.2779
   96CHL1  H26B 9579   0.747   3.189   8.116  1.3193  0.0529  2.5630
   96CHL1  H26C 9580   0.713   3.348   8.170  2.2899 -1.0981  1.5232
   96CHL1   C27 9581   0.436   3.343   8.140 -0.1610  0.6725 -0.3292
   96CHL1  H27A 9582   0.451   3.452   8.155 -0.8196  0.6203  0.8055
   96CHL1  H27B 9583   0.336   3.336   8.092 -1.3870 -0.5956  2.2588
   96CHL1  H27C 9584   0.431   3.294   8.240 -1.9479  1.4480 -0.0062
   97OSM      N 9585   0.550   6.387  11.255  0.3594  0.4455  0.1585
   97OSM    C15 9586   0.425   6.297  11.259 -0.3652  0.3746 -0.1222
   97OSM   H15A 9587   0.465   6.199  11.235 -0.7302 -0.3751  2.0696
   97OSM   H15B 9588   0.353   6.320  11.182 -0.9264 -0.2261  0.2036
   97OSM   H15C 9589   0.379   6.293  11.357  0.7135  0.4561  0.4088
   97OSM    C14 9590   0.654   6.332  11.348  1.0626  0.0900 -0.0917
   97OSM   H14A 9591   0.624   6.335  11.452  3.8232  0.1982  0.7831
   97OSM   H14B 9592   0.744   6.392  11.350  1.7143 -0.8757  0.0609
   97OSM   H14C 9593   0.682   6.230  11.330  1.2798  0.3028 -1.0173
   97OSM    C13 9594   0.616   6.384  11.120 -0.0592  0.0474  0.0424
   97OSM   H13A 9595   0.657   6.285  11.109 -0.2368  0.0850 -1.1003
   97OSM   H13B 9596   0.692   6.460  11.115  0.2421 -0.0007  2.4476
   97OSM   H13C 9597   0.539   6.400  11.046 -0.7672 -0.8360  0.5668
   97OSM    C12 9598   0.502   6.529  11.292  0.7333  0.5124 -0.2349
   97OSM   H12A 9599   0.445   6.530  11.383  1.1428  0.8351  0.0246
   97OSM   H12B 9600   0.427   6.561  11.221  0.6445 -0.1619 -0.4504
   97OSM    C11 9601   0.599   6.641  11.296 -0.6906 -0.5442  0.6179
   97OSM   H11A 9602   0.688   6.614  11.357  1.1450 -2.9248 -2.7575
   97OSM   H11B 9603   0.554   6.729  11.346 -1.5487 -0.6427  0.0501
   97OSM      P 9604   0.767   6.782  11.159 -0.3152  0.2428 -0.7002
   97OSM    O13 9605   0.724   6.912  11.211  0.5045  0.4936 -0.0043
   97OSM    O14 9606   0.885   6.721  11.227 -0.1087 -0.6360 -0.0333
   97OSM    O11 9607   0.798   6.797  11.006 -0.5971 -0.0490 -0.2447
   97OSM    O12 9608   0.642   6.679  11.167 -0.4262  0.4449  0.5990
   97OSM    C1S 9609   0.700   6.819  10.901  0.4459  0.1909  0.3443
   97OSM    H1S 9610   0.687   6.930  10.893 -0.0370  0.0603 -0.8845
   97OSM    H1T 9611   0.601   6.778  10.933  0.3897  2.2780  3.2817
   97OSM     NF 9612   0.649   6.796  10.666  0.0519  0.4326 -0.0782
   97OSM    HNF 9613   0.576   6.729  10.655  0.7521 -0.8156  2.3557
   97OSM    C2S 9614   0.743   6.755  10.766  0.1611  0.4291 -0.8287
   97OSM    H2S 9615   0.845   6.793  10.746 -0.6846  2.3001 -1.8576
   97OSM    C3S 9616   0.749   6.599  10.788 -0.0257  0.3807  0.4525
   97OSM    H3S 9617   0.659   6.560  10.841  0.5572 -2.6334 -0.5973
   97OSM     O3 9618   0.855   6.566  10.873  0.1009  0.9540 -0.3733
   97OSM    HO3 9619   0.883   6.651  10.907 -0.7646  1.5667 -1.1596
   97OSM    C4S 9620   0.771   6.529  10.660 -0.3201  0.3213  0.1729
   97OSM    H4S 9621   0.864   6.546  10.604  0.7829 -2.0140  1.1380
   97OSM    C5S 9622   0.707   6.418  10.617 -0.2362 -0.1075 -0.1853
   97OSM    H5S 9623   0.625   6.377  10.678  0.5004  0.9022  1.5468
   97OSM    C6S 9624   0.741   6.338  10.492  1.3749  0.0795  0.0291
   97OSM    H6S 9625   0.734   6.227  10.497 -2.6875  0.2261  1.8750
   97OSM    H6T 9626   0.850   6.350  10.474  1.0422  2.4465 -0.6608
   97OSM    C7S 9627   0.658   6.384  10.368  0.0837 -0.3922 -0.1593
   97OSM    H7S 9628   0.697   6.485  10.347 -0.5024  0.3572  2.1175
   97OSM    H7T 9629   0.550   6.402  10.386  0.1550 -0.3252  0.2158
   97OSM    C8S 9630   0.687   6.288  10.238  0.5679 -0.3813 -0.1927
   97OSM    H8S 9631   0.590   6.260  10.193 -0.0019 -1.2294  1.5010
   97OSM    H8T 9632   0.740   6.198  10.275  0.8660 -0.2036 -0.1758
   97OSM    C9S 9633   0.748   6.363  10.116 -0.0719 -0.3273 -0.0812
   97OSM    H9S 9634   0.838   6.416  10.154  0.8040 -0.2082 -2.1528
   97OSM    H9T 9635   0.679   6.447  10.093 -0.9526 -0.5624  1.5873
   97OSM   C10S 9636   0.793   6.279   9.994 -0.1111  0.6042  0.1218
   97OSM   H10S 9637   0.697   6.236   9.958  0.9330 -1.7901  0.0486
   97OSM   H10T 9638   0.865   6.202  10.027  0.6136  0.5914 -1.3936
   97OSM   C11S 9639   0.863   6.365   9.888 -0.1593  0.0996  0.8557
   97OSM   H11S 9640   0.948   6.420   9.934  1.3987 -0.9218 -0.6910
   97OSM   H11T 9641   0.786   6.430   9.841  0.8896  0.5462 -0.2925
   97OSM   C12S 9642   0.926   6.282   9.773 -0.2410 -1.1685  0.4072
   97OSM   H12S 9643   0.855   6.286   9.687  1.7145  1.2920 -1.2130
   97OSM   H12T 9644   0.929   6.176   9.807 -2.5848 -1.5657 -0.4119
   97OSM   C13S 9645   1.071   6.331   9.741 -0.1174  0.5436 -0.1377
   97OSM   H13S 9646   1.130   6.311   9.833  0.7034  1.3763 -0.4786
   97OSM   H13T 9647   1.083   6.436   9.707  0.7251  0.1412 -1.1216
   97OSM   C14S 9648   1.134   6.242   9.633  0.1646 -0.1364 -0.5314
   97OSM   H14S 9649   1.112   6.135   9.653 -0.3603  0.1988  0.8109
   97OSM   H14T 9650   1.245   6.254   9.638  0.2227 -0.1159 -1.7049
   97OSM   C15S 9651   1.085   6.273   9.490 -0.3086 -0.0095  0.5661
   97OSM   H15S 9652   1.119   6.375   9.461 -0.8234 -0.3662 -1.4274
   97OSM   H15T 9653   0.974   6.272   9.495 -0.2864  0.0305  1.3299
   97OSM   C16S 9654   1.136   6.183   9.379  0.0393  0.4202 -0.1578
   97OSM   H16S 9655   1.100   6.081   9.407 -1.5143  0.2800 -2.4105
   97OSM   H16T 9656   1.247   6.188   9.386  0.0466  2.1776 -1.1558
   97OSM   C17S 9657   1.090   6.225   9.244  0.1522 -0.1219  0.3768
   97OSM   H17S 9658   1.105   6.332   9.221 -0.8002  0.2775  1.4803
   97OSM   H17T 9659   0.980   6.206   9.237  0.0371  1.1266 -1.9121
   97OSM   C18S 9660   1.143   6.139   9.125 -0.6140 -0.7977 -0.2285
   97OSM   H18S 9661   1.251   6.160   9.113 -0.5873 -1.4041 -1.2068
   97OSM   H18T 9662   1.086   6.164   9.033  0.5103  3.0667 -0.0601
   97OSM   H18U 9663   1.139   6.030   9.149 -1.8477 -0.8916 -0.7757
   97OSM    C1F 9664   0.644   6.924  10.630  0.5745  0.1868  0.0758
   97OSM     OF 9665   0.737   6.998  10.662 -0.1319 -0.0589  0.2720
   97OSM    C2F 9666   0.528   6.966  10.539  0.3921 -0.0196  0.3219
   97OSM    H2F 9667   0.436   6.992  10.595  0.4737  0.1782  0.3646
   97OSM    H2G 9668   0.499   6.875  10.483 -1.9933  0.1509  1.1574
   97OSM    C3F 9669   0.570   7.076  10.443 -0.3340 -0.2832  0.3997
   97OSM    H3F 9670   0.655   7.050  10.375 -2.8587 -4.7024 -1.4359
   97OSM    H3G 9671   0.596   7.167  10.502  0.4853 -1.8339  2.5495
   97OSM    C4F 9672   0.455   7.109  10.352 -0.0087 -0.4078 -0.3493
   97OSM    H4F 9673   0.380   7.134  10.430 -1.0931  0.3288 -1.5683
   97OSM    H4G 9674   0.417   7.024  10.292 -2.2067 -0.5471  1.1259
   97OSM    C5F 9675   0.473   7.223  10.254 -0.4485 -0.5190  0.5705
   97OSM    H5F 9676   0.541   7.173  10.182  0.2359  0.1310  0.7573
   97OSM    H5G 9677   0.520   7.316  10.292 -0.1210 -0.6086  0.3849
   97OSM    C6F 9678   0.337   7.267  10.187 -0.5764  0.5645 -0.4132
   97OSM    H6F 9679   0.363   7.345  10.112  2.7123  0.7473  0.7707
   97OSM    H6G 9680   0.283   7.314  10.272  0.9670  1.6570  0.0108
   97OSM    C7F 9681   0.243   7.161  10.123  0.4880  0.1723  0.0453
   97OSM    H7F 9682   0.142   7.204  10.109  0.4421 -0.0574 -0.3477
   97OSM    H7G 9683   0.244   7.067  10.182  0.3594  1.0272  1.4482
   97OSM    C8F 9684   0.301   7.125   9.985 -0.5594  0.3501 -0.3469
   97OSM    H8F 9685   0.408   7.098   9.999 -0.2984  1.3691 -0.2747
   97OSM    H8G 9686   0.301   7.219   9.926  3.3154  0.2319 -0.7924
   97OSM    C9F 9687   0.224   7.010   9.920  0.0560  0.7193  0.9876
   97OSM    H9F 9688   0.234   6.914   9.973 -2.6227 -0.7851 -1.0064
   97OSM   C10F 9689   0.150   7.011   9.803  0.1212  0.7651 -0.7547
   97OSM   H10F 9690   0.110   6.912   9.775  2.0969 -0.3578  0.1725
   97OSM   C11F 9691   0.133   7.128   9.714  0.5145  0.0273 -0.2835
   97OSM   H11F 9692   0.225   7.191   9.709 -1.0933  2.4508 -1.0020
   97OSM   H11G 9693   0.039   7.176   9.746  1.4966  0.3661  2.2870
   97OSM   C12F 9694   0.119   7.054   9.579  0.1603  0.2240  0.2610
   97OSM   H12F 9695   0.073   7.127   9.510  1.6621 -2.7919 -4.4213
   97OSM   H12G 9696   0.044   6.975   9.600  3.0503 -2.0746  3.0140
   97OSM   C13F 9697   0.251   7.008   9.514 -0.2288  0.1840  1.1743
   97OSM   H13F 9698   0.268   6.915   9.572 -1.1308  0.2986  1.6254
   97OSM   H13G 9699   0.322   7.088   9.546  0.0868  0.1115  0.6715
   97OSM   C14F 9700   0.249   6.979   9.357 -0.2513 -0.1509  0.6791
   97OSM   H14F 9701   0.357   6.974   9.332 -0.6633 -0.4597 -1.1316
   97OSM   H14G 9702   0.194   7.064   9.311 -1.2824 -0.4402  1.3494
   97OSM   C15F 9703   0.186   6.844   9.320  0.1991  0.2023  0.0956
   97OSM   H15F 9704   0.075   6.842   9.320  0.1660  0.3089 -1.9388
   97OSM   H15G 9705   0.214   6.777   9.404  0.1759  1.3283  1.0392
   97OSM   C16F 9706   0.231   6.792   9.179 -0.7678 -0.3190  0.1334
   97OSM   H16F 9707   0.202   6.687   9.159  0.6313 -0.5065 -1.0861
   97OSM   H16G 9708   0.340   6.794   9.159 -0.5614 -0.9028  1.1173
   97OSM   C17F 9709   0.162   6.867   9.063  0.6008 -0.3589 -0.9013
   97OSM   H17F 9710   0.206   6.969   9.063  1.4371 -0.6039  2.4710
   97OSM   H17G 9711   0.056   6.869   9.097  0.7539  1.1338 -0.4192
   97OSM   C18F 9712   0.163   6.796   8.925 -0.1913  0.0161 -0.0085
   97OSM   H18F 9713   0.252   6.736   8.899 -2.0411 -2.4447 -1.0940
   97OSM   H18G 9714   0.162   6.883   8.855  1.4453  2.4680  2.8047
   97OSM   H18H 9715   0.076   6.726   8.924  0.9420 -1.4458  0.2019
   98OSM      N 9716   6.643   6.785  11.068  0.4674 -0.5086  0.3236
   98OSM    C15 9717   6.786   6.840  11.037  0.4185 -0.4646 -0.0795
   98OSM   H15A 9718   6.783   6.915  10.959  1.3396 -0.8574 -0.5108
   98OSM   H15B 9719   6.851   6.758  11.011  0.0925  0.1285 -3.2809
   98OSM   H15C 9720   6.830   6.882  11.126 -0.9062 -1.3472  1.0240
   98OSM    C14 9721   6.652   6.692  11.185  0.5227 -0.1415  0.0493
   98OSM   H14A 9722   6.570   6.621  11.183  0.9503 -0.6585  0.3770
   98OSM   H14B 9723   6.643   6.736  11.283 -1.0750 -2.1560  0.8774
   98OSM   H14C 9724   6.745   6.637  11.179  1.2019  0.9972 -0.0553
   98OSM    C13 9725   6.549   6.899  11.083 -0.1477 -0.0640 -0.5267
   98OSM   H13A 9726   6.566   6.963  10.999  3.0640 -1.4601 -1.0804
   98OSM   H13B 9727   6.558   6.956  11.175 -1.4455 -0.9238  0.1781
   98OSM   H13C 9728   6.452   6.851  11.072  0.5799 -1.4712 -1.0460
   98OSM    C12 9729   6.602   6.719  10.942 -0.1644  0.2781 -0.0285
   98OSM   H12A 9730   6.672   6.642  10.912 -1.1630 -0.1332 -1.3989
   98OSM   H12B 9731   6.599   6.793  10.864  2.5154  1.3275  0.7296
   98OSM    C11 9732   6.460   6.653  10.937  0.1299 -0.4764 -0.7524
   98OSM   H11A 9733   6.476   6.577  11.016  0.2586  0.3962  0.0779
   98OSM   H11B 9734   6.432   6.596  10.846 -2.7575 -0.4236 -0.0123
   98OSM      P 9735   6.281   6.845  10.875 -0.0152  0.2748  0.0216
   98OSM    O13 9736   6.137   6.820  10.874  0.1140  0.0461 -0.2531
   98OSM    O14 9737   6.329   6.978  10.917  0.6457 -0.2216  0.1680
   98OSM    O11 9738   6.342   6.791  10.734  0.3837  0.4672 -0.0331
   98OSM    O12 9739   6.341   6.737  10.979  0.1997  0.3372 -0.1788
   98OSM    C1S 9740   6.343   6.883  10.623  0.2684  0.5576 -0.1718
   98OSM    H1S 9741   6.419   6.961  10.648 -1.6386  2.4449  0.0290
   98OSM    H1T 9742   6.247   6.938  10.618  1.5491  2.8210 -2.1684
   98OSM     NF 9743   6.375   6.934  10.386 -0.7276  0.2191 -0.2214
   98OSM    HNF 9744   6.297   6.939  10.325 -0.8255 -0.9429 -0.2001
   98OSM    C2S 9745   6.372   6.823  10.480  0.2990 -0.2835  0.7909
   98OSM    H2S 9746   6.473   6.777  10.485  0.4172 -0.5676 -2.2453
   98OSM    C3S 9747   6.263   6.720  10.454  0.1750  0.5603 -0.0306
   98OSM    H3S 9748   6.164   6.768  10.463 -0.0129  0.7871 -2.5755
   98OSM     O3 9749   6.245   6.618  10.556 -0.0529  0.0303  0.4795
   98OSM    HO3 9750   6.302   6.640  10.631 -0.6438  0.9935  0.6596
   98OSM    C4S 9751   6.285   6.655  10.323 -0.1992 -0.2701 -0.2450
   98OSM    H4S 9752   6.271   6.729  10.243 -0.2917 -1.6157 -1.5008
   98OSM    C5S 9753   6.353   6.543  10.288  0.7747 -0.0729 -0.4340
   98OSM    H5S 9754   6.396   6.483  10.369  0.7711 -1.4828 -1.4573
   98OSM    C6S 9755   6.365   6.492  10.146 -0.0727  0.3242  0.2197
   98OSM    H6S 9756   6.282   6.425  10.115 -1.3681  1.8178  0.3845
   98OSM    H6T 9757   6.446   6.416  10.152 -1.5419 -1.2602  1.2727
   98OSM    C7S 9758   6.396   6.602  10.036 -0.4015  0.4491 -0.4888
   98OSM    H7S 9759   6.491   6.653  10.063 -1.1168  1.1585  0.7352
   98OSM    H7T 9760   6.308   6.668  10.021  0.0742  0.7814 -2.0685
   98OSM    C8S 9761   6.435   6.537   9.906 -0.3880 -0.2665  0.0415
   98OSM    H8S 9762   6.350   6.467   9.890 -1.2371  0.7424  0.0360
   98OSM    H8T 9763   6.531   6.482   9.913 -0.8260 -1.0426  0.0835
   98OSM    C9S 9764   6.441   6.633   9.779  0.4773  0.4194 -0.1909
   98OSM    H9S 9765   6.478   6.729   9.819  1.0170 -0.7846  2.3661
   98OSM    H9T 9766   6.337   6.651   9.744 -1.0537 -0.4865  3.4289
   98OSM   C10S 9767   6.528   6.588   9.661 -0.0457 -0.2015 -0.1522
   98OSM   H10S 9768   6.460   6.522   9.601 -0.0072 -1.9242  1.6135
   98OSM   H10T 9769   6.604   6.525   9.711 -0.0037 -0.2693 -0.2998
   98OSM   C11S 9770   6.604   6.705   9.587  0.0528  0.0951  0.7792
   98OSM   H11S 9771   6.613   6.787   9.661 -0.5002  1.3754 -0.5355
   98OSM   H11T 9772   6.538   6.742   9.507  1.6885 -0.4626 -0.9051
   98OSM   C12S 9773   6.724   6.653   9.509  0.1718 -0.1559 -0.4406
   98OSM   H12S 9774   6.768   6.571   9.569 -1.7017 -0.6769  0.3090
   98OSM   H12T 9775   6.811   6.720   9.495  1.8599 -1.8098  1.5517
   98OSM   C13S 9776   6.679   6.589   9.372  0.0997  0.2523 -0.6082
   98OSM   H13S 9777   6.610   6.505   9.396 -0.2761  1.0044  1.1218
   98OSM   H13T 9778   6.772   6.540   9.337  0.6104  0.2535  0.7069
   98OSM   C14S 9779   6.635   6.686   9.265 -0.2817 -0.0413  0.2581
   98OSM   H14S 9780   6.701   6.776   9.261 -1.8684  1.1698 -0.0044
   98OSM   H14T 9781   6.530   6.718   9.280 -0.7925 -2.0778  1.2699
   98OSM   C15S 9782   6.663   6.627   9.123  0.0881  0.1121 -0.0098
   98OSM   H15S 9783   6.766   6.587   9.121  0.1282  0.2124  0.0166
   98OSM   H15T 9784   6.665   6.710   9.049 -0.5218 -0.8006 -1.0804
   98OSM   C16S 9785   6.563   6.521   9.078 -0.0983  1.0187  0.1478
   98OSM   H16S 9786   6.462   6.568   9.083 -1.3951 -1.4751 -0.2906
   98OSM   H16T 9787   6.582   6.439   9.150 -0.1184  1.4486  0.6417
   98OSM   C17S 9788   6.592   6.466   8.934  0.0577 -1.0233 -0.1362
   98OSM   H17S 9789   6.539   6.369   8.919  1.8645 -1.9593 -0.8268
   98OSM   H17T 9790   6.697   6.430   8.922  0.3809 -1.1449  2.3760
   98OSM   C18S 9791   6.558   6.566   8.820 -0.4172  0.6177 -0.0772
   98OSM   H18S 9792   6.456   6.607   8.833 -0.9191 -0.2997 -0.9258
   98OSM   H18T 9793   6.559   6.511   8.723  2.3897 -0.3919  0.4065
   98OSM   H18U 9794   6.636   6.644   8.804  2.5929 -2.1282  0.1984
   98OSM    C1F 9795   6.479   7.013  10.378 -0.6109 -0.2604  0.0146
   98OSM     OF 9796   6.582   6.985  10.444  0.1782 -0.1954 -0.4245
   98OSM    C2F 9797   6.453   7.142  10.301 -0.1437  0.3097 -0.6425
   98OSM    H2F 9798   6.449   7.223  10.377  1.4723  0.2920 -0.5053
   98OSM    H2G 9799   6.351   7.138  10.256 -1.0467 -0.9147  1.3275
   98OSM    C3F 9800   6.573   7.186  10.213  0.7700 -0.6402 -0.4499
   98OSM    H3F 9801   6.671   7.171  10.264  0.3998 -0.3849  0.3523
   98OSM    H3G 9802   6.563   7.293  10.185 -1.9754 -0.6904  0.0855
   98OSM    C4F 9803   6.586   7.097  10.083 -0.2791 -0.2037  0.0412
   98OSM    H4F 9804   6.502   7.024  10.076 -0.2648 -0.0430 -3.0950
   98OSM    H4G 9805   6.675   7.031  10.088 -0.1823 -0.0037  1.2479
   98OSM    C5F 9806   6.580   7.188   9.956 -0.1720  0.0025 -0.6259
   98OSM    H5F 9807   6.665   7.259   9.955 -0.7008  0.6533 -2.3724
   98OSM    H5G 9808   6.488   7.249   9.962 -0.2778  0.3258 -3.6998
   98OSM    C6F 9809   6.566   7.092   9.829  0.5382  0.2377 -0.5790
   98OSM    H6F 9810   6.499   7.005   9.844  1.3091 -0.0135  1.8719
   98OSM    H6G 9811   6.669   7.057   9.806  0.5837  1.5999 -2.6880
   98OSM    C7F 9812   6.511   7.170   9.708  0.1299 -0.1006  0.1371
   98OSM    H7F 9813   6.579   7.257   9.691 -0.1161 -0.4089 -3.3118
   98OSM    H7G 9814   6.405   7.202   9.716  0.8023  2.2503  0.3460
   98OSM    C8F 9815   6.512   7.110   9.566  0.5652  0.3551 -0.4041
   98OSM    H8F 9816   6.420   7.047   9.560  1.5856 -1.1872 -0.5936
   98OSM    H8G 9817   6.600   7.046   9.542  0.2103 -1.1874  2.0836
   98OSM    C9F 9818   6.489   7.208   9.452  0.3964 -0.0596  0.5258
   98OSM    H9F 9819   6.403   7.274   9.473 -0.4370 -1.6735  2.4975
   98OSM   C10F 9820   6.559   7.215   9.334  0.8992  0.6237  0.4319
   98OSM   H10F 9821   6.534   7.295   9.263  0.9001  0.0934 -0.1735
   98OSM   C11F 9822   6.674   7.141   9.276  0.3914  0.3639 -0.4677
   98OSM   H11F 9823   6.713   7.059   9.340 -0.8906  0.4312  0.4276
   98OSM   H11G 9824   6.756   7.214   9.258  2.2680 -1.4364  0.4340
   98OSM   C12F 9825   6.636   7.075   9.138 -0.5422 -0.0343  0.0353
   98OSM   H12F 9826   6.564   6.993   9.158 -0.1657  0.1786  2.6239
   98OSM   H12G 9827   6.731   7.033   9.098  0.3261  1.3638  0.5746
   98OSM   C13F 9828   6.595   7.176   9.036 -0.3593 -0.2003  0.4440
   98OSM   H13F 9829   6.674   7.254   9.034  1.2281 -1.7245 -2.1693
   98OSM   H13G 9830   6.495   7.217   9.063 -1.2308 -0.2500 -2.3976
   98OSM   C14F 9831   6.581   7.127   8.888  0.2812 -0.3292 -0.1538
   98OSM   H14F 9832   6.495   7.056   8.894 -1.5821  1.7966 -0.0962
   98OSM   H14G 9833   6.677   7.075   8.870  0.8129  0.7875 -0.6326
   98OSM   C15F 9834   6.552   7.228   8.776  0.6072  0.5200 -0.0301
   98OSM   H15F 9835   6.623   7.312   8.786  1.0645  0.0145  1.1494
   98OSM   H15G 9836   6.450   7.270   8.791 -0.4615 -2.1759  0.9434
   98OSM   C16F 9837   6.556   7.162   8.636 -0.6802 -0.9768 -0.4548
   98OSM   H16F 9838   6.505   7.064   8.637 -0.4791 -1.1557  2.5126
   98OSM   H16G 9839   6.665   7.162   8.616 -0.2322  1.2286  1.4355
   98OSM   C17F 9840   6.485   7.260   8.537 -0.7410  1.2909  0.3571
   98OSM   H17F 9841   6.518   7.364   8.553  0.0066  1.7217 -3.3195
   98OSM   H17G 9842   6.374   7.256   8.547 -0.9570  0.3047 -1.8864
   98OSM   C18F 9843   6.519   7.238   8.393  0.1792  0.4237 -0.7796
   98OSM   H18F 9844   6.451   7.291   8.323 -1.8101  0.3567  0.9587
   98OSM   H18G 9845   6.514   7.133   8.359 -1.4968  0.0626  0.4373
   98OSM   H18H 9846   6.622   7.273   8.374  1.1033 -1.8440 -0.1943
   99OSM      N 9847   3.574   1.277  11.109  0.4610  0.1473  0.2497
   99OSM    C15 9848   3.530   1.182  11.223 -0.1269 -0.2394 -0.2640
   99OSM   H15A 9849   3.531   1.237  11.316 -1.1161  1.5442 -1.2685
   99OSM   H15B 9850   3.607   1.107  11.239  0.8598  1.0708  1.4034
   99OSM   H15C 9851   3.434   1.132  11.219  0.3407 -1.1195 -0.8098
   99OSM    C14 9852   3.482   1.397  11.102  0.1740  0.2168  0.4829
   99OSM   H14A 9853   3.505   1.467  11.180  1.3536 -1.6574  1.9124
   99OSM   H14B 9854   3.377   1.370  11.098  0.4237 -0.7874 -3.0938
   99OSM   H14C 9855   3.500   1.447  11.008 -1.3529 -2.0066 -1.0849
   99OSM    C13 9856   3.708   1.336  11.135 -0.0623  0.2465 -0.3585
   99OSM   H13A 9857   3.706   1.415  11.208 -1.7020  0.3702 -0.4962
   99OSM   H13B 9858   3.747   1.374  11.041 -1.7101 -1.1341 -1.6691
   99OSM   H13C 9859   3.777   1.256  11.159 -0.2122 -0.2211 -1.4401
   99OSM    C12 9860   3.574   1.205  10.974  0.0336 -0.2946  0.2464
   99OSM   H12A 9861   3.474   1.167  10.960  0.2892 -0.5893 -0.9171
   99OSM   H12B 9862   3.645   1.124  10.981 -0.1934 -0.4580  0.7081
   99OSM    C11 9863   3.624   1.289  10.846  0.1462  0.2068  0.2525
   99OSM   H11A 9864   3.568   1.384  10.836 -0.7568 -0.3072  0.3297
   99OSM   H11B 9865   3.584   1.242  10.754 -0.3974 -0.6610  0.9130
   99OSM      P 9866   3.846   1.187  10.799  0.4142 -0.3707 -0.1291
   99OSM    O13 9867   3.989   1.226  10.795  0.1509  0.1913 -0.3501
   99OSM    O14 9868   3.811   1.064  10.876 -0.4313 -0.3906 -0.0047
   99OSM    O11 9869   3.797   1.161  10.655  0.3434 -0.3856  0.0462
   99OSM    O12 9870   3.767   1.313  10.850  0.0851  0.3858 -0.0297
   99OSM    C1S 9871   3.800   1.266  10.555 -0.2349 -0.4616  0.8426
   99OSM    H1S 9872   3.889   1.332  10.569 -1.5220  2.1476 -2.0406
   99OSM    H1T 9873   3.713   1.336  10.564  0.2526  0.0243  2.0018
   99OSM     NF 9874   3.825   1.294  10.299 -0.0675  0.3621  0.5551
   99OSM    HNF 9875   3.739   1.329  10.263 -1.0948 -1.5099  1.0634
   99OSM    C2S 9876   3.805   1.203  10.411 -0.1699 -0.3067  0.7698
   99OSM    H2S 9877   3.893   1.135  10.405 -0.1510 -0.4058  1.9257
   99OSM    C3S 9878   3.672   1.120  10.392  0.5153  1.0405  0.4091
   99OSM    H3S 9879   3.589   1.185  10.357 -0.0174 -0.6061 -1.5445
   99OSM     O3 9880   3.612   1.046  10.502  0.5508 -0.5982  0.1612
   99OSM    HO3 9881   3.664   1.057  10.582  1.1943 -1.3656 -0.1376
   99OSM    C4S 9882   3.684   1.028  10.268  0.4264 -0.2254  0.3066
   99OSM    H4S 9883   3.718   0.923  10.275 -0.0668 -0.4321 -0.3896
   99OSM    C5S 9884   3.644   1.060  10.142  0.3763  0.7799  1.1763
   99OSM    H5S 9885   3.583   1.149  10.121  3.1845  3.1618  2.2686
   99OSM    C6S 9886   3.661   0.973  10.022 -0.1884  0.2933 -0.4843
   99OSM    H6S 9887   3.559   0.944   9.989 -0.2869 -1.3481  1.0867
   99OSM    H6T 9888   3.719   0.882  10.050  1.4490  1.3046 -0.4622
   99OSM    C7S 9889   3.730   1.040   9.904 -0.0495  0.2481  0.4011
   99OSM    H7S 9890   3.733   0.975   9.814  1.7527  0.1343  0.5097
   99OSM    H7T 9891   3.835   1.054   9.937  1.1249 -3.5202 -1.2682
   99OSM    C8S 9892   3.663   1.175   9.857 -0.2294  0.0934  0.0894
   99OSM    H8S 9893   3.715   1.204   9.764 -0.1865 -0.2737 -0.0017
   99OSM    H8T 9894   3.677   1.261   9.926  0.6073 -0.4821  0.6612
   99OSM    C9S 9895   3.513   1.181   9.831  0.6084  0.5844 -0.3436
   99OSM    H9S 9896   3.488   1.285   9.802  0.8122  1.9712  3.8248
   99OSM    H9T 9897   3.465   1.170   9.930  1.4951 -0.3048  0.0022
   99OSM   C10S 9898   3.461   1.077   9.730 -0.1803  0.5294 -0.8479
   99OSM   H10S 9899   3.482   0.984   9.787 -1.3879  1.0974  0.5673
   99OSM   H10T 9900   3.521   1.089   9.637  0.0097 -0.3425 -0.8413
   99OSM   C11S 9901   3.314   1.084   9.709  0.1305  0.3140  0.3949
   99OSM   H11S 9902   3.266   1.076   9.809 -0.2770  0.9290  0.2540
   99OSM   H11T 9903   3.278   0.996   9.652 -1.9863  1.0584  0.4741
   99OSM   C12S 9904   3.268   1.211   9.631  0.3648  0.3371 -0.4185
   99OSM   H12S 9905   3.157   1.217   9.639  0.2967  0.4988 -1.3895
   99OSM   H12T 9906   3.307   1.303   9.679  2.6924 -0.1068 -1.3238
   99OSM   C13S 9907   3.296   1.219   9.474 -0.1331  0.0319 -0.0005
   99OSM   H13S 9908   3.354   1.130   9.441  1.9277  1.4251 -0.2933
   99OSM   H13T 9909   3.365   1.306   9.471  1.0890 -0.8556  0.9219
   99OSM   C14S 9910   3.176   1.239   9.372  0.4046 -0.0827 -0.0774
   99OSM   H14S 9911   3.121   1.327   9.410 -0.2294 -0.9175  0.9988
   99OSM   H14T 9912   3.113   1.148   9.379 -0.3553  0.4826  0.5161
   99OSM   C15S 9913   3.217   1.269   9.226  0.1008  0.8543 -0.5072
   99OSM   H15S 9914   3.264   1.182   9.176 -1.7910 -0.0992 -0.7091
   99OSM   H15T 9915   3.288   1.354   9.222  2.2451 -0.8209 -0.1185
   99OSM   C16S 9916   3.089   1.316   9.155 -0.9766  0.0482 -0.3870
   99OSM   H16S 9917   3.045   1.407   9.199  1.9714  1.7482 -0.6750
   99OSM   H16T 9918   3.016   1.235   9.173 -1.3134  0.7754  1.7397
   99OSM   C17S 9919   3.123   1.338   9.008 -0.6987  0.6504 -0.6113
   99OSM   H17S 9920   3.187   1.253   8.976 -1.9630 -0.8298  0.6309
   99OSM   H17T 9921   3.171   1.437   8.999 -0.6548  0.7155  0.3061
   99OSM   C18S 9922   2.994   1.335   8.937  0.7792 -0.3015  0.0702
   99OSM   H18S 9923   3.012   1.361   8.830  0.0762  1.3826  0.3300
   99OSM   H18T 9924   2.928   1.412   8.983  1.7986 -0.3646  1.7289
   99OSM   H18U 9925   2.945   1.236   8.938  2.9288 -1.4119  1.6011
   99OSM    C1F 9926   3.934   1.365  10.293 -0.2570 -0.3729 -0.3905
   99OSM     OF 9927   4.026   1.358  10.378  0.0397  0.1186 -0.3357
   99OSM    C2F 9928   3.948   1.452  10.177 -0.1582  0.4239  0.5963
   99OSM    H2F 9929   4.004   1.545  10.203  0.5575 -0.0420  0.7320
   99OSM    H2G 9930   3.849   1.480  10.136 -0.1445 -0.4606 -0.0663
   99OSM    C3F 9931   4.036   1.398  10.062 -0.2337  0.3623  0.1468
   99OSM    H3F 9932   4.004   1.440   9.964  2.4414 -0.6509 -1.2706
   99OSM    H3G 9933   4.146   1.403  10.078  0.1274 -1.1149 -1.5814
   99OSM    C4F 9934   4.012   1.249  10.037 -0.4376 -0.0110 -0.4381
   99OSM    H4F 9935   3.904   1.225  10.041 -0.9081  2.0183  0.8015
   99OSM    H4G 9936   4.048   1.203  10.132  1.3493 -0.4469 -1.2813
   99OSM    C5F 9937   4.093   1.189   9.924  0.3508 -0.0521  0.3509
   99OSM    H5F 9938   4.102   1.082   9.954 -0.2101  0.4209  2.3608
   99OSM    H5G 9939   4.200   1.220   9.932  0.5891 -1.1018  1.6985
   99OSM    C6F 9940   4.052   1.230   9.780  0.5000 -0.0034 -0.0861
   99OSM    H6F 9941   4.049   1.341   9.775 -2.1151  0.0120  0.1558
   99OSM    H6G 9942   3.949   1.187   9.772 -0.3502  1.6574  1.2028
   99OSM    C7F 9943   4.143   1.181   9.665 -0.3250  0.8213 -0.0974
   99OSM    H7F 9944   4.169   1.074   9.677  2.2898  1.1895 -1.8826
   99OSM    H7G 9945   4.242   1.228   9.684  0.1071 -0.4764  1.1062
   99OSM    C8F 9946   4.081   1.207   9.524  0.4588 -0.4595  0.7811
   99OSM    H8F 9947   4.165   1.190   9.453  1.0820 -0.0771  1.4210
   99OSM    H8G 9948   4.052   1.312   9.505 -0.4093 -1.0906 -1.8660
   99OSM    C9F 9949   3.970   1.106   9.487 -0.3743  0.7133 -0.6097
   99OSM    H9F 9950   4.005   1.002   9.494  1.1087  1.2015 -0.3059
   99OSM   C10F 9951   3.841   1.132   9.476 -1.0879 -0.4249 -0.0965
   99OSM   H10F 9952   3.777   1.050   9.440  0.0460 -0.5102 -2.0856
   99OSM   C11F 9953   3.771   1.262   9.490 -0.0432 -0.5130 -0.2864
   99OSM   H11F 9954   3.835   1.348   9.516 -0.0954 -0.9818  1.5322
   99OSM   H11G 9955   3.699   1.256   9.575  1.4486  2.2160  1.3090
   99OSM   C12F 9956   3.692   1.292   9.367 -0.0924 -0.6980 -0.7295
   99OSM   H12F 9957   3.642   1.391   9.373 -1.3994 -1.4079  1.1272
   99OSM   H12G 9958   3.607   1.223   9.349 -0.7540 -0.3392  0.8975
   99OSM   C13F 9959   3.772   1.277   9.236  0.6623  0.2842  0.2941
   99OSM   H13F 9960   3.793   1.169   9.226  2.9584  0.1553  4.5085
   99OSM   H13G 9961   3.870   1.326   9.255  0.4792 -0.1772  2.8594
   99OSM   C14F 9962   3.708   1.354   9.123 -0.1511  0.1058  0.0483
   99OSM   H14F 9963   3.695   1.456   9.166  1.6159  1.4862 -2.4697
   99OSM   H14G 9964   3.613   1.308   9.090 -0.0376 -0.8166  0.9588
   99OSM   C15F 9965   3.797   1.367   9.004  0.1210 -0.2400  0.4092
   99OSM   H15F 9966   3.819   1.266   8.963 -4.5867 -0.8462 -1.1740
   99OSM   H15G 9967   3.892   1.409   9.044  2.0097 -1.1820 -2.7541
   99OSM   C16F 9968   3.756   1.472   8.884  0.7882  0.4977 -0.0063
   99OSM   H16F 9969   3.722   1.564   8.937  1.0060 -0.0123  1.0456
   99OSM   H16G 9970   3.669   1.427   8.832  1.0212 -0.4277  0.3796
   99OSM   C17F 9971   3.868   1.505   8.788 -0.9164 -0.2803  0.1867
   99OSM   H17F 9972   3.868   1.415   8.723 -0.1347  0.0337 -0.2640
   99OSM   H17G 9973   3.958   1.501   8.853 -0.5131  0.7861 -0.2903
   99OSM   C18F 9974   3.849   1.639   8.714 -0.2057  0.0512  0.2485
   99OSM   H18F 9975   3.937   1.652   8.648 -1.3630 -0.1645 -1.3743
   99OSM   H18G 9976   3.836   1.726   8.781 -0.2661  1.1469 -1.1650
   99OSM   H18H 9977   3.757   1.646   8.654 -0.7902 -1.2796  0.9312
  100OSM      N 9978   5.306   2.371  10.801 -0.3266  0.5182 -0.6120
  100OSM    C15 9979   5.363   2.493  10.731 -0.1007 -0.0986 -0.8219
  100OSM   H15A 9980   5.326   2.520  10.634 -0.4366  1.4675 -0.2799
  100OSM   H15B 9981   5.471   2.492  10.723 -0.1349 -1.1667 -1.2623
  100OSM   H15C 9982   5.352   2.579  10.795  0.5988 -0.4197 -0.2456
  100OSM    C14 9983   5.366   2.255  10.737  0.3020 -0.6510  0.1945
  100OSM   H14A 9984   5.396   2.280  10.637 -1.0037  1.7316  0.3294
  100OSM   H14B 9985   5.294   2.174  10.737 -1.4009  0.7998  0.4190
  100OSM   H14C 9986   5.460   2.229  10.783  0.9130 -0.4725 -0.9394
  100OSM    C13 9987   5.346   2.376  10.945  0.1754 -0.2129 -0.4435
  100OSM   H13A 9988   5.451   2.400  10.943  0.2655 -0.5515 -2.6355
  100OSM   H13B 9989   5.330   2.277  10.984  1.7626 -1.2230 -2.1913
  100OSM   H13C 9990   5.288   2.452  10.995  1.2503  0.4746 -0.2178
  100OSM    C12 9991   5.159   2.363  10.786 -0.2256  0.0657 -0.4157
  100OSM   H12A 9992   5.135   2.341  10.683 -1.1953  0.3733 -0.2712
  100OSM   H12B 9993   5.113   2.461  10.788 -0.3148  0.0112  0.5280
  100OSM    C11 9994   5.079   2.269  10.880  0.5430 -0.5339  0.5688
  100OSM   H11A 9995   4.970   2.291  10.872  0.4910 -0.0747  2.1356
  100OSM   H11B 9996   5.089   2.292  10.989 -0.1410  0.0406  0.5184
  100OSM      P 9997   5.036   2.023  10.780 -0.0859 -0.0058  0.1828
  100OSM    O13 9998   5.112   1.896  10.800 -0.2595 -0.1471 -0.0555
  100OSM    O14 9999   4.892   2.016  10.799  0.0277 -0.2062  0.0341
  100OSM    O1110000   5.057   2.074  10.635 -0.4267 -0.0827  0.2865
  100OSM    O1210001   5.111   2.131  10.870 -0.2449  0.3595 -0.5273
  100OSM    C1S10002   5.102   1.980  10.541  1.2759  0.2408  0.7550
  100OSM    H1S10003   5.047   1.884  10.546  1.1607  0.2807  0.2912
  100OSM    H1T10004   5.211   1.962  10.534  0.8708 -1.7401 -2.7128
  100OSM     NF10005   5.069   1.916  10.292  0.0241 -0.0459 -0.1686
  100OSM    HNF10006   5.150   1.919  10.233  2.0280  1.8827  2.4284
  100OSM    C2S10007   5.063   2.026  10.392  0.7869  0.5228  0.4593
  100OSM    H2S10008   4.957   2.057  10.391  0.0076 -1.7793 -2.1766
  100OSM    C3S10009   5.146   2.155  10.367  0.3884  0.2558 -0.7708
  100OSM    H3S10010   5.252   2.123  10.372  0.4289  0.5869  2.1911
  100OSM     O310011   5.137   2.262  10.465  0.3050  0.3383 -0.4955
  100OSM    HO310012   5.087   2.219  10.535  1.6087  1.6173  1.3143
  100OSM    C4S10013   5.106   2.207  10.227 -0.8036 -0.3168  0.2798
  100OSM    H4S10014   5.186   2.180  10.156 -0.2249  1.6266  0.1083
  100OSM    C5S10015   5.004   2.281  10.188 -0.5298 -0.4747  0.3829
  100OSM    H5S10016   4.943   2.336  10.262  1.5832  1.3534  0.8689
  100OSM    C6S10017   4.970   2.332  10.047 -0.8109 -0.0229  0.3437
  100OSM    H6S10018   5.008   2.436  10.038  0.9135 -0.4524  1.9665
  100OSM    H6T10019   4.859   2.334  10.039 -0.7840 -1.1489 -0.6844
  100OSM    C7S10020   5.015   2.254   9.920 -0.1138 -0.1592 -0.1790
  100OSM    H7S10021   4.966   2.154   9.927  0.1926 -0.3268 -0.3837
  100OSM    H7T10022   5.125   2.241   9.927  0.1160  0.8543 -1.6320
  100OSM    C8S10023   4.970   2.314   9.784  0.1401 -0.2155 -0.7039
  100OSM    H8S10024   5.024   2.411   9.782  0.5242 -0.4348 -1.0282
  100OSM    H8T10025   4.862   2.341   9.789  0.6695  1.8786  0.0918
  100OSM    C9S10026   5.000   2.219   9.663  0.6970 -0.3000 -0.2141
  100OSM    H9S10027   4.949   2.122   9.681 -1.7240  0.9446 -0.0352
  100OSM    H9T10028   5.109   2.198   9.653  0.3124 -2.3358 -0.4102
  100OSM   C10S10029   4.934   2.283   9.542  0.6965  0.5416  0.3326
  100OSM   H10S10030   4.942   2.394   9.536  0.3045  0.6010  0.8180
  100OSM   H10T10031   4.824   2.264   9.551  0.9370 -0.5202  1.2990
  100OSM   C11S10032   4.971   2.217   9.413  0.4934  0.0589  0.1482
  100OSM   H11S10033   4.938   2.111   9.408 -1.3236  0.6214 -0.7823
  100OSM   H11T10034   5.082   2.213   9.405  0.4664 -2.6161  0.2655
  100OSM   C12S10035   4.901   2.291   9.292  0.0253  0.8786 -0.3764
  100OSM   H12S10036   4.982   2.310   9.218  0.0919  1.6609 -0.1065
  100OSM   H12T10037   4.865   2.392   9.322  1.5648  1.3338  0.0615
  100OSM   C13S10038   4.789   2.213   9.214  0.0386  0.5437 -0.3347
  100OSM   H13S10039   4.690   2.231   9.259 -0.8391 -1.5182 -1.3307
  100OSM   H13T10040   4.808   2.104   9.220 -2.6918  0.0328  0.1080
  100OSM   C14S10041   4.804   2.256   9.070 -0.3845 -0.0528  0.4798
  100OSM   H14S10042   4.902   2.226   9.027 -1.3143 -0.3417 -1.5432
  100OSM   H14T10043   4.798   2.367   9.066 -2.0524 -0.1287  0.3224
  100OSM   C15S10044   4.703   2.199   8.970  0.2075  0.0473 -0.1660
  100OSM   H15S10045   4.602   2.238   8.996 -0.0956 -1.8591  1.8143
  100OSM   H15T10046   4.702   2.088   8.976 -0.3162  0.0835  0.6769
  100OSM   C16S10047   4.732   2.223   8.816 -0.1492 -0.1323  0.1313
  100OSM   H16S10048   4.816   2.154   8.792 -1.2513 -1.2778 -0.5734
  100OSM   H16T10049   4.748   2.332   8.810 -2.6164  0.4574  2.2981
  100OSM   C17S10050   4.620   2.173   8.723 -0.0842 -0.6710  0.7088
  100OSM   H17S10051   4.532   2.234   8.752  0.4164 -0.8257  2.7885
  100OSM   H17T10052   4.580   2.074   8.752 -1.7251 -0.1643  0.3044
  100OSM   C18S10053   4.644   2.199   8.572 -0.4575 -0.0797 -0.3881
  100OSM   H18S10054   4.731   2.142   8.536  0.1173  2.3480 -3.1882
  100OSM   H18T10055   4.654   2.309   8.556 -0.9705 -0.1925 -1.5232
  100OSM   H18U10056   4.551   2.169   8.519 -1.0434  1.1540 -0.1136
  100OSM    C1F10057   4.977   1.818  10.284  1.0382  0.3155  0.3534
  100OSM     OF10058   4.871   1.828  10.348  0.1203 -0.2887 -0.5168
  100OSM    C2F10059   4.991   1.695  10.200 -0.5724 -0.5448  0.3398
  100OSM    H2F10060   4.992   1.608  10.269 -1.1616 -0.2624  0.7129
  100OSM    H2G10061   5.085   1.703  10.142 -0.5019 -0.4204  0.4703
  100OSM    C3F10062   4.870   1.681  10.108  0.2970 -0.3906  0.1805
  100OSM    H3F10063   4.878   1.761  10.032 -1.8416  0.6283  0.9577
  100OSM    H3G10064   4.773   1.687  10.162 -0.2195 -2.6574 -0.4031
  100OSM    C4F10065   4.880   1.545  10.034 -0.4047  0.5452 -0.6689
  100OSM    H4F10066   4.903   1.475  10.118  1.1596  0.9353 -0.7357
  100OSM    H4G10067   4.975   1.547   9.976  0.3918 -2.0176  0.3849
  100OSM    C5F10068   4.764   1.508   9.943 -0.2724  1.0564 -0.4069
  100OSM    H5F10069   4.682   1.482  10.014  2.0006  0.3887  2.1537
  100OSM    H5G10070   4.783   1.411   9.891  0.2591  1.3024 -0.6724
  100OSM    C6F10071   4.720   1.608   9.840  0.2126 -0.2713 -1.1919
  100OSM    H6F10072   4.699   1.707   9.886  0.6128 -0.3573 -0.8104
  100OSM    H6G10073   4.620   1.569   9.810 -0.7045  0.5396  0.6335
  100OSM    C7F10074   4.815   1.611   9.719 -0.4491  0.4150  0.3675
  100OSM    H7F10075   4.913   1.651   9.753 -1.4101  1.7105  1.7755
  100OSM    H7G10076   4.767   1.687   9.654 -0.2864  0.8787  0.7845
  100OSM    C8F10077   4.832   1.482   9.631 -0.7228  0.2636 -0.1017
  100OSM    H8F10078   4.882   1.395   9.679  0.3405 -0.1507 -1.8525
  100OSM    H8G10079   4.907   1.515   9.555 -0.6250 -0.8417 -0.5008
  100OSM    C9F10080   4.701   1.444   9.572 -0.0045 -1.1497  0.9629
  100OSM    H9F10081   4.618   1.420   9.641 -0.2397 -0.9428  0.7524
  100OSM   C10F10082   4.677   1.435   9.439 -0.5984 -0.2198  0.0450
  100OSM   H10F10083   4.571   1.418   9.416 -0.6570  0.9802 -0.6405
  100OSM   C11F10084   4.769   1.457   9.323 -0.2464  0.6399 -0.3512
  100OSM   H11F10085   4.878   1.438   9.338 -0.4238 -1.3715 -1.1986
  100OSM   H11G10086   4.747   1.557   9.281  1.7620  1.7530  1.0547
  100OSM   C12F10087   4.744   1.332   9.224  0.4602 -0.2241 -0.2765
  100OSM   H12F10088   4.638   1.332   9.193  0.2873 -1.0164  0.2779
  100OSM   H12G10089   4.749   1.231   9.271 -1.5075 -0.7827 -1.1611
  100OSM   C13F10090   4.830   1.332   9.098 -1.0922  0.0581 -0.4247
  100OSM   H13F10091   4.939   1.316   9.112 -1.0890  0.7677  0.4424
  100OSM   H13G10092   4.816   1.433   9.055 -3.2157  0.0037  0.0163
  100OSM   C14F10093   4.785   1.224   8.996  0.4748 -0.7554 -0.6972
  100OSM   H14F10094   4.681   1.254   8.967  1.3696  0.9292 -2.3971
  100OSM   H14G10095   4.791   1.119   9.031 -2.2505 -1.2413 -1.4288
  100OSM   C15F10096   4.864   1.232   8.869 -0.7304  0.1611  0.0244
  100OSM   H15F10097   4.963   1.185   8.890 -0.4795  0.8908  0.4947
  100OSM   H15G10098   4.880   1.338   8.842  2.2282  0.1344  1.2960
  100OSM   C16F10099   4.796   1.165   8.755 -0.0481  0.4636  0.7585
  100OSM   H16F10100   4.697   1.216   8.747  0.2491  1.0648  0.9004
  100OSM   H16G10101   4.778   1.057   8.774  2.1467  0.0834  0.8474
  100OSM   C17F10102   4.865   1.179   8.620  0.4941 -0.6752  0.6980
  100OSM   H17F10103   4.966   1.134   8.621  0.7157 -0.1767  1.2517
  100OSM   H17G10104   4.890   1.285   8.600  0.3789 -0.7028  0.3840
  100OSM   C18F10105   4.786   1.144   8.495  0.3562  0.0559 -0.2986
  100OSM   H18F10106   4.826   1.190   8.402  0.7100  0.4658  0.0573
  100OSM   H18G10107   4.676   1.162   8.490 -0.0846 -2.5310 -3.3117
  100OSM   H18H10108   4.774   1.034   8.487  1.2373 -0.1209  0.6719
  101OSM      N10109   0.985   1.132  10.965  0.2723 -0.1751 -0.6030
  101OSM    C1510110   1.122   1.167  11.015 -0.6048 -0.1481 -0.7522
  101OSM   H15A10111   1.115   1.263  11.063 -2.1977 -0.2686 -0.7066
  101OSM   H15B10112   1.191   1.191  10.935 -0.0628  3.5695  0.6192
  101OSM   H15C10113   1.156   1.089  11.082  0.1270  0.2814 -0.6087
  101OSM    C1410114   0.977   0.999  10.910 -0.0882  0.6007  0.1856
  101OSM   H14A10115   0.879   0.982  10.869 -0.2816  0.6125  0.6384
  101OSM   H14B10116   0.989   0.926  10.989 -1.4071 -2.4148 -2.2093
  101OSM   H14C10117   1.052   0.975  10.836  0.3110  0.7421  0.5372
  101OSM    C1310118   0.890   1.139  11.081 -0.3553 -0.1210 -0.4481
  101OSM   H13A10119   0.914   1.226  11.141  0.4735  1.1619 -2.5379
  101OSM   H13B10120   0.874   1.043  11.129 -0.0138  0.0996  0.1210
  101OSM   H13C10121   0.788   1.150  11.048 -0.2105 -1.7647 -1.5656
  101OSM    C1210122   0.931   1.238  10.864  0.1372 -0.1196 -1.1684
  101OSM   H12A10123   0.831   1.202  10.847 -0.0752 -2.2413  3.0868
  101OSM   H12B10124   0.998   1.242  10.780 -0.2414  1.7592 -1.4163
  101OSM    C1110125   0.923   1.387  10.906 -0.4222  0.4452  0.1366
  101OSM   H11A10126   0.879   1.408  11.006 -0.8783  0.0235  0.0230
  101OSM   H11B10127   0.873   1.443  10.824  2.5414  0.5212 -1.7616
  101OSM      P10128   1.136   1.491  10.785  0.1230 -0.3126  0.1860
  101OSM    O1310129   1.059   1.609  10.745 -0.2272 -0.3032  0.3531
  101OSM    O1410130   1.280   1.510  10.829  0.0080  0.0113 -0.2156
  101OSM    O1110131   1.112   1.378  10.673 -0.1406  0.2891 -0.3918
  101OSM    O1210132   1.061   1.432  10.916  0.1047  0.2474  0.0272
  101OSM    C1S10133   1.077   1.413  10.539  0.6560  0.3779  0.5115
  101OSM    H1S10134   1.130   1.505  10.506 -0.2514  1.2552  1.4056
  101OSM    H1T10135   0.966   1.425  10.531  0.8192  1.4529 -0.4120
  101OSM     NF10136   1.089   1.351  10.311  0.0239 -0.0472 -0.1717
  101OSM    HNF10137   0.998   1.331  10.275  0.2264  0.3525 -0.9113
  101OSM    C2S10138   1.113   1.300  10.443  0.1808  0.0055 -0.5891
  101OSM    H2S10139   1.222   1.276  10.448  0.6885  2.2631  0.7866
  101OSM    C3S10140   1.025   1.179  10.488 -0.2759  0.4049 -0.4006
  101OSM    H3S10141   0.923   1.213  10.516  0.1660 -0.7609  3.1108
  101OSM     O310142   1.081   1.106  10.604  0.3281  0.5567 -0.0616
  101OSM    HO310143   1.149   1.163  10.641  0.0694  2.2286 -1.9513
  101OSM    C4S10144   1.013   1.083  10.379  0.0484  0.7538  0.4047
  101OSM    H4S10145   1.105   1.054  10.325 -1.5487  0.1322 -2.1334
  101OSM    C5S10146   0.905   1.051  10.306 -0.1408  0.4277  0.5247
  101OSM    H5S10147   0.813   1.110  10.324 -0.1911  0.2309  0.9341
  101OSM    C6S10148   0.900   0.965  10.184 -0.3038 -0.6408 -0.2146
  101OSM    H6S10149   0.826   0.884  10.201 -0.0536 -0.9998 -0.8216
  101OSM    H6T10150   0.986   0.896  10.171 -1.4063 -1.9650 -0.8193
  101OSM    C7S10151   0.855   1.026  10.049 -0.3568 -0.2691 -0.6617
  101OSM    H7S10152   0.762   1.083  10.069 -0.1189 -0.1102  0.0152
  101OSM    H7T10153   0.834   0.945   9.975  0.1611 -0.1003 -0.9980
  101OSM    C8S10154   0.961   1.130   9.992 -0.6280 -0.1663  0.5631
  101OSM    H8S10155   1.062   1.082   9.994 -0.3564  0.3678  3.1298
  101OSM    H8T10156   0.969   1.213  10.065  1.8731 -0.3429  0.5847
  101OSM    C9S10157   0.924   1.185   9.857 -0.1511  0.1110  0.5077
  101OSM    H9S10158   0.981   1.281   9.857  2.5387 -1.3663  1.7585
  101OSM    H9T10159   0.815   1.207   9.862 -0.2021  0.4830 -1.4165
  101OSM   C10S10160   0.966   1.092   9.738  0.7757 -0.0149 -0.4930
  101OSM   H10S10161   0.920   0.992   9.757 -0.3137  0.2848 -1.4344
  101OSM   H10T10162   1.076   1.076   9.745  0.9366  0.9760 -0.7424
  101OSM   C11S10163   0.923   1.158   9.605  0.0079  0.2733  0.2607
  101OSM   H11S10164   0.947   1.098   9.515 -0.6978 -0.3244  0.4682
  101OSM   H11T10165   0.987   1.249   9.591  0.6116  0.1747  2.1157
  101OSM   C12S10166   0.780   1.198   9.596  0.9654  0.3509  0.4714
  101OSM   H12S10167   0.783   1.277   9.674  0.5368 -0.6922  1.5965
  101OSM   H12T10168   0.706   1.116   9.611  0.3137  1.0521  1.1860
  101OSM   C13S10169   0.741   1.270   9.464 -0.0950  0.1379  0.4086
  101OSM   H13S10170   0.798   1.364   9.449  0.2025 -0.3829 -2.3351
  101OSM   H13T10171   0.634   1.298   9.469  0.2469  2.0719 -1.3915
  101OSM   C14S10172   0.739   1.167   9.348  0.1780 -0.0564  0.4532
  101OSM   H14S10173   0.697   1.068   9.374 -0.6721  0.0150 -0.5642
  101OSM   H14T10174   0.847   1.165   9.325  0.4844 -1.1908  1.8973
  101OSM   C15S10175   0.659   1.222   9.227 -0.5634  0.0584  0.2092
  101OSM   H15S10176   0.556   1.247   9.260 -1.8174 -2.2458 -1.6561
  101OSM   H15T10177   0.660   1.142   9.150 -3.9110  0.7449 -0.6774
  101OSM   C16S10178   0.728   1.344   9.162  0.8924  0.3682 -0.6412
  101OSM   H16S10179   0.818   1.307   9.108  0.5417  1.4086 -2.0155
  101OSM   H16T10180   0.765   1.412   9.241 -1.6488  0.7993  0.2841
  101OSM   C17S10181   0.636   1.426   9.075 -0.4683 -0.6252  0.4751
  101OSM   H17S10182   0.692   1.521   9.060  0.5943 -1.1091  1.2122
  101OSM   H17T10183   0.548   1.469   9.128  0.7738  3.0577 -0.2025
  101OSM   C18S10184   0.590   1.368   8.944  0.0219  0.3132  0.3551
  101OSM   H18S10185   0.662   1.306   8.886  0.7640  0.1617  1.4157
  101OSM   H18T10186   0.546   1.452   8.886  0.7248 -1.1352 -2.4632
  101OSM   H18U10187   0.496   1.308   8.954 -1.0052  1.5473 -1.4126
  101OSM    C1F10188   1.162   1.431  10.238 -0.2593 -0.2025 -0.2024
  101OSM     OF10189   1.271   1.471  10.286  0.7265 -0.3391 -0.2911
  101OSM    C2F10190   1.115   1.460  10.097 -0.4849 -0.6741  0.1697
  101OSM    H2F10191   1.005   1.442  10.098 -1.1078  1.7819 -3.4216
  101OSM    H2G10192   1.154   1.383  10.028  1.2651  1.9484 -2.0132
  101OSM    C3F10193   1.162   1.600  10.036 -0.5677 -0.0743 -0.0069
  101OSM    H3F10194   1.272   1.606  10.049 -0.7126  2.3393  0.5973
  101OSM    H3G10195   1.126   1.685  10.097 -0.1611  1.3582 -1.6985
  101OSM    C4F10196   1.124   1.620   9.885 -0.1329  0.5510 -0.1241
  101OSM    H4F10197   1.183   1.561   9.812 -1.1236 -1.3156  0.5229
  101OSM    H4G10198   1.153   1.726   9.864  3.0516 -0.4328 -1.3934
  101OSM    C5F10199   0.973   1.615   9.865  0.4949  0.1512  0.2519
  101OSM    H5F10200   0.916   1.685   9.929 -1.4462 -0.1468 -1.0668
  101OSM    H5G10201   0.938   1.513   9.890  0.2474  0.1751  0.0045
  101OSM    C6F10202   0.926   1.646   9.724 -0.3040 -0.3459 -1.3338
  101OSM    H6F10203   0.816   1.636   9.729 -0.1172 -2.1938 -0.3034
  101OSM    H6G10204   0.948   1.751   9.693 -0.3998  0.4781  1.1891
  101OSM    C7F10205   0.980   1.549   9.617 -0.0855  0.0227 -0.5169
  101OSM    H7F10206   0.930   1.451   9.633 -2.7565  1.2932 -0.6945
  101OSM    H7G10207   1.090   1.535   9.628 -0.1330  0.8188  1.4271
  101OSM    C8F10208   0.943   1.583   9.466  0.3164  0.1817  0.4169
  101OSM    H8F10209   0.833   1.595   9.460 -0.1751 -1.0728  4.0321
  101OSM    H8G10210   0.980   1.504   9.397 -1.3063 -0.1421 -0.1305
  101OSM    C9F10211   1.020   1.705   9.430  0.1437 -0.2695 -0.3602
  101OSM    H9F10212   1.130   1.699   9.437  0.2102  1.8486  1.7235
  101OSM   C10F10213   0.965   1.823   9.399  0.0278 -0.1929 -0.2306
  101OSM   H10F10214   1.034   1.905   9.375  1.2734 -1.4901 -1.2961
  101OSM   C11F10215   0.823   1.860   9.393  0.7722  0.9023  0.6148
  101OSM   H11F10216   0.770   1.915   9.474 -0.7377 -2.1659  1.8736
  101OSM   H11G10217   0.760   1.771   9.373  0.5717  0.7785  1.7337
  101OSM   C12F10218   0.817   1.972   9.289 -0.3108  0.2602  0.2235
  101OSM   H12F10219   0.880   2.057   9.323  0.5135 -0.4740  0.5732
  101OSM   H12G10220   0.713   2.011   9.286 -0.5529 -0.4124 -0.2202
  101OSM   C13F10221   0.847   1.935   9.141 -0.7356  0.7968 -0.0481
  101OSM   H13F10222   0.942   1.878   9.131 -0.2909  1.7953 -2.2343
  101OSM   H13G10223   0.855   2.026   9.077  0.7369 -1.7535 -3.8699
  101OSM   C14F10224   0.727   1.864   9.090  0.0635 -0.3553  0.6159
  101OSM   H14F10225   0.639   1.931   9.076  0.4017 -0.0549 -0.1052
  101OSM   H14G10226   0.708   1.782   9.163  0.7088 -0.2480  0.9080
  101OSM   C15F10227   0.763   1.792   8.956  0.0158  0.1446 -0.0801
  101OSM   H15F10228   0.677   1.730   8.924  0.3436 -0.8407  0.8902
  101OSM   H15G10229   0.845   1.719   8.970 -0.9003 -0.5495  2.0511
  101OSM   C16F10230   0.801   1.897   8.845  0.3294 -0.3991 -0.7266
  101OSM   H16F10231   0.888   1.962   8.867  0.1311  0.1125 -1.4096
  101OSM   H16G10232   0.719   1.972   8.842  0.7477  0.1353  0.6652
  101OSM   C17F10233   0.818   1.845   8.702 -0.6069  0.5050 -0.4741
  101OSM   H17F10234   0.720   1.798   8.678 -0.6812  0.6375 -0.4312
  101OSM   H17G10235   0.890   1.761   8.708 -0.4028  0.7540  0.6973
  101OSM   C18F10236   0.849   1.952   8.600 -0.2462 -0.4370 -0.1745
  101OSM   H18F10237   0.838   1.917   8.495 -1.9700  0.7245 -0.4152
  101OSM   H18G10238   0.951   1.990   8.620 -0.0869 -0.6371 -0.5937
  101OSM   H18H10239   0.771   2.031   8.601 -1.3595 -1.5008 -0.0695
  102OSM      N10240   4.003   4.051  10.566 -0.3214  0.2672  0.4101
  102OSM    C1510241   3.998   4.118  10.426  0.3476  0.8320  0.5207
  102OSM   H15A10242   4.021   4.044  10.351 -0.2829  2.1927 -1.1118
  102OSM   H15B10243   4.072   4.197  10.427 -1.1649  2.3198  2.0050
  102OSM   H15C10244   3.899   4.157  10.405  0.9069  1.9822 -0.1283
  102OSM    C1410245   4.145   4.027  10.596 -0.2301 -0.0419 -0.6982
  102OSM   H14A10246   4.187   4.126  10.583 -1.4355  0.3270 -2.1298
  102OSM   H14B10247   4.201   3.976  10.519  1.1240 -2.2255  1.5861
  102OSM   H14C10248   4.160   3.978  10.691 -3.2442 -0.1233 -0.1763
  102OSM    C1310249   3.964   4.159  10.654  0.4330 -0.0569 -0.8407
  102OSM   H13A10250   4.026   4.246  10.637  0.6247  0.1830  0.8949
  102OSM   H13B10251   3.981   4.125  10.755 -1.9620 -0.2068 -0.4334
  102OSM   H13C10252   3.859   4.171  10.632 -0.1168 -1.3536  0.8568
  102OSM    C1210253   3.919   3.930  10.576  0.1037 -0.0302 -0.3583
  102OSM   H12A10254   3.944   3.878  10.667  2.2232  0.5865 -0.5261
  102OSM   H12B10255   3.966   3.861  10.507  2.7276 -0.4004  1.6267
  102OSM    C1110256   3.770   3.961  10.568 -0.2977 -0.2776 -0.1667
  102OSM   H11A10257   3.717   3.866  10.546 -1.0510  0.2062 -0.4963
  102OSM   H11B10258   3.746   4.022  10.478  1.4124  0.0958 -0.4103
  102OSM      P10259   3.722   3.943  10.821 -0.3824  0.1327 -0.4649
  102OSM    O1310260   3.844   3.871  10.845 -0.4892  0.4548  0.5699
  102OSM    O1410261   3.673   4.035  10.927  0.3528  0.0572 -0.0086
  102OSM    O1110262   3.608   3.837  10.790  0.4706  0.0491  0.2615
  102OSM    O1210263   3.728   4.024  10.691 -0.0060 -0.0797  0.3491
  102OSM    C1S10264   3.491   3.865  10.712  0.0140  0.3309  0.0432
  102OSM    H1S10265   3.511   3.930  10.624  0.1736  1.7078  1.0644
  102OSM    H1T10266   3.428   3.937  10.770 -1.7718 -1.6361  0.6726
  102OSM     NF10267   3.279   3.782  10.622  1.2339  0.4524  0.2227
  102OSM    HNF10268   3.195   3.773  10.675  0.8236  0.1173 -0.4625
  102OSM    C2S10269   3.404   3.739  10.684 -0.7331  0.9887 -0.2331
  102OSM    H2S10270   3.455   3.674  10.610  0.4739 -0.6527  1.9397
  102OSM    C3S10271   3.384   3.657  10.824 -0.3981 -0.2891  0.3244
  102OSM    H3S10272   3.322   3.712  10.899 -2.1627 -0.9126 -0.6343
  102OSM     O310273   3.500   3.626  10.900 -0.2236 -0.0855 -0.3288
  102OSM    HO310274   3.564   3.691  10.871  1.9654 -1.7878  0.4491
  102OSM    C4S10275   3.307   3.524  10.792 -0.5442 -0.4830 -0.3852
  102OSM    H4S10276   3.363   3.448  10.734  0.3851 -0.5802  0.6040
  102OSM    C5S10277   3.191   3.489  10.833  0.4052  0.4556  0.0735
  102OSM    H5S10278   3.123   3.547  10.897 -0.9611  0.3754 -1.2681
  102OSM    C6S10279   3.125   3.359  10.781 -0.5597 -0.0624 -0.3691
  102OSM    H6S10280   3.110   3.283  10.860 -1.3071  1.8169  1.3860
  102OSM    H6T10281   3.194   3.305  10.712 -0.6047 -0.0916 -0.3912
  102OSM    C7S10282   2.994   3.366  10.705  0.9931  0.4568  0.0150
  102OSM    H7S10283   2.998   3.428  10.613  0.0561  0.1521 -0.2343
  102OSM    H7T10284   2.923   3.402  10.783 -1.1650 -2.4249 -0.4623
  102OSM    C8S10285   2.947   3.227  10.655 -0.3879 -0.0677 -0.4433
  102OSM    H8S10286   2.856   3.238  10.593  0.2664 -3.3897 -2.2269
  102OSM    H8T10287   2.916   3.156  10.735  2.1614 -2.3205 -1.2586
  102OSM    C9S10288   3.051   3.156  10.569  0.6675 -0.1035  0.8384
  102OSM    H9S10289   3.128   3.102  10.628  0.6710 -0.1308  0.8089
  102OSM    H9T10290   3.106   3.232  10.508 -1.2786  1.6958  1.2070
  102OSM   C10S10291   2.987   3.056  10.465  0.0353 -0.7869  0.4091
  102OSM   H10S10292   3.067   3.030  10.393 -2.3593 -0.7032 -2.4526
  102OSM   H10T10293   2.914   3.119  10.409  0.2632 -0.8587  0.0328
  102OSM   C11S10294   2.924   2.929  10.512  0.1208 -0.6620 -0.4057
  102OSM   H11S10295   2.974   2.902  10.608  0.7739 -2.4146 -1.1799
  102OSM   H11T10296   2.932   2.841  10.445 -0.6947  0.2135 -1.6837
  102OSM   C12S10297   2.773   2.938  10.528  0.3546  0.3104 -0.0273
  102OSM   H12S10298   2.714   2.968  10.439  0.7737  0.9433 -0.0970
  102OSM   H12T10299   2.766   3.023  10.599  0.0526 -0.0217  0.3468
  102OSM   C13S10300   2.716   2.811  10.598  0.3127 -0.5049  0.2723
  102OSM   H13S10301   2.788   2.781  10.676  2.4463  1.7639 -0.6953
  102OSM   H13T10302   2.704   2.722  10.533  1.3096  0.9015 -1.9342
  102OSM   C14S10303   2.576   2.828  10.662  1.0326 -0.5322 -0.4226
  102OSM   H14S10304   2.521   2.737  10.694  1.0155 -0.2942  0.2417
  102OSM   H14T10305   2.507   2.890  10.601 -1.3804 -0.7982  1.8107
  102OSM   C15S10306   2.587   2.891  10.807 -0.2258  0.0173  0.0614
  102OSM   H15S10307   2.503   2.960  10.830  2.4238  3.4317  0.1933
  102OSM   H15T10308   2.685   2.943  10.802 -0.8156  0.9959 -2.3891
  102OSM   C16S10309   2.603   2.772  10.908  0.1252  0.0845  0.6294
  102OSM   H16S10310   2.673   2.699  10.863 -1.1368  0.3272 -1.8631
  102OSM   H16T10311   2.512   2.713  10.931  0.0821  0.4489  1.4371
  102OSM   C17S10312   2.662   2.838  11.040 -0.0873  0.4710  0.2113
  102OSM   H17S10313   2.618   2.770  11.116 -1.1612 -0.4286 -1.1486
  102OSM   H17T10314   2.616   2.939  11.054 -2.3465 -0.2044 -1.6022
  102OSM   C18S10315   2.820   2.835  11.040  1.2933 -0.2295 -0.3761
  102OSM   H18S10316   2.853   2.914  10.969  0.8318  1.0638  0.8027
  102OSM   H18T10317   2.853   2.743  10.987 -0.8148 -1.5281  0.4466
  102OSM   H18U10318   2.857   2.849  11.143 -1.3129 -0.1827  0.6382
  102OSM    C1F10319   3.272   3.816  10.496  0.0241  0.4614  0.3860
  102OSM     OF10320   3.377   3.809  10.428  0.0900 -0.8917  0.0134
  102OSM    C2F10321   3.140   3.850  10.427 -0.1306 -0.2535 -0.1000
  102OSM    H2F10322   3.104   3.949  10.462  1.2486  1.4360 -3.1254
  102OSM    H2G10323   3.063   3.774  10.452 -2.2689  2.3834  1.9995
  102OSM    C3F10324   3.151   3.867  10.281  0.5068 -0.4396  0.4021
  102OSM    H3F10325   3.191   3.771  10.240 -3.7606 -1.4012 -2.0504
  102OSM    H3G10326   3.225   3.948  10.261  1.4586 -1.2135  0.6784
  102OSM    C4F10327   3.016   3.889  10.202  0.4762 -0.2562 -0.9809
  102OSM    H4F10328   3.039   3.938  10.106 -3.8848  1.3553 -1.4009
  102OSM    H4G10329   2.953   3.962  10.257 -0.6115 -1.6901 -0.2504
  102OSM    C5F10330   2.930   3.764  10.180 -0.0200 -0.1209  0.7276
  102OSM    H5F10331   2.890   3.723  10.275  1.1613 -2.4538  0.2903
  102OSM    H5G10332   2.981   3.687  10.118  0.9980  2.4379 -1.8477
  102OSM    C6F10333   2.805   3.811  10.097 -0.2777  0.4326 -0.1973
  102OSM    H6F10334   2.843   3.838   9.997  0.1653  1.7025  0.2985
  102OSM    H6G10335   2.757   3.900  10.144 -1.3255  1.1401 -2.4659
  102OSM    C7F10336   2.690   3.699  10.087  0.1951 -0.1059  0.3906
  102OSM    H7F10337   2.638   3.697  10.185  0.9960 -0.7034  0.8183
  102OSM    H7G10338   2.723   3.597  10.057 -1.8531 -0.6965  0.0122
  102OSM    C8F10339   2.578   3.728   9.979 -0.2192 -0.1341  0.2746
  102OSM    H8F10340   2.633   3.741   9.883 -0.2654  3.0567  0.6046
  102OSM    H8G10341   2.550   3.834   9.994  0.4597  0.3450 -1.5663
  102OSM    C9F10342   2.468   3.630   9.981 -0.1047  0.0980  0.1787
  102OSM    H9F10343   2.380   3.650  10.043  0.0771  1.3298  0.0623
  102OSM   C10F10344   2.475   3.516   9.903 -0.3776 -0.4690  0.0016
  102OSM   H10F10345   2.395   3.440   9.911 -1.7446  1.0320  1.1743
  102OSM   C11F10346   2.592   3.483   9.811  0.5690 -0.8813  1.0110
  102OSM   H11F10347   2.610   3.374   9.818 -2.0544 -1.3692  1.3368
  102OSM   H11G10348   2.684   3.538   9.840  0.0633  0.9616 -0.6467
  102OSM   C12F10349   2.565   3.526   9.667 -0.4796 -0.5848  0.2426
  102OSM   H12F10350   2.576   3.635   9.647  0.4774 -1.0238 -1.9034
  102OSM   H12G10351   2.462   3.507   9.631 -0.5766  0.3296  0.0170
  102OSM   C13F10352   2.643   3.440   9.558 -0.6559  0.1062  0.0585
  102OSM   H13F10353   2.623   3.476   9.455 -1.2427  1.4414  0.6199
  102OSM   H13G10354   2.608   3.336   9.547  1.6495 -0.8075  0.7084
  102OSM   C14F10355   2.799   3.432   9.577  0.4750  0.2469 -0.2276
  102OSM   H14F10356   2.833   3.359   9.501  0.2346 -1.8202  1.5465
  102OSM   H14G10357   2.814   3.373   9.670  0.9818  0.1209 -0.3871
  102OSM   C15F10358   2.851   3.572   9.575 -0.4955  0.0754 -0.1190
  102OSM   H15F10359   2.807   3.639   9.652  0.4304 -0.3378  0.7849
  102OSM   H15G10360   2.810   3.613   9.480 -0.9182  0.1075  0.0769
  102OSM   C16F10361   3.004   3.580   9.583 -0.3797 -0.2542  0.2009
  102OSM   H16F10362   3.029   3.687   9.567 -2.3512  0.0971 -0.8784
  102OSM   H16G10363   3.046   3.513   9.504 -1.6394  0.8699 -1.4966
  102OSM   C17F10364   3.061   3.553   9.716  0.0374 -0.2192 -0.2715
  102OSM   H17F10365   3.171   3.557   9.707 -0.0751  1.4880 -1.3783
  102OSM   H17G10366   3.036   3.449   9.745  2.1202 -0.1437  2.2058
  102OSM   C18F10367   3.021   3.656   9.823  0.5057  0.8709  0.2793
  102OSM   H18F10368   3.055   3.759   9.799  0.6655  0.5586 -0.9061
  102OSM   H18G10369   3.067   3.642   9.923 -0.2645  1.5739  0.7482
  102OSM   H18H10370   2.912   3.649   9.842  0.7072 -1.2670  0.8477
  103OSM      N10371   2.013   0.700  11.155 -0.4616 -0.3027  0.1689
  103OSM    C1510372   1.882   0.630  11.125  0.4298 -0.4998  0.4225
  103OSM   H15A10373   1.893   0.565  11.039  1.6571 -0.5822  0.6317
  103OSM   H15B10374   1.809   0.702  11.092 -0.2110 -1.7520 -1.0154
  103OSM   H15C10375   1.841   0.577  11.209 -1.9085  1.6004  0.7172
  103OSM    C1410376   1.983   0.792  11.261  0.0200 -0.2059 -0.4198
  103OSM   H14A10377   2.058   0.865  11.288 -0.7551  0.7647 -0.8160
  103OSM   H14B10378   1.947   0.736  11.347 -1.0079 -0.3644 -0.9389
  103OSM   H14C10379   1.909   0.859  11.221 -0.2548 -1.5512 -2.2829
  103OSM    C1310380   2.114   0.595  11.208  0.1616  0.4752 -0.4158
  103OSM   H13A10381   2.076   0.537  11.291 -1.6237  0.1860 -1.4056
  103OSM   H13B10382   2.202   0.641  11.252 -2.0412  2.2278  2.5192
  103OSM   H13C10383   2.135   0.521  11.133 -1.0564  0.8515 -1.1541
  103OSM    C1210384   2.072   0.769  11.029  0.0986  0.6679  0.4043
  103OSM   H12A10385   2.175   0.797  11.044  0.2660 -0.1602  0.8380
  103OSM   H12B10386   2.015   0.856  10.999  1.8232  1.6547 -0.1409
  103OSM    C1110387   2.097   0.675  10.908 -0.6075  0.2531  0.0386
  103OSM   H11A10388   2.124   0.741  10.823  0.7534 -1.7156 -1.1552
  103OSM   H11B10389   2.001   0.622  10.889  0.3490 -1.9637  1.0405
  103OSM      P10390   2.226   0.444  10.885  0.0752  0.0283 -0.1400
  103OSM    O1310391   2.369   0.409  10.909  0.6079  0.0636  0.2419
  103OSM    O1410392   2.138   0.353  10.952  0.0019  0.4500 -0.6401
  103OSM    O1110393   2.204   0.453  10.730 -0.7617 -0.5839  0.1271
  103OSM    O1210394   2.211   0.589  10.945 -0.1820 -0.1722 -0.2047
  103OSM    C1S10395   2.271   0.558  10.657 -0.1924  0.1574 -0.3043
  103OSM    H1S10396   2.364   0.589  10.709  0.6373 -2.8087  0.1643
  103OSM    H1T10397   2.203   0.646  10.652  2.5162  2.3894 -0.8718
  103OSM     NF10398   2.400   0.630  10.454  0.3437  0.2413 -0.0272
  103OSM    HNF10399   2.356   0.671  10.374  0.8535  0.8143 -0.0193
  103OSM    C2S10400   2.318   0.520  10.518  0.1619 -0.1915  0.2411
  103OSM    H2S10401   2.387   0.434  10.536 -0.9232 -0.9114  1.0450
  103OSM    C3S10402   2.205   0.476  10.428 -0.4512  0.0748  0.2005
  103OSM    H3S10403   2.141   0.562  10.402  0.1032  0.3104 -0.4067
  103OSM     O310404   2.136   0.367  10.489  0.7801  0.5019  0.7127
  103OSM    HO310405   2.158   0.378  10.582 -0.4329 -1.1337  1.2501
  103OSM    C4S10406   2.259   0.410  10.310 -0.3922 -0.5512  0.1959
  103OSM    H4S10407   2.314   0.317  10.332  1.3737  0.4595  0.2602
  103OSM    C5S10408   2.261   0.464  10.185  0.8655 -0.0807  0.5336
  103OSM    H5S10409   2.245   0.572  10.174  1.7934 -0.1253 -1.7624
  103OSM    C6S10410   2.338   0.399  10.076 -0.1951  0.6859  0.7052
  103OSM    H6S10411   2.375   0.294  10.084  2.0538  1.1680 -1.7829
  103OSM    H6T10412   2.431   0.457  10.060  0.7033 -0.6301  0.9224
  103OSM    C7S10413   2.246   0.393   9.959  0.1853 -0.0287 -0.0574
  103OSM    H7S10414   2.220   0.499   9.944  0.3821 -0.0539 -0.5724
  103OSM    H7T10415   2.151   0.342   9.986  0.8139 -0.6348  1.1136
  103OSM    C8S10416   2.301   0.337   9.824  0.3037 -0.4768  0.0507
  103OSM    H8S10417   2.279   0.228   9.820  0.6537 -0.6759  2.1564
  103OSM    H8T10418   2.409   0.347   9.803  0.5868 -1.6979  0.7960
  103OSM    C9S10419   2.224   0.408   9.710 -0.1195  0.3886 -0.3697
  103OSM    H9S10420   2.232   0.515   9.738  1.5685 -0.3324  2.2251
  103OSM    H9T10421   2.120   0.371   9.706  0.2304 -0.9571  1.7428
  103OSM   C10S10422   2.283   0.390   9.566  0.1144  0.2165 -0.3090
  103OSM   H10S10423   2.271   0.285   9.531 -0.4925  0.3403 -0.4937
  103OSM   H10T10424   2.392   0.411   9.558 -0.2120  2.0966 -0.2776
  103OSM   C11S10425   2.214   0.492   9.477  0.8306  0.3040  0.0883
  103OSM   H11S10426   2.249   0.594   9.506  3.9454  0.0789 -2.3080
  103OSM   H11T10427   2.104   0.483   9.483  0.7548  1.6803  1.6935
  103OSM   C12S10428   2.257   0.476   9.327 -1.0439 -0.0223 -0.0421
  103OSM   H12S10429   2.364   0.445   9.321 -0.5597  1.5865 -0.2191
  103OSM   H12T10430   2.260   0.581   9.290  0.2428 -0.0121  0.0521
  103OSM   C13S10431   2.155   0.392   9.240  0.2076 -0.6110  0.0995
  103OSM   H13S10432   2.051   0.424   9.264  0.1638 -1.6699  1.4616
  103OSM   H13T10433   2.151   0.285   9.268  1.0917 -0.3247  1.4056
  103OSM   C14S10434   2.175   0.411   9.095  0.4322  0.2290  0.0548
  103OSM   H14S10435   2.284   0.409   9.072  0.4553  0.0365  0.1735
  103OSM   H14T10436   2.139   0.511   9.063 -0.0631 -0.4178 -1.4653
  103OSM   C15S10437   2.103   0.315   8.996  0.8326  0.5791  0.3181
  103OSM   H15S10438   2.124   0.210   9.024  1.4281  0.6461  0.1492
  103OSM   H15T10439   2.145   0.346   8.898 -0.7904  0.4280 -0.4455
  103OSM   C16S10440   1.952   0.332   8.987  1.0067  0.0922 -0.9163
  103OSM   H16S10441   1.921   0.438   8.998 -0.7363 -0.1166 -3.1999
  103OSM   H16T10442   1.902   0.269   9.064 -0.9207  0.7962 -1.5454
  103OSM   C17S10443   1.899   0.292   8.846 -0.1169  0.4472 -0.4803
  103OSM   H17S10444   1.798   0.249   8.867 -0.0858  1.3718  1.7961
  103OSM   H17T10445   1.960   0.212   8.799 -1.3925 -0.1153 -1.2671
  103OSM   C18S10446   1.888   0.419   8.755  0.2489 -0.3344  0.1359
  103OSM   H18S10447   1.985   0.469   8.736 -0.4583  0.1630 -2.6063
  103OSM   H18T10448   1.813   0.483   8.806  1.3610  1.2957 -0.2077
  103OSM   H18U10449   1.845   0.390   8.656  0.5633 -1.5879  0.3572
  103OSM    C1F10450   2.514   0.673  10.508 -0.3067 -0.4199  0.0751
  103OSM     OF10451   2.573   0.614  10.596  0.0820  0.0232 -0.4174
  103OSM    C2F10452   2.574   0.797  10.444 -0.8001  0.1726  0.1944
  103OSM    H2F10453   2.611   0.872  10.516 -1.8920 -0.0388  1.0030
  103OSM    H2G10454   2.498   0.847  10.381 -1.1466  1.5436  1.6462
  103OSM    C3F10455   2.700   0.779  10.350  0.2322 -0.9306 -0.3679
  103OSM    H3F10456   2.774   0.714  10.401 -0.5771 -1.2296  0.4278
  103OSM    H3G10457   2.743   0.879  10.326 -1.5458  1.0799  3.8688
  103OSM    C4F10458   2.672   0.714  10.212  0.2352 -0.4990 -0.3494
  103OSM    H4F10459   2.601   0.630  10.218 -2.6652  1.8574  1.4223
  103OSM    H4G10460   2.771   0.693  10.166  0.5063 -0.5902  0.2643
  103OSM    C5F10461   2.603   0.808  10.117  0.5195  0.5201 -0.2951
  103OSM    H5F10462   2.667   0.898  10.100  0.5102  0.1913 -2.2609
  103OSM    H5G10463   2.516   0.856  10.166 -0.4591 -1.1211 -0.3540
  103OSM    C6F10464   2.550   0.746   9.986  1.4787  0.1354 -0.0698
  103OSM    H6F10465   2.475   0.667  10.007  1.2356  0.3037 -0.2928
  103OSM    H6G10466   2.631   0.678   9.953  1.0117 -0.6943  0.4604
  103OSM    C7F10467   2.494   0.857   9.903  0.8023 -0.1222 -0.4738
  103OSM    H7F10468   2.557   0.947   9.887 -1.3748  1.4941 -0.5413
  103OSM    H7G10469   2.413   0.887   9.973 -3.4096 -2.1344 -3.9745
  103OSM    C8F10470   2.435   0.805   9.764 -0.3111 -0.2983 -0.3188
  103OSM    H8F10471   2.422   0.696   9.777  0.4142 -0.4886 -1.0941
  103OSM    H8G10472   2.519   0.809   9.692 -0.4385 -3.4780 -0.7793
  103OSM    C9F10473   2.298   0.862   9.717  0.3903  0.1584  0.8531
  103OSM    H9F10474   2.226   0.844   9.799 -0.7625  1.0860  0.0672
  103OSM   C10F10475   2.272   0.934   9.601 -0.2526  0.0486  0.2850
  103OSM   H10F10476   2.169   0.960   9.574 -0.0832  1.2428  0.6997
  103OSM   C11F10477   2.373   0.957   9.493 -0.0037 -0.2517  0.0818
  103OSM   H11F10478   2.468   0.917   9.535 -0.4438 -2.3873 -0.8067
  103OSM   H11G10479   2.408   1.056   9.459  2.0893 -1.4355 -1.4914
  103OSM   C12F10480   2.343   0.872   9.362  0.1399 -0.5975  0.7142
  103OSM   H12F10481   2.296   0.773   9.378 -0.5338 -0.1833  1.3223
  103OSM   H12G10482   2.438   0.862   9.304  0.9747 -1.8832  2.2215
  103OSM   C13F10483   2.247   0.959   9.270  0.3648  0.7189 -0.4442
  103OSM   H13F10484   2.288   1.056   9.236  0.3935  0.6492 -0.6072
  103OSM   H13G10485   2.154   0.984   9.326  0.1227  1.3443 -1.1082
  103OSM   C14F10486   2.201   0.875   9.156  0.7318  0.2431  0.1490
  103OSM   H14F10487   2.154   0.783   9.197 -0.6309  1.1671  0.7376
  103OSM   H14G10488   2.291   0.851   9.095  0.7145  0.9553 -0.1635
  103OSM   C15F10489   2.101   0.947   9.072 -0.7495 -0.2612  0.3731
  103OSM   H15F10490   2.126   1.056   9.066  2.0845 -0.8417  0.0014
  103OSM   H15G10491   2.002   0.948   9.123 -0.4334  1.9164  1.0726
  103OSM   C16F10492   2.086   0.889   8.934  0.4339  0.0465  0.2905
  103OSM   H16F10493   2.077   0.779   8.944 -1.2085 -0.1741 -2.5184
  103OSM   H16G10494   2.185   0.910   8.889 -0.1185  2.9851  0.2104
  103OSM   C17F10495   1.969   0.949   8.850  0.4259 -0.5150  0.1812
  103OSM   H17F10496   1.987   1.058   8.841  0.4276 -0.6512 -1.8816
  103OSM   H17G10497   1.878   0.936   8.912  2.2699 -2.2126  2.7214
  103OSM   C18F10498   1.954   0.890   8.708 -0.2920  1.2028  0.0329
  103OSM   H18F10499   1.868   0.940   8.659 -0.4879  0.2222 -0.6661
  103OSM   H18G10500   1.933   0.781   8.719 -4.1485  1.9012  0.9063
  103OSM   H18H10501   2.039   0.905   8.638  2.6573 -0.1857  3.0005
  104OSM      N10502   2.928   4.949  10.815 -0.2352  0.4662 -0.4922
  104OSM    C1510503   2.894   5.004  10.678 -0.2452 -0.2879 -0.2786
  104OSM   H15A10504   2.795   4.975  10.644 -1.2546  0.5672  1.7696
  104OSM   H15B10505   2.955   4.959  10.601  0.8122 -1.8206  1.3982
  104OSM   H15C10506   2.899   5.112  10.687 -2.1003 -0.3449  4.3091
  104OSM    C1410507   2.831   4.997  10.919  0.5394  0.4451  0.7024
  104OSM   H14A10508   2.852   4.939  11.008  3.3388  0.0900 -0.0903
  104OSM   H14B10509   2.732   4.969  10.886  0.1318  2.6622 -0.1285
  104OSM   H14C10510   2.847   5.103  10.930  0.9427  0.4807 -0.1559
  104OSM    C1310511   2.925   4.801  10.810  0.3019  0.0160 -0.5356
  104OSM   H13A10512   2.829   4.757  10.789  0.4038 -0.5902  0.2055
  104OSM   H13B10513   2.950   4.764  10.909  0.0256 -2.8234 -1.4467
  104OSM   H13C10514   2.995   4.754  10.743 -1.4359 -2.2680 -0.8768
  104OSM    C1210515   3.059   5.011  10.858  0.7658 -0.3830 -0.9939
  104OSM   H12A10516   3.138   4.955  10.811  1.4848 -0.3995  0.1787
  104OSM   H12B10517   3.059   4.986  10.963 -4.4055 -2.7962 -1.2189
  104OSM    C1110518   3.090   5.159  10.825  0.1639  0.1154 -0.2319
  104OSM   H11A10519   3.082   5.171  10.714  1.5423  0.0720 -0.3464
  104OSM   H11B10520   3.198   5.180  10.837  0.2602 -1.0537  1.1974
  104OSM      P10521   2.908   5.354  10.855 -0.2937 -0.1802 -0.1629
  104OSM    O1310522   2.772   5.310  10.893 -0.2624  0.2701  0.1025
  104OSM    O1410523   2.953   5.482  10.910 -0.0891  0.6996  0.0806
  104OSM    O1110524   2.930   5.352  10.697  0.6396  0.5202 -0.2521
  104OSM    O1210525   3.009   5.247  10.908 -0.4484  0.0949 -0.3593
  104OSM    C1S10526   2.899   5.463  10.607 -0.0272 -0.1412  0.1925
  104OSM    H1S10527   2.959   5.554  10.628  0.1335 -0.0911 -0.4582
  104OSM    H1T10528   2.795   5.500  10.606 -0.2931 -0.8589  0.2050
  104OSM     NF10529   2.960   5.518  10.362 -0.5720 -0.5008 -0.1120
  104OSM    HNF10530   2.887   5.543  10.299 -0.4347 -0.1231 -0.1195
  104OSM    C2S10531   2.928   5.411  10.459 -0.4615 -0.3256  0.3020
  104OSM    H2S10532   3.019   5.346  10.458  1.1247  1.7473  1.8014
  104OSM    C3S10533   2.812   5.318  10.406 -0.0628 -0.4588  0.2379
  104OSM    H3S10534   2.722   5.375  10.377 -1.2146 -1.4349  1.7296
  104OSM     O310535   2.760   5.231  10.505 -0.5680  0.3029  0.3333
  104OSM    HO310536   2.806   5.267  10.581 -2.0094 -0.4128  1.6173
  104OSM    C4S10537   2.843   5.252  10.275  0.6235  0.0456  0.2320
  104OSM    H4S10538   2.790   5.297  10.190 -1.4226 -1.7966  0.4327
  104OSM    C5S10539   2.905   5.139  10.251 -0.1321 -0.9616 -0.1813
  104OSM    H5S10540   2.949   5.095  10.342 -0.6986 -0.2531  0.4566
  104OSM    C6S10541   2.933   5.085  10.115 -0.0416 -0.0126 -0.2013
  104OSM    H6S10542   2.856   5.008  10.093  1.2467 -1.5940  0.6019
  104OSM    H6T10543   3.031   5.032  10.118 -0.6911 -1.3447 -1.1537
  104OSM    C7S10544   2.946   5.186  10.002  0.1020  0.4197  0.1408
  104OSM    H7S10545   3.022   5.264  10.023  1.1846 -0.3810 -0.6966
  104OSM    H7T10546   2.847   5.234   9.987  0.3833  0.7563 -0.6902
  104OSM    C8S10547   2.986   5.109   9.872  0.4133  0.2817 -0.1167
  104OSM    H8S10548   2.918   5.023   9.856 -0.2699  0.7947  0.0180
  104OSM    H8T10549   3.086   5.066   9.893  1.3826  2.4122 -0.0721
  104OSM    C9S10550   3.010   5.198   9.751 -0.0191  0.1618  0.1985
  104OSM    H9S10551   3.076   5.282   9.782  0.9863 -0.3735 -0.4250
  104OSM    H9T10552   2.912   5.243   9.726 -0.8309 -2.9926 -3.2200
  104OSM   C10S10553   3.056   5.109   9.634 -0.4423 -0.0125 -0.2740
  104OSM   H10S10554   2.994   5.028   9.591  1.1411  0.3910 -3.6695
  104OSM   H10T10555   3.155   5.074   9.669 -0.5898  2.2404  2.7942
  104OSM   C11S10556   3.080   5.195   9.508 -0.3524  0.1240  0.3410
  104OSM   H11S10557   3.146   5.283   9.522  0.8811 -0.7562  0.1677
  104OSM   H11T10558   2.985   5.236   9.468  0.4450  0.7305 -1.0080
  104OSM   C12S10559   3.145   5.115   9.397  0.0022  0.3462  0.5365
  104OSM   H12S10560   3.101   5.013   9.389  1.3737 -0.2581  0.2722
  104OSM   H12T10561   3.250   5.104   9.431  0.3709  0.6383 -0.4610
  104OSM   C13S10562   3.140   5.176   9.256  0.9076  0.0147  0.7475
  104OSM   H13S10563   3.182   5.278   9.243  0.4291  0.1162 -0.0767
  104OSM   H13T10564   3.033   5.176   9.227  0.1002 -0.0746  3.4390
  104OSM   C14S10565   3.208   5.089   9.148  0.2972 -0.1430  0.8870
  104OSM   H14S10566   3.174   4.984   9.157  1.1660 -0.4430  0.7277
  104OSM   H14T10567   3.316   5.084   9.173  0.5947  0.9219 -0.0833
  104OSM   C15S10568   3.172   5.136   9.007  0.7654 -0.3414  0.2135
  104OSM   H15S10569   3.212   5.239   8.995 -0.1211  0.0411  0.5220
  104OSM   H15T10570   3.061   5.133   9.004  0.7348 -0.6044  1.1195
  104OSM   C16S10571   3.227   5.048   8.891  0.2208  0.2222 -0.9681
  104OSM   H16S10572   3.213   4.940   8.916  4.0226 -0.0625  0.7112
  104OSM   H16T10573   3.338   5.058   8.897 -0.0473  3.5823  1.7711
  104OSM   C17S10574   3.174   5.092   8.758  0.5733  0.0591 -0.0405
  104OSM   H17S10575   3.090   5.164   8.774  0.8783  0.0580  1.8220
  104OSM   H17T10576   3.126   5.000   8.719  0.3190 -0.3506  1.1807
  104OSM   C18S10577   3.273   5.146   8.667  0.1141 -0.1162 -0.2269
  104OSM   H18S10578   3.251   5.110   8.564 -0.8473  0.0159 -0.0675
  104OSM   H18T10579   3.371   5.097   8.686 -1.0114 -2.1340  0.6749
  104OSM   H18U10580   3.274   5.257   8.674  0.5441 -0.2056  1.4359
  104OSM    C1F10581   3.068   5.593  10.375 -0.6138 -0.3364  0.1895
  104OSM     OF10582   3.144   5.576  10.470  0.1712  0.3897 -0.7218
  104OSM    C2F10583   3.090   5.693  10.268 -0.2988  0.1155  0.3207
  104OSM    H2F10584   3.130   5.784  10.318 -2.1738  0.8692  0.5145
  104OSM    H2G10585   2.986   5.712  10.235 -0.5372 -1.7701 -0.1265
  104OSM    C3F10586   3.164   5.627  10.148  0.0225 -0.6163 -0.7221
  104OSM    H3F10587   3.106   5.549  10.094 -0.3134 -1.1004  0.3003
  104OSM    H3G10588   3.253   5.576  10.189 -0.3141  0.0783  0.9517
  104OSM    C4F10589   3.206   5.724  10.044 -0.5089  0.0038  0.5507
  104OSM    H4F10590   3.244   5.818  10.090 -3.0717  1.3976  0.0019
  104OSM    H4G10591   3.118   5.756   9.984 -0.6956 -0.3589  0.6294
  104OSM    C5F10592   3.311   5.651   9.952 -0.2319  0.2712  0.1886
  104OSM    H5F10593   3.257   5.561   9.914 -0.4327  0.5862 -0.2903
  104OSM    H5G10594   3.403   5.623  10.007  0.5796  0.2582 -1.1267
  104OSM    C6F10595   3.334   5.730   9.821 -0.9848 -0.5435  0.0972
  104OSM    H6F10596   3.375   5.833   9.823  1.3506 -1.3691 -1.3159
  104OSM    H6G10597   3.244   5.714   9.757 -1.7468 -1.2863  1.3219
  104OSM    C7F10598   3.443   5.680   9.737 -0.0517  0.7152  0.0837
  104OSM    H7F10599   3.425   5.577   9.699 -2.4655  1.2393 -0.3483
  104OSM    H7G10600   3.534   5.653   9.795  1.1589  0.5703 -1.7874
  104OSM    C8F10601   3.500   5.781   9.628 -0.6795  0.9987 -0.3788
  104OSM    H8F10602   3.597   5.741   9.591 -0.2077  0.1692  1.6566
  104OSM    H8G10603   3.505   5.879   9.680 -1.0583 -0.5186  2.7577
  104OSM    C9F10604   3.404   5.793   9.521  0.7714 -0.3439  0.2181
  104OSM    H9F10605   3.299   5.787   9.551 -0.0003  1.9604 -1.8065
  104OSM   C10F10606   3.435   5.800   9.390 -0.7668 -0.8589 -0.3567
  104OSM   H10F10607   3.349   5.824   9.326 -0.4739  2.4254  0.2968
  104OSM   C11F10608   3.575   5.790   9.327 -0.0718 -0.3558  0.4829
  104OSM   H11F10609   3.625   5.694   9.349  1.1050 -0.3039 -1.6574
  104OSM   H11G10610   3.638   5.873   9.365  1.6225 -1.1427 -0.4972
  104OSM   C12F10611   3.552   5.813   9.174 -0.3196  0.4147  0.1022
  104OSM   H12F10612   3.495   5.906   9.149 -1.7244 -0.9401 -2.0594
  104OSM   H12G10613   3.493   5.730   9.130  1.2170  0.2254 -1.7357
  104OSM   C13F10614   3.684   5.814   9.101 -0.1320 -0.4558  0.5299
  104OSM   H13F10615   3.754   5.749   9.157 -0.5498 -0.8215  0.6388
  104OSM   H13G10616   3.741   5.908   9.119  2.7503 -2.2227  1.4012
  104OSM   C14F10617   3.683   5.774   8.956 -0.0646 -0.4912  0.5332
  104OSM   H14F10618   3.638   5.858   8.898  0.7866  0.0765  0.6746
  104OSM   H14G10619   3.615   5.686   8.949 -0.9302  0.0985  1.2779
  104OSM   C15F10620   3.824   5.730   8.902 -0.0187 -0.1332 -0.9031
  104OSM   H15F10621   3.895   5.815   8.897 -0.3995  0.3134  0.6949
  104OSM   H15G10622   3.803   5.693   8.799  0.3063 -3.6836  0.1814
  104OSM   C16F10623   3.900   5.612   8.974  0.3364 -0.1876  0.0880
  104OSM   H16F10624   3.827   5.530   8.994  0.9995 -1.0521 -0.9158
  104OSM   H16G10625   3.957   5.637   9.067 -1.4993  2.1000  0.6852
  104OSM   C17F10626   4.004   5.541   8.887 -0.0585  0.1287 -0.1302
  104OSM   H17F10627   4.075   5.620   8.856  0.7279  0.2612  1.8865
  104OSM   H17G10628   3.961   5.493   8.796 -1.1769  0.7891  0.0357
  104OSM   C18F10629   4.091   5.445   8.967  0.2051  0.4821 -0.0721
  104OSM   H18F10630   4.065   5.443   9.075 -0.1625  0.9048 -0.1512
  104OSM   H18G10631   4.196   5.477   8.948  0.7834 -0.0363  2.0191
  104OSM   H18H10632   4.083   5.342   8.927  0.7449 -0.1462  1.3566
  105OSM      N10633   6.425   4.596  11.191  0.0708  0.0945 -0.2669
  105OSM    C1510634   6.504   4.472  11.225  0.2185  0.2935 -0.3923
  105OSM   H15A10635   6.608   4.499  11.218  0.5355 -0.7367  0.1112
  105OSM   H15B10636   6.480   4.383  11.168 -2.5407  0.0143  1.0475
  105OSM   H15C10637   6.482   4.441  11.326  0.6317  0.6132 -0.2035
  105OSM    C1410638   6.279   4.577  11.203 -0.3507 -0.2661 -0.6103
  105OSM   H14A10639   6.248   4.591  11.305  1.5191 -1.9483  0.2366
  105OSM   H14B10640   6.252   4.480  11.164  1.8176 -1.6031  1.0011
  105OSM   H14C10641   6.219   4.655  11.158 -0.5393  0.0256  0.1398
  105OSM    C1310642   6.467   4.711  11.284 -0.1108 -0.0609  1.0441
  105OSM   H13A10643   6.574   4.720  11.277 -0.2120 -0.0108 -3.4467
  105OSM   H13B10644   6.429   4.695  11.383 -0.4321  2.1429  1.3382
  105OSM   H13C10645   6.420   4.801  11.245 -1.1861  0.1385  2.7413
  105OSM    C1210646   6.445   4.636  11.043  0.0494 -0.2201 -0.0503
  105OSM   H12A10647   6.384   4.723  11.025 -0.2421 -0.1913  0.9903
  105OSM   H12B10648   6.402   4.571  10.968 -1.1076  1.4989 -0.9354
  105OSM    C1110649   6.594   4.669  11.005 -0.8116  0.1692 -0.0477
  105OSM   H11A10650   6.625   4.749  11.074  0.6967  0.4360 -0.9869
  105OSM   H11B10651   6.592   4.702  10.899  1.4977 -1.9864 -0.8880
  105OSM      P10652   6.680   4.439  10.922  0.2566 -0.5096 -0.4120
  105OSM    O1310653   6.810   4.370  10.931 -0.1633  0.3386  0.8745
  105OSM    O1410654   6.553   4.364  10.942 -0.2973  0.0103 -0.1859
  105OSM    O1110655   6.673   4.495  10.778  0.0464 -0.4595 -0.2296
  105OSM    O1210656   6.689   4.562  11.023 -0.3827  0.0303  0.2262
  105OSM    C1S10657   6.769   4.585  10.715 -0.6178  0.5978 -0.5326
  105OSM    H1S10658   6.871   4.543  10.729 -0.4804  0.6920 -1.2088
  105OSM    H1T10659   6.757   4.682  10.767 -0.5287  0.5588 -0.4389
  105OSM     NF10660   6.826   4.697  10.500  0.2079 -0.0855 -0.8255
  105OSM    HNF10661   6.796   4.785  10.464 -0.3129 -0.6756 -1.8995
  105OSM    C2S10662   6.734   4.604  10.564  0.0356 -0.3482 -0.2923
  105OSM    H2S10663   6.731   4.498  10.531 -1.5876 -0.4278  0.0454
  105OSM    C3S10664   6.583   4.650  10.551 -0.4718  0.1201 -1.1051
  105OSM    H3S10665   6.579   4.746  10.607  2.0721  0.6553 -1.6985
  105OSM     O310666   6.486   4.566  10.618  0.5334 -0.5133  0.1214
  105OSM    HO310667   6.529   4.536  10.698  1.6294 -2.4207 -1.1162
  105OSM    C4S10668   6.557   4.661  10.407  0.6631  0.0463  0.0178
  105OSM    H4S10669   6.530   4.765  10.382 -0.3123 -0.2428 -0.1960
  105OSM    C5S10670   6.538   4.561  10.325 -0.2631  0.1038 -0.2243
  105OSM    H5S10671   6.530   4.459  10.366 -0.8724 -0.6361 -2.0824
  105OSM    C6S10672   6.485   4.579  10.183 -0.4846 -0.0291 -0.8431
  105OSM    H6S10673   6.549   4.523  10.112  0.2786  2.7366 -2.5031
  105OSM    H6T10674   6.497   4.686  10.154  0.8513 -0.6423 -2.7762
  105OSM    C7S10675   6.331   4.544  10.173  0.7773 -0.3407  0.3747
  105OSM    H7S10676   6.267   4.610  10.236  2.0477  0.7451  0.5703
  105OSM    H7T10677   6.325   4.436  10.200 -0.5607 -0.0681  1.2587
  105OSM    C8S10678   6.274   4.553  10.027 -0.2794 -0.6573 -0.3254
  105OSM    H8S10679   6.164   4.536  10.032 -0.6450  1.3114 -0.9823
  105OSM    H8T10680   6.322   4.474   9.966 -2.6063 -1.3504 -1.3423
  105OSM    C9S10681   6.292   4.695   9.977  0.7215 -0.2884  0.7017
  105OSM    H9S10682   6.399   4.726   9.969  0.6612 -0.2678 -0.1006
  105OSM    H9T10683   6.226   4.749  10.049 -0.4228  1.8494 -1.8070
  105OSM   C10S10684   6.230   4.711   9.838  0.5609  0.9943  0.5835
  105OSM   H10S10685   6.229   4.818   9.808 -0.3731  0.5649 -1.0519
  105OSM   H10T10686   6.125   4.676   9.832  0.5087  1.2740 -0.2795
  105OSM   C11S10687   6.310   4.636   9.730 -0.3755 -0.1495 -0.7858
  105OSM   H11S10688   6.292   4.526   9.732  1.7450 -0.5235 -0.3178
  105OSM   H11T10689   6.409   4.658   9.774 -1.3520  2.2524  0.4189
  105OSM   C12S10690   6.297   4.698   9.588  0.2248  0.0514 -0.1747
  105OSM   H12S10691   6.374   4.650   9.523  3.4434  1.4881  2.2608
  105OSM   H12T10692   6.328   4.804   9.599  2.7360 -0.5449 -0.8182
  105OSM   C13S10693   6.163   4.684   9.524  0.2924 -0.0859 -0.8038
  105OSM   H13S10694   6.091   4.738   9.589  0.5673  0.3227 -0.8344
  105OSM   H13T10695   6.145   4.576   9.544  1.4740 -0.3498 -1.1037
  105OSM   C14S10696   6.144   4.730   9.376  0.2964 -0.5337  0.3863
  105OSM   H14S10697   6.068   4.668   9.325 -2.1599 -0.0389  3.1857
  105OSM   H14T10698   6.244   4.728   9.328  0.2682 -0.5512  0.3302
  105OSM   C15S10699   6.120   4.878   9.367  0.1555 -0.2957 -0.1803
  105OSM   H15S10700   6.209   4.944   9.374 -0.5396  0.8677 -1.7292
  105OSM   H15T10701   6.046   4.904   9.446 -0.4937 -2.7443  0.1067
  105OSM   C16S10702   6.055   4.916   9.233  0.8778  0.6283 -0.3717
  105OSM   H16S10703   6.037   5.025   9.232 -0.1773  0.5045  1.0319
  105OSM   H16T10704   5.956   4.866   9.226  2.0752 -1.6749 -2.3216
  105OSM   C17S10705   6.126   4.873   9.108 -0.6722  0.5637 -0.7222
  105OSM   H17S10706   6.149   4.765   9.103 -0.7418  0.5923 -1.8221
  105OSM   H17T10707   6.230   4.913   9.108 -0.8620  1.0760 -0.4039
  105OSM   C18S10708   6.055   4.929   8.986  0.0424 -0.1344 -1.0154
  105OSM   H18S10709   6.088   4.869   8.898  0.7887  0.1630 -0.9496
  105OSM   H18T10710   6.086   5.032   8.959  1.3023  0.0398  0.8743
  105OSM   H18U10711   5.944   4.935   8.996 -0.2059  0.1447 -3.4050
  105OSM    C1F10712   6.954   4.665  10.480  1.1305 -0.7788  0.0598
  105OSM     OF10713   7.002   4.567  10.536 -0.4834  0.3991 -0.3547
  105OSM    C2F10714   7.036   4.753  10.396  0.2940 -0.6408  0.9260
  105OSM    H2F10715   7.109   4.690  10.340  1.4651 -0.0514  1.7386
  105OSM    H2G10716   7.097   4.815  10.465 -0.7948 -0.5488  1.8181
  105OSM    C3F10717   6.965   4.839  10.289  0.2143  0.2646 -0.2871
  105OSM    H3F10718   7.041   4.907  10.244  1.5153 -1.9446 -1.6017
  105OSM    H3G10719   6.894   4.906  10.342  1.5739  3.1798 -1.8370
  105OSM    C4F10720   6.889   4.755  10.181  0.5212  0.7730 -0.4952
  105OSM    H4F10721   6.811   4.694  10.230  0.3628 -0.5157 -2.2288
  105OSM    H4G10722   6.968   4.687  10.141 -3.7130 -5.0482 -0.2340
  105OSM    C5F10723   6.832   4.829  10.064  0.6063  0.3673 -0.3170
  105OSM    H5F10724   6.888   4.920  10.035 -1.7596  1.8904 -0.3660
  105OSM    H5G10725   6.737   4.870  10.103 -1.1057 -1.3965 -2.4018
  105OSM    C6F10726   6.816   4.735   9.941  0.3548  0.2604 -0.1985
  105OSM    H6F10727   6.763   4.642   9.970 -0.8867  1.0259  0.1088
  105OSM    H6G10728   6.917   4.704   9.907  0.6541  2.2688 -1.3151
  105OSM    C7F10729   6.755   4.818   9.828  0.2236  1.0976  0.1006
  105OSM    H7F10730   6.792   4.922   9.837 -1.1429  1.4886  1.9673
  105OSM    H7G10731   6.645   4.818   9.847  0.0690  0.1999 -0.7211
  105OSM    C8F10732   6.806   4.767   9.691 -0.0660  1.0203  0.7928
  105OSM    H8F10733   6.780   4.660   9.679 -0.2332  1.0451  0.9315
  105OSM    H8G10734   6.916   4.761   9.709 -0.3453 -0.7982  2.2135
  105OSM    C9F10735   6.767   4.850   9.570 -0.5958 -0.5429 -0.8375
  105OSM    H9F10736   6.783   4.959   9.580  2.3142 -1.0569  1.6502
  105OSM   C10F10737   6.742   4.811   9.441 -0.1031  0.7324 -0.1688
  105OSM   H10F10738   6.702   4.878   9.363 -2.5623 -0.8523 -0.3669
  105OSM   C11F10739   6.731   4.663   9.400 -0.0481 -0.0778 -0.1630
  105OSM   H11F10740   6.703   4.593   9.482  1.5444 -0.1651  0.3540
  105OSM   H11G10741   6.834   4.635   9.368  0.3282  1.5379 -0.4682
  105OSM   C12F10742   6.631   4.652   9.287 -0.5371  0.8857  0.6625
  105OSM   H12F10743   6.665   4.714   9.202  3.2358 -0.7920  0.7407
  105OSM   H12G10744   6.536   4.701   9.318 -0.5330  0.8217  0.7780
  105OSM   C13F10745   6.606   4.497   9.251 -0.3140  0.0389 -0.8188
  105OSM   H13F10746   6.572   4.453   9.348 -0.8488  1.3028 -0.4107
  105OSM   H13G10747   6.699   4.448   9.216  0.0145  0.8716 -1.1061
  105OSM   C14F10748   6.488   4.483   9.162 -0.4949  0.3644  0.1164
  105OSM   H14F10749   6.426   4.575   9.172  1.7313  1.9532 -0.0908
  105OSM   H14G10750   6.427   4.393   9.188 -1.5529  1.1181  0.3364
  105OSM   C15F10751   6.539   4.464   9.017 -0.5706  0.9300  0.0471
  105OSM   H15F10752   6.648   4.444   9.015 -0.5504  1.0444  0.0212
  105OSM   H15G10753   6.532   4.567   8.976 -1.7069  0.2228 -1.6501
  105OSM   C16F10754   6.465   4.356   8.939 -0.1536  0.3868  0.7239
  105OSM   H16F10755   6.477   4.387   8.833 -1.3671  1.1338  0.7881
  105OSM   H16G10756   6.354   4.352   8.944 -0.1093 -2.4283  0.9160
  105OSM   C17F10757   6.511   4.217   8.967 -0.6871 -0.3961 -0.3682
  105OSM   H17F10758   6.470   4.197   9.068  0.1877 -0.5443 -0.0313
  105OSM   H17G10759   6.622   4.215   8.973 -0.7780 -1.9363  1.6421
  105OSM   C18F10760   6.454   4.117   8.866 -0.1983 -0.5404 -0.0657
  105OSM   H18F10761   6.344   4.103   8.871 -0.6831  2.7990  1.5651
  105OSM   H18G10762   6.496   4.015   8.878  0.0029 -0.5243 -0.6146
  105OSM   H18H10763   6.477   4.158   8.765 -1.6013 -0.9293 -0.5664
  106OSM      N10764   6.448   2.067  11.149 -0.4824  0.6897 -0.3764
  106OSM    C1510765   6.373   1.956  11.221  0.6050 -0.5251 -0.1858
  106OSM   H15A10766   6.344   1.988  11.320 -4.1236  3.3729 -2.4227
  106OSM   H15B10767   6.424   1.861  11.210 -0.5831 -0.9550 -2.5248
  106OSM   H15C10768   6.278   1.932  11.175  0.1002  0.6325  0.2126
  106OSM    C1410769   6.348   2.167  11.127 -0.0157  0.6733  0.0125
  106OSM   H14A10770   6.388   2.252  11.073 -0.4568 -0.2543 -1.8845
  106OSM   H14B10771   6.296   2.203  11.215  0.2278  1.4192 -0.1407
  106OSM   H14C10772   6.271   2.131  11.059  0.8885  2.9740 -2.4330
  106OSM    C1310773   6.550   2.116  11.242  0.5807  0.3544  0.1364
  106OSM   H13A10774   6.617   2.043  11.284  2.2105  1.5528 -0.2569
  106OSM   H13B10775   6.501   2.150  11.332 -0.2693 -1.1826  0.2779
  106OSM   H13C10776   6.610   2.197  11.201  0.7714  0.4224  0.5431
  106OSM    C1210777   6.502   2.020  11.013 -0.0376  0.3039  1.3868
  106OSM   H12A10778   6.592   1.964  11.034  1.4508  2.0751  0.1242
  106OSM   H12B10779   6.543   2.104  10.958  1.8514 -1.3350  0.1216
  106OSM    C1110780   6.415   1.945  10.910 -0.5248 -0.1066  0.1252
  106OSM   H11A10781   6.366   1.857  10.956 -2.8846  0.9729 -0.1831
  106OSM   H11B10782   6.465   1.906  10.819 -0.2669 -1.0752  0.6645
  106OSM      P10783   6.325   2.132  10.746 -0.4268  0.6477 -0.4396
  106OSM    O1310784   6.195   2.203  10.740  0.2070  0.1242  0.0469
  106OSM    O1410785   6.458   2.197  10.750  0.1008  0.2100  0.2292
  106OSM    O1110786   6.326   2.030  10.636  0.3046  0.2157 -0.5309
  106OSM    O1210787   6.314   2.044  10.873 -0.2737  0.8661  0.0268
  106OSM    C1S10788   6.288   2.065  10.498 -0.1983  0.0003  0.4246
  106OSM    H1S10789   6.242   2.166  10.484  0.9734  0.2329 -2.5043
  106OSM    H1T10790   6.210   1.991  10.470 -0.1636 -0.3321  1.1801
  106OSM     NF10791   6.378   2.062  10.261  0.0147 -0.2665  0.7136
  106OSM    HNF10792   6.402   1.986  10.201 -0.4016  0.2845 -0.1810
  106OSM    C2S10793   6.406   2.038  10.396 -0.3077  0.1316 -0.0394
  106OSM    H2S10794   6.477   2.113  10.437 -0.2383 -1.1121  2.3048
  106OSM    C3S10795   6.471   1.895  10.413 -0.4619  0.1578  0.2759
  106OSM    H3S10796   6.400   1.819  10.374  0.8336 -1.1917  0.4849
  106OSM     O310797   6.515   1.857  10.549  0.7562  0.0245  0.0903
  106OSM    HO310798   6.501   1.932  10.607  0.1364 -0.3382  0.4273
  106OSM    C4S10799   6.590   1.885  10.317 -0.4516 -0.6386  0.0466
  106OSM    H4S10800   6.558   1.838  10.222 -2.2411 -1.7784  1.1550
  106OSM    C5S10801   6.719   1.909  10.326 -0.2569 -0.9820 -0.2621
  106OSM    H5S10802   6.760   1.944  10.422 -0.5136  0.9706 -0.8056
  106OSM    C6S10803   6.822   1.895  10.217 -0.0902 -0.4267 -0.3699
  106OSM    H6S10804   6.841   1.785  10.210 -0.9067 -0.5769 -0.3754
  106OSM    H6T10805   6.906   1.956  10.257 -1.0590  0.2238  0.7268
  106OSM    C7S10806   6.771   1.952  10.091 -0.4685  0.4471  0.0183
  106OSM    H7S10807   6.781   2.063  10.098  4.2231  0.2311 -0.1752
  106OSM    H7T10808   6.671   1.912  10.063 -1.2688  2.1983  0.2144
  106OSM    C8S10809   6.864   1.915   9.976 -0.2783 -0.0919 -0.0743
  106OSM    H8S10810   6.868   1.806   9.953  0.7026  0.1606 -1.2054
  106OSM    H8T10811   6.971   1.936   9.999  0.1223  1.4609 -2.8702
  106OSM    C9S10812   6.824   1.994   9.849  0.9921  0.3955 -0.4364
  106OSM    H9S10813   6.848   2.101   9.866  1.3984  0.0623  1.2312
  106OSM    H9T10814   6.715   2.001   9.834  1.1409  0.3925 -1.6167
  106OSM   C10S10815   6.910   1.957   9.727  0.0391  0.6481  1.1967
  106OSM   H10S10816   6.915   1.847   9.711  1.6553  0.5125  2.3288
  106OSM   H10T10817   7.015   1.989   9.748  0.2725 -0.5081  1.8957
  106OSM   C11S10818   6.855   2.028   9.596  0.4889 -0.0491  0.0447
  106OSM   H11S10819   6.883   2.135   9.605 -0.0921  0.0250  1.1985
  106OSM   H11T10820   6.744   2.021   9.603  0.5302  0.0672  0.8977
  106OSM   C12S10821   6.912   1.972   9.467 -0.0724  0.2213  0.3496
  106OSM   H12S10822   6.937   1.865   9.487 -1.5996 -0.3291 -0.5203
  106OSM   H12T10823   7.013   2.005   9.435 -1.0330  0.0440 -3.2609
  106OSM   C13S10824   6.828   1.984   9.346 -0.7112  0.6012 -0.6273
  106OSM   H13S10825   6.723   1.960   9.374  0.0170 -0.6048  1.2979
  106OSM   H13T10826   6.851   1.908   9.269 -1.3491  1.1071 -1.3325
  106OSM   C14S10827   6.847   2.124   9.291  0.6751  0.4008 -0.1395
  106OSM   H14S10828   6.949   2.128   9.246  0.7278  0.8425  0.0179
  106OSM   H14T10829   6.846   2.200   9.372  1.4842 -0.9429  1.1831
  106OSM   C15S10830   6.743   2.166   9.182 -0.2195  0.2353 -0.1836
  106OSM   H15S10831   6.776   2.259   9.131 -0.5775  1.8071  2.2649
  106OSM   H15T10832   6.662   2.211   9.243 -0.7692 -0.1619 -0.6063
  106OSM   C16S10833   6.688   2.060   9.091  0.2400  0.2968 -0.7602
  106OSM   H16S10834   6.586   2.089   9.058  0.3632  0.8480 -0.6676
  106OSM   H16T10835   6.666   1.972   9.156  1.9045 -0.8192 -1.6426
  106OSM   C17S10836   6.783   2.029   8.976  0.2703  0.9118 -0.0870
  106OSM   H17S10837   6.880   1.994   9.019  0.9137  0.3039 -1.9670
  106OSM   H17T10838   6.818   2.113   8.913  3.4892  1.3510  2.0316
  106OSM   C18S10839   6.725   1.916   8.887  0.3751  0.0013  0.0291
  106OSM   H18S10840   6.806   1.877   8.822 -0.0243 -0.5250 -0.1616
  106OSM   H18T10841   6.645   1.949   8.818 -0.2144 -2.0604 -0.3625
  106OSM   H18U10842   6.676   1.829   8.938 -1.5885  2.9367  3.7200
  106OSM    C1F10843   6.346   2.181  10.205 -0.5418 -0.7874 -0.1725
  106OSM     OF10844   6.319   2.274  10.277  0.1192  0.4541  0.2080
  106OSM    C2F10845   6.326   2.181  10.055  0.5594 -0.6431 -0.1114
  106OSM    H2F10846   6.291   2.079  10.025  1.1330 -0.6610 -0.7628
  106OSM    H2G10847   6.426   2.185  10.006  1.1759  1.8393  1.2148
  106OSM    C3F10848   6.224   2.286   9.996  0.0400 -0.1874 -0.2296
  106OSM    H3F10849   6.282   2.381   9.990 -0.0960 -0.0467  0.5605
  106OSM    H3G10850   6.122   2.294  10.040 -1.0535 -0.9825 -2.4678
  106OSM    C4F10851   6.189   2.259   9.846 -0.7822 -0.1149 -0.3023
  106OSM    H4F10852   6.102   2.320   9.815 -0.9953  0.1122  0.6905
  106OSM    H4G10853   6.152   2.155   9.838 -1.5291  0.0199  1.0409
  106OSM    C5F10854   6.298   2.291   9.745  0.8851  0.1211 -0.1604
  106OSM    H5F10855   6.388   2.227   9.754  0.7801 -0.1714 -1.1388
  106OSM    H5G10856   6.341   2.391   9.763  1.3604 -0.3301  1.4274
  106OSM    C6F10857   6.241   2.282   9.597 -0.5165  0.4297 -0.5032
  106OSM    H6F10858   6.159   2.356   9.586  0.3645  1.2972 -1.4314
  106OSM    H6G10859   6.203   2.179   9.577  2.3670 -0.5832 -1.2953
  106OSM    C7F10860   6.349   2.311   9.492  0.3668  0.7672  0.5737
  106OSM    H7F10861   6.438   2.255   9.530  0.1779  0.3201  0.3586
  106OSM    H7G10862   6.355   2.421   9.476 -3.0872  0.8240 -1.2275
  106OSM    C8F10863   6.326   2.224   9.365  0.7431  0.5597  0.1145
  106OSM    H8F10864   6.346   2.118   9.391  0.3728  0.4948  0.1411
  106OSM    H8G10865   6.404   2.253   9.292  1.0395 -3.3585 -1.3209
  106OSM    C9F10866   6.178   2.233   9.320 -0.2964 -0.3376  0.1574
  106OSM    H9F10867   6.107   2.209   9.400  0.3841 -0.5508  0.7062
  106OSM   C10F10868   6.131   2.266   9.199  0.2778  0.0612 -0.2216
  106OSM   H10F10869   6.023   2.263   9.177 -0.0379  1.7711  0.9046
  106OSM   C11F10870   6.216   2.316   9.086 -0.4062  0.3590  0.0106
  106OSM   H11F10871   6.325   2.299   9.101 -0.2924  0.9235 -0.1645
  106OSM   H11G10872   6.207   2.426   9.072  2.2019  0.7755  0.9388
  106OSM   C12F10873   6.189   2.241   8.955  0.0808 -0.2843  0.0242
  106OSM   H12F10874   6.251   2.296   8.881 -0.9836  0.7482 -0.1351
  106OSM   H12G10875   6.082   2.250   8.926  0.3825  2.5049 -0.5313
  106OSM   C13F10876   6.226   2.094   8.947  0.3096 -0.0490  0.4307
  106OSM   H13F10877   6.152   2.025   8.993  1.0591 -1.2151 -0.0483
  106OSM   H13G10878   6.311   2.070   9.014 -0.8511 -0.8775  1.6553
  106OSM   C14F10879   6.254   2.029   8.806  0.4186 -0.0042 -0.5040
  106OSM   H14F10880   6.276   1.922   8.828 -0.5779  0.2628  2.1422
  106OSM   H14G10881   6.344   2.080   8.766 -1.6475  1.5520 -3.5142
  106OSM   C15F10882   6.138   2.046   8.701  0.3357  0.0697 -0.3544
  106OSM   H15F10883   6.117   2.150   8.667  4.2663  1.1213  0.0007
  106OSM   H15G10884   6.050   2.000   8.751  0.0877  2.2012  1.3253
  106OSM   C16F10885   6.180   1.963   8.570  0.2410 -0.2036 -0.3761
  106OSM   H16F10886   6.275   2.008   8.535  1.2310 -2.0503 -0.1518
  106OSM   H16G10887   6.107   1.985   8.489  0.4527  2.9213  0.1403
  106OSM   C17F10888   6.208   1.813   8.596  0.6825 -0.3035 -0.1318
  106OSM   H17F10889   6.306   1.806   8.647 -0.6632  0.3580  2.7209
  106OSM   H17G10890   6.229   1.768   8.496  3.4875  1.4068 -0.4318
  106OSM   C18F10891   6.100   1.738   8.673 -0.4727  0.9698  0.1459
  106OSM   H18F10892   6.112   1.627   8.679 -3.5433  0.5965  1.4498
  106OSM   H18G10893   6.000   1.762   8.631 -0.6245 -0.8851 -0.6824
  106OSM   H18H10894   6.087   1.766   8.780 -0.6581 -1.0092  0.6925
  107OSM      N10895   2.214   5.678  10.780 -0.2617  0.2286  0.5918
  107OSM    C1510896   2.277   5.545  10.727  0.4981 -0.9515 -0.1027
  107OSM   H15A10897   2.230   5.459  10.771 -2.1479  0.1329 -0.6023
  107OSM   H15B10898   2.384   5.541  10.737  0.4706  0.6313  1.4593
  107OSM   H15C10899   2.249   5.540  10.623 -2.5274  1.9902  0.3656
  107OSM    C1410900   2.068   5.661  10.796 -0.0959  0.0234  0.2155
  107OSM   H14A10901   2.017   5.744  10.843 -1.3700 -1.4380  1.5376
  107OSM   H14B10902   2.060   5.572  10.856 -0.0807 -0.6297 -0.7244
  107OSM   H14C10903   2.025   5.632  10.702 -0.1328 -0.9575  0.5253
  107OSM    C1310904   2.288   5.706  10.911  0.0211  0.1051  0.2072
  107OSM   H13A10905   2.271   5.627  10.983  2.2368  2.5796  3.7592
  107OSM   H13B10906   2.272   5.804  10.953  1.2515  0.4282 -0.0523
  107OSM   H13C10907   2.394   5.711  10.894  0.0417  1.7238  0.5979
  107OSM    C1210908   2.250   5.790  10.686 -0.2172  0.3413  0.3577
  107OSM   H12A10909   2.227   5.751  10.588  0.1604 -0.8013  0.7022
  107OSM   H12B10910   2.356   5.808  10.698  0.0667  0.0069 -1.4101
  107OSM    C1110911   2.162   5.917  10.706  0.5769 -0.2623  0.4812
  107OSM   H11A10912   2.059   5.890  10.675  0.0982  1.0177  0.8795
  107OSM   H11B10913   2.192   5.992  10.630 -0.7009  0.2150  0.4221
  107OSM      P10914   2.065   6.083  10.895  0.3266  0.0904  0.0208
  107OSM    O1310915   1.982   6.004  10.988  0.4291 -0.2463 -0.3857
  107OSM    O1410916   2.122   6.196  10.962  0.3432  0.1050  0.1006
  107OSM    O1110917   1.990   6.122  10.756  0.3390  0.4044  0.3773
  107OSM    O1210918   2.174   5.976  10.843  0.0973 -0.0611  0.4962
  107OSM    C1S10919   2.040   6.212  10.662  0.7154 -1.0472 -0.8474
  107OSM    H1S10920   2.149   6.229  10.666  0.5470  0.0941 -0.5976
  107OSM    H1T10921   1.996   6.313  10.675  0.2640 -1.1523 -1.4717
  107OSM     NF10922   2.062   6.254  10.415  0.2087 -0.1746  0.1211
  107OSM    HNF10923   2.012   6.335  10.386 -0.6609 -0.5129  0.6349
  107OSM    C2S10924   1.995   6.171  10.515  0.3069 -0.3260 -0.0873
  107OSM    H2S10925   2.026   6.066  10.500 -2.4015 -1.2347  0.0180
  107OSM    C3S10926   1.842   6.169  10.511 -0.3112 -0.6374  0.3448
  107OSM    H3S10927   1.799   6.258  10.561  1.1767 -0.2683  1.0377
  107OSM     O310928   1.785   6.054  10.576  0.1892 -0.2154 -0.4928
  107OSM    HO310929   1.840   6.036  10.653 -1.6445 -1.7732  0.5491
  107OSM    C4S10930   1.800   6.159  10.369  0.4595  0.3553 -0.3951
  107OSM    H4S10931   1.804   6.060  10.320  0.3088 -0.7839  1.7637
  107OSM    C5S10932   1.769   6.264  10.289 -0.4879 -0.6005 -0.2897
  107OSM    H5S10933   1.777   6.367  10.326  1.0321 -0.8771  0.2700
  107OSM    C6S10934   1.738   6.264  10.143 -0.4174  0.7220  0.4366
  107OSM    H6S10935   1.628   6.270  10.130 -0.6490  1.9219  2.5255
  107OSM    H6T10936   1.779   6.165  10.112  0.3010  1.2751 -0.4246
  107OSM    C7S10937   1.818   6.373  10.061 -0.4061  1.1148  0.1960
  107OSM    H7S10938   1.924   6.345  10.080  0.0495  2.4328 -0.3256
  107OSM    H7T10939   1.803   6.476  10.100 -0.1834  0.3887  2.3897
  107OSM    C8S10940   1.788   6.356   9.912 -0.7957  1.4492 -0.1294
  107OSM    H8S10941   1.818   6.444   9.850  0.4132  0.4159 -1.0572
  107OSM    H8T10942   1.679   6.351   9.892 -0.5508 -0.8024 -1.1273
  107OSM    C9S10943   1.854   6.233   9.849 -0.4826 -0.7274 -0.1004
  107OSM    H9S10944   1.818   6.141   9.900  0.2447 -0.5807  0.7131
  107OSM    H9T10945   1.960   6.235   9.885 -0.0799  0.2375 -1.2830
  107OSM   C10S10946   1.835   6.211   9.700  0.0504 -0.1800  0.2836
  107OSM   H10S10947   1.727   6.190   9.681  0.2838 -1.5197  0.3356
  107OSM   H10T10948   1.898   6.122   9.680  2.6372  0.5274  4.2329
  107OSM   C11S10949   1.889   6.324   9.614  0.5612 -0.0829  0.7799
  107OSM   H11S10950   1.976   6.363   9.673  0.3663  2.9326 -0.7342
  107OSM   H11T10951   1.816   6.407   9.604  1.0585  0.2041 -0.7295
  107OSM   C12S10952   1.939   6.280   9.471 -0.6704 -0.5887 -0.4472
  107OSM   H12S10953   1.868   6.204   9.432 -0.7298 -0.9825  0.4103
  107OSM   H12T10954   2.034   6.227   9.493 -1.4657 -1.8212  0.1265
  107OSM   C13S10955   1.955   6.393   9.372 -1.1382 -0.2648 -0.8479
  107OSM   H13S10956   2.031   6.464   9.411 -0.8721 -0.1388 -1.5689
  107OSM   H13T10957   1.858   6.448   9.368 -3.1433 -2.9706  3.2175
  107OSM   C14S10958   1.984   6.339   9.232 -0.4403  0.8695 -0.1426
  107OSM   H14S10959   2.071   6.269   9.235 -0.1485  1.1767 -1.0058
  107OSM   H14T10960   2.002   6.418   9.156 -0.1436  0.9505  0.0108
  107OSM   C15S10961   1.872   6.252   9.160  0.1995  0.0561 -0.6675
  107OSM   H15S10962   1.775   6.304   9.170 -0.6449 -0.8031 -3.4823
  107OSM   H15T10963   1.879   6.157   9.217 -0.3638 -0.3014 -1.1892
  107OSM   C16S10964   1.902   6.215   9.019  0.0311  0.5281 -0.7692
  107OSM   H16S10965   1.872   6.108   9.007 -0.9148  0.8700 -1.6145
  107OSM   H16T10966   2.010   6.196   9.008 -0.2547 -3.4279  1.3805
  107OSM   C17S10967   1.827   6.304   8.920  0.1941 -0.5326  0.6016
  107OSM   H17S10968   1.853   6.410   8.941 -2.0151 -0.0282  1.0455
  107OSM   H17T10969   1.719   6.287   8.939  0.3824  0.8154  3.4585
  107OSM   C18S10970   1.854   6.259   8.782 -0.9289 -0.8064  0.2477
  107OSM   H18S10971   1.797   6.313   8.703 -0.3333  2.2779  1.7578
  107OSM   H18T10972   1.852   6.150   8.760 -0.0544 -0.4849 -1.6061
  107OSM   H18U10973   1.956   6.295   8.757  0.0950 -3.7826 -0.2587
  107OSM    C1F10974   2.187   6.238  10.374  0.3640  0.8468  0.2112
  107OSM     OF10975   2.266   6.176  10.448  0.1114 -0.1066  0.5956
  107OSM    C2F10976   2.218   6.274  10.232 -0.3749 -0.5021 -0.2256
  107OSM    H2F10977   2.150   6.224  10.160  1.7352 -0.4814 -2.3974
  107OSM    H2G10978   2.325   6.249  10.211  0.0090  2.0742 -1.7403
  107OSM    C3F10979   2.218   6.428  10.192  0.0710 -0.1854  0.4731
  107OSM    H3F10980   2.274   6.487  10.268 -0.6594  0.1292  0.7841
  107OSM    H3G10981   2.114   6.469  10.195  0.2877  0.4836 -0.5846
  107OSM    C4F10982   2.291   6.459  10.062 -0.2363 -0.9939  0.7493
  107OSM    H4F10983   2.393   6.418  10.075 -0.9410 -2.6917  1.2407
  107OSM    H4G10984   2.302   6.570  10.054  1.0993 -1.1417  0.1857
  107OSM    C5F10985   2.227   6.424   9.927  0.0389  0.2018 -0.1146
  107OSM    H5F10986   2.135   6.482   9.904 -0.1812 -0.7526 -1.8377
  107OSM    H5G10987   2.214   6.314   9.916  2.5108  0.0119 -1.9597
  107OSM    C6F10988   2.318   6.458   9.807 -0.5594  0.5940  0.9004
  107OSM    H6F10989   2.408   6.393   9.805 -0.4586  0.6958 -1.5352
  107OSM    H6G10990   2.365   6.558   9.819  1.3580  0.4464 -3.4430
  107OSM    C7F10991   2.241   6.435   9.668 -0.2001 -0.0478 -0.4750
  107OSM    H7F10992   2.148   6.496   9.673 -0.9054 -1.1998  1.1023
  107OSM    H7G10993   2.214   6.329   9.649 -0.1898 -0.4370  1.5001
  107OSM    C8F10994   2.310   6.482   9.547 -0.0608  0.4832 -0.6126
  107OSM    H8F10995   2.331   6.591   9.546  0.2810  0.4235 -0.3597
  107OSM    H8G10996   2.238   6.476   9.463 -0.2014 -0.0819 -0.4588
  107OSM    C9F10997   2.435   6.396   9.529  0.4153 -0.1555 -0.1486
  107OSM    H9F10998   2.511   6.395   9.608  1.4672 -0.4718 -1.1542
  107OSM   C10F10999   2.452   6.313   9.428  0.0320  0.2678 -0.9574
  107OSM   H10F11000   2.552   6.267   9.428  1.2676  2.6313  2.0527
  107OSM   C11F11001   2.356   6.297   9.310 -0.8213 -0.1789 -0.6266
  107OSM   H11F11002   2.253   6.326   9.337  0.3160  2.8455  0.9456
  107OSM   H11G11003   2.364   6.190   9.279 -1.8639 -1.0623  1.9251
  107OSM   C12F11004   2.402   6.390   9.197  0.0968 -0.4463 -0.3777
  107OSM   H12F11005   2.501   6.353   9.164  0.2836  0.5501 -0.9538
  107OSM   H12G11006   2.414   6.492   9.240 -0.5532 -1.7511  3.2858
  107OSM   C13F11007   2.320   6.377   9.069 -0.2365 -0.2273 -0.2977
  107OSM   H13F11008   2.228   6.437   9.086 -0.5486  0.3667 -3.6000
  107OSM   H13G11009   2.293   6.271   9.048  1.9049 -0.3435 -2.9936
  107OSM   C14F11010   2.385   6.447   8.946  0.5215  0.2868 -0.3511
  107OSM   H14F11011   2.479   6.390   8.938 -0.0394 -0.6243 -0.6302
  107OSM   H14G11012   2.399   6.554   8.973 -1.4672  0.8518 -1.3702
  107OSM   C15F11013   2.315   6.435   8.813  0.4646 -0.1182 -0.5120
  107OSM   H15F11014   2.379   6.471   8.731 -0.2846  0.8728 -0.6817
  107OSM   H15G11015   2.219   6.489   8.797  1.2652  1.9193  1.1603
  107OSM   C16F11016   2.272   6.287   8.794  0.2135  0.0017  1.0640
  107OSM   H16F11017   2.177   6.281   8.851  0.1294  0.6049  0.9897
  107OSM   H16G11018   2.336   6.206   8.836 -1.9452 -2.5556 -0.2820
  107OSM   C17F11019   2.244   6.258   8.652  0.7345  1.3314 -0.0448
  107OSM   H17F11020   2.340   6.264   8.596  0.3647  2.2751 -0.5890
  107OSM   H17G11021   2.175   6.332   8.607 -2.5409 -2.1175 -1.2222
  107OSM   C18F11022   2.174   6.123   8.627 -0.5922 -0.9679  0.2395
  107OSM   H18F11023   2.174   6.103   8.517 -0.4071 -0.7810  0.2051
  107OSM   H18G11024   2.068   6.126   8.660 -1.0203  0.5155 -1.1606
  107OSM   H18H11025   2.222   6.040   8.684  2.1574 -0.8955 -1.7744
  108OSM      N11026   6.246   1.631  10.738  0.3815  0.6126  0.5549
  108OSM    C1511027   6.300   1.594  10.865  1.1048 -1.2794  0.0939
  108OSM   H15A11028   6.383   1.652  10.903 -0.0575 -1.4567  3.1727
  108OSM   H15B11029   6.331   1.491  10.861  1.3146 -1.1808 -1.0970
  108OSM   H15C11030   6.223   1.597  10.941 -0.7834 -1.9840 -1.6956
  108OSM    C1411031   6.352   1.610  10.632  0.5758  0.8870  0.9190
  108OSM   H14A11032   6.378   1.506  10.624  1.9344  1.3381 -1.2583
  108OSM   H14B11033   6.439   1.663  10.669  0.9907 -0.4656  1.9574
  108OSM   H14C11034   6.311   1.643  10.538  1.3430  0.4166  0.4073
  108OSM    C1311035   6.139   1.531  10.701 -0.4810  0.2517 -0.7049
  108OSM   H13A11036   6.054   1.546  10.767 -0.6914  2.3645 -1.3852
  108OSM   H13B11037   6.185   1.434  10.704 -0.0834  0.4219 -1.2135
  108OSM   H13C11038   6.101   1.541  10.601 -3.1932 -1.8763 -0.0006
  108OSM    C1211039   6.187   1.767  10.741 -0.0267  0.8663  0.4456
  108OSM   H12A11040   6.173   1.806  10.641  0.3994  0.7753  0.3495
  108OSM   H12B11041   6.266   1.828  10.782  0.4400  0.9612 -0.5719
  108OSM    C1111042   6.056   1.786  10.816  0.3499  0.6464  0.4955
  108OSM   H11A11043   6.046   1.897  10.822 -4.0237  0.4390  0.6851
  108OSM   H11B11044   6.070   1.732  10.912  0.0218 -0.8817 -0.2910
  108OSM      P11045   5.804   1.816  10.753  0.3105 -0.1160 -0.0046
  108OSM    O1311046   5.729   1.773  10.633 -0.2209  0.4666  0.4432
  108OSM    O1411047   5.738   1.793  10.881  0.0814  0.3897 -0.3359
  108OSM    O1111048   5.847   1.973  10.731  0.0602  0.4896 -0.1752
  108OSM    O1211049   5.940   1.730  10.756  0.3500  0.1434 -0.6015
  108OSM    C1S11050   5.909   2.033  10.616  0.4437  0.9891 -0.3825
  108OSM    H1S11051   5.979   1.966  10.563  1.9950  0.6902  1.8972
  108OSM    H1T11052   5.968   2.119  10.653 -0.3294  1.0716  0.7089
  108OSM     NF11053   5.852   2.127  10.399 -0.7404  0.2018  0.2090
  108OSM    HNF11054   5.870   2.225  10.401 -0.0644  0.1119  3.3903
  108OSM    C2S11055   5.794   2.094  10.528  0.3355  0.0283  0.2138
  108OSM    H2S11056   5.711   2.021  10.514  1.2654 -0.7729 -1.3129
  108OSM    C3S11057   5.725   2.223  10.588 -0.2069 -0.5157 -0.4808
  108OSM    H3S11058   5.802   2.301  10.606  0.1112 -0.8340 -0.4351
  108OSM     O311059   5.665   2.197  10.713 -0.0703  0.5773  0.4247
  108OSM    HO311060   5.715   2.125  10.752  0.0669  0.7026  0.4799
  108OSM    C4S11061   5.611   2.267  10.501 -0.0113  0.0629  0.4964
  108OSM    H4S11062   5.526   2.199  10.483  0.0193  0.5497 -1.7525
  108OSM    C5S11063   5.612   2.385  10.434  0.6049  0.0139 -0.5153
  108OSM    H5S11064   5.696   2.451  10.458 -0.5059  1.2526  0.0899
  108OSM    C6S11065   5.491   2.433  10.347 -0.2249 -0.1875  0.2492
  108OSM    H6S11066   5.468   2.537  10.379  0.6222  0.6862 -1.7840
  108OSM    H6T11067   5.404   2.366  10.365  1.7380 -3.1347 -0.5344
  108OSM    C7S11068   5.517   2.421  10.195 -0.3960 -0.1654 -1.0459
  108OSM    H7S11069   5.538   2.316  10.165  1.5342  0.7022 -3.0266
  108OSM    H7T11070   5.606   2.475  10.157 -0.7877  0.6955 -0.7436
  108OSM    C8S11071   5.403   2.470  10.115  0.0622  0.3147 -0.1781
  108OSM    H8S11072   5.407   2.581  10.110  0.4129  0.4320  1.8709
  108OSM    H8T11073   5.311   2.434  10.165 -0.1387  0.6430 -0.3072
  108OSM    C9S11074   5.416   2.410   9.976  0.7646  0.6898 -0.3283
  108OSM    H9S11075   5.415   2.299   9.982 -0.0077  0.6741 -0.5394
  108OSM    H9T11076   5.516   2.431   9.935  0.4804 -0.9188 -1.9891
  108OSM   C10S11077   5.322   2.470   9.873  0.4842 -0.0221 -0.3462
  108OSM   H10S11078   5.320   2.580   9.886  1.2832  0.2124 -2.0045
  108OSM   H10T11079   5.221   2.431   9.897 -0.1717 -0.1650 -3.0335
  108OSM   C11S11080   5.342   2.423   9.731 -0.1374  0.1784  0.7242
  108OSM   H11S11081   5.426   2.485   9.692 -0.2663  0.5446  1.0123
  108OSM   H11T11082   5.251   2.452   9.675 -0.8230 -0.4970  1.4599
  108OSM   C12S11083   5.372   2.276   9.706  0.0923  0.3757  0.0674
  108OSM   H12S11084   5.308   2.209   9.767  0.6737 -0.0533  0.2118
  108OSM   H12T11085   5.477   2.254   9.732  0.3194  2.1012  0.7294
  108OSM   C13S11086   5.347   2.233   9.560  0.6489  0.1614 -0.4504
  108OSM   H13S11087   5.255   2.289   9.534 -1.9389 -2.1826  2.8009
  108OSM   H13T11088   5.327   2.124   9.552  3.6488 -0.3916 -1.8716
  108OSM   C14S11089   5.473   2.265   9.467  0.3646  0.4514  0.1487
  108OSM   H14S11090   5.567   2.224   9.508 -1.8418 -3.7281  1.5473
  108OSM   H14T11091   5.479   2.376   9.460  0.8144  0.3710 -0.9235
  108OSM   C15S11092   5.451   2.183   9.338 -0.2010  0.7913 -0.8491
  108OSM   H15S11093   5.433   2.076   9.363 -0.4766  1.1179  0.4321
  108OSM   H15T11094   5.543   2.180   9.275  2.2282  2.0662  2.3522
  108OSM   C16S11095   5.361   2.255   9.239  0.5175  0.1673 -0.6596
  108OSM   H16S11096   5.406   2.349   9.201 -0.4284  1.1666  0.5917
  108OSM   H16T11097   5.275   2.297   9.295  1.6301  0.8422  0.5742
  108OSM   C17S11098   5.300   2.175   9.126  0.3703 -0.2306  0.4136
  108OSM   H17S11099   5.223   2.099   9.152  0.3776 -0.7150 -0.8998
  108OSM   H17T11100   5.376   2.113   9.073 -1.7449 -2.4337 -0.2305
  108OSM   C18S11101   5.224   2.271   9.026  0.3930 -0.2649  0.4966
  108OSM   H18S11102   5.165   2.339   9.091  2.3022  0.3863  1.6369
  108OSM   H18T11103   5.153   2.210   8.965  1.0994  0.1871 -0.8091
  108OSM   H18U11104   5.288   2.329   8.957  2.2152 -0.8752  1.6011
  108OSM    C1F11105   5.877   2.043  10.295  0.4797 -0.1794 -0.6957
  108OSM     OF11106   5.873   1.918  10.316 -0.6842 -0.3735 -0.4294
  108OSM    C2F11107   5.905   2.105  10.164  0.4014 -0.5174 -0.5621
  108OSM    H2F11108   6.013   2.094  10.142 -0.1799 -1.6082 -3.2605
  108OSM    H2G11109   5.882   2.214  10.165 -0.3970 -0.6192 -2.5778
  108OSM    C3F11110   5.828   2.033  10.049  0.8821 -0.2404  0.2296
  108OSM    H3F11111   5.717   2.044  10.046  0.6876 -1.7221  0.9342
  108OSM    H3G11112   5.854   1.925  10.056  0.6358 -0.2293  1.7713
  108OSM    C4F11113   5.873   2.083   9.916 -0.3448 -0.2459  0.1186
  108OSM    H4F11114   5.984   2.072   9.913  0.2043  3.9529 -0.4347
  108OSM    H4G11115   5.863   2.193   9.912  3.0609  0.1469 -1.9502
  108OSM    C5F11116   5.807   2.006   9.807 -0.5042  0.0220 -0.0485
  108OSM    H5F11117   5.698   2.029   9.812 -0.8593 -1.1164 -1.6501
  108OSM    H5G11118   5.807   1.897   9.833 -0.5305 -0.4996 -2.0637
  108OSM    C6F11119   5.861   2.033   9.672 -0.0386  0.2692 -0.1204
  108OSM    H6F11120   5.966   1.997   9.669 -0.2508 -0.4559  0.6309
  108OSM    H6G11121   5.867   2.142   9.649 -0.7463  0.2363 -0.4694
  108OSM    C7F11122   5.787   1.969   9.550  0.0861  0.1119  0.1215
  108OSM    H7F11123   5.680   1.995   9.562 -0.0179 -0.1537 -0.2132
  108OSM    H7G11124   5.796   1.858   9.554  1.2372  0.0019 -2.7937
  108OSM    C8F11125   5.826   2.025   9.413  0.4117 -0.2769 -0.3645
  108OSM    H8F11126   5.887   2.118   9.425  1.2037 -1.0049  1.7403
  108OSM    H8G11127   5.732   2.048   9.359  0.0308 -3.2785 -1.1232
  108OSM    C9F11128   5.911   1.937   9.329 -0.5014  0.5064 -0.0643
  108OSM    H9F11129   5.972   1.868   9.390  0.8216  1.8668  0.2399
  108OSM   C10F11130   5.912   1.941   9.197  0.8769 -0.7652 -0.1102
  108OSM   H10F11131   5.972   1.874   9.135 -0.3205 -0.1777 -2.0023
  108OSM   C11F11132   5.839   2.049   9.116  1.1009 -0.6517  0.3135
  108OSM   H11F11133   5.911   2.087   9.040 -0.9605  0.5457 -1.1370
  108OSM   H11G11134   5.815   2.140   9.174  0.9267 -0.3675 -0.1984
  108OSM   C12F11135   5.713   2.000   9.054  0.0089 -0.2007 -0.5476
  108OSM   H12F11136   5.647   1.942   9.123 -0.8340 -0.2934 -1.4142
  108OSM   H12G11137   5.745   1.929   8.975  2.2250 -0.9738  0.9489
  108OSM   C13F11138   5.629   2.112   8.994  0.4267 -0.2252 -0.4698
  108OSM   H13F11139   5.596   2.175   9.080  2.3984  0.9762 -0.5237
  108OSM   H13G11140   5.541   2.074   8.938 -1.2833  1.8728  0.6304
  108OSM   C14F11141   5.706   2.202   8.905  0.2460 -0.5824  1.1821
  108OSM   H14F11142   5.792   2.241   8.964  1.1333 -2.4944  1.2343
  108OSM   H14G11143   5.637   2.280   8.865  1.8646 -0.3068 -1.2723
  108OSM   C15F11144   5.772   2.135   8.780  1.1452  0.6273  0.2889
  108OSM   H15F11145   5.860   2.073   8.809 -0.1696 -1.1344  0.6900
  108OSM   H15G11146   5.813   2.214   8.715  2.7553 -0.1609  0.2912
  108OSM   C16F11147   5.671   2.047   8.699 -0.6159 -0.2159  0.2030
  108OSM   H16F11148   5.581   2.105   8.669 -0.5063  1.0323  2.0871
  108OSM   H16G11149   5.642   1.965   8.768  0.8059  0.2269  1.3945
  108OSM   C17F11150   5.747   1.994   8.579  0.6789  1.4144 -0.4836
  108OSM   H17F11151   5.851   1.967   8.606  0.4030 -1.0690 -1.5668
  108OSM   H17G11152   5.749   2.081   8.510  1.9135  1.1263 -0.8334
  108OSM   C18F11153   5.679   1.874   8.511  0.0712  0.4754  0.3003
  108OSM   H18F11154   5.745   1.813   8.446 -1.3902  0.3290 -1.1064
  108OSM   H18G11155   5.607   1.923   8.442  1.5526 -2.0190 -3.3374
  108OSM   H18H11156   5.621   1.805   8.575  1.7221 -0.9824  0.2793
  109OSM      N11157   3.752   5.054  10.822 -0.5321 -0.3809  0.2411
  109OSM    C1511158   3.790   4.927  10.895  0.1756  0.5035  0.5022
  109OSM   H15A11159   3.741   4.932  10.991 -2.6561  1.6563 -0.8856
  109OSM   H15B11160   3.897   4.924  10.906  0.2707 -1.0254 -0.4330
  109OSM   H15C11161   3.754   4.837  10.847 -1.2186 -1.3734  4.5953
  109OSM    C1411162   3.801   5.177  10.898 -0.7586  0.5754 -0.6059
  109OSM   H14A11163   3.909   5.172  10.891 -0.7280 -0.4891  0.2657
  109OSM   H14B11164   3.779   5.155  11.001  0.3798 -0.2602 -0.5204
  109OSM   H14C11165   3.767   5.276  10.872  2.9036  2.5008  1.2084
  109OSM    C1311166   3.802   5.048  10.690 -0.0426  0.6136  0.2420
  109OSM   H13A11167   3.781   5.131  10.625  4.8649  1.0005 -1.3099
  109OSM   H13B11168   3.768   4.962  10.635  0.6648  1.6668 -1.9622
  109OSM   H13C11169   3.909   5.035  10.684 -0.3551 -1.7519 -1.3519
  109OSM    C1211170   3.606   5.066  10.815 -0.2002  0.1789  0.8515
  109OSM   H12A11171   3.569   4.998  10.739  1.6850  1.0818 -0.9851
  109OSM   H12B11172   3.575   5.163  10.779 -1.8582 -1.5286 -2.9044
  109OSM    C1111173   3.524   5.046  10.943  0.2307  0.4485 -0.2897
  109OSM   H11A11174   3.562   4.955  10.994  1.1001 -0.2546 -2.1033
  109OSM   H11B11175   3.415   5.030  10.923  0.9135 -1.3325 -3.1727
  109OSM      P11176   3.463   5.282  11.029 -0.1041  0.3516  0.0014
  109OSM    O1311177   3.338   5.250  11.103  0.8134  0.5090  1.3022
  109OSM    O1411178   3.550   5.392  11.087  0.3137 -0.1431  0.2808
  109OSM    O1111179   3.445   5.300  10.877  0.0382 -0.2760 -0.1505
  109OSM    O1211180   3.551   5.153  11.032 -0.2755  0.5665 -0.0861
  109OSM    C1S11181   3.370   5.409  10.821 -0.0660 -0.4479  0.4452
  109OSM    H1S11182   3.399   5.502  10.874  0.9884 -0.5957  0.1482
  109OSM    H1T11183   3.262   5.399  10.844 -0.1240 -1.0966 -0.0806
  109OSM     NF11184   3.348   5.552  10.641 -0.1993  0.4448  0.1024
  109OSM    HNF11185   3.275   5.558  10.574 -0.6736  0.5717  0.6183
  109OSM    C2S11186   3.396   5.421  10.672  0.0187 -0.2533  0.6985
  109OSM    H2S11187   3.506   5.418  10.659  0.0443  0.1945  0.7749
  109OSM    C3S11188   3.325   5.312  10.597 -0.0248  0.1362  0.2938
  109OSM    H3S11189   3.216   5.326  10.612 -0.7036 -0.5589 -3.1876
  109OSM     O311190   3.364   5.186  10.649  0.2818  0.4046  0.4835
  109OSM    HO311191   3.394   5.217  10.735  1.0660 -0.4017  0.5091
  109OSM    C4S11192   3.344   5.328  10.448  0.2105  0.4561  0.0967
  109OSM    H4S11193   3.298   5.413  10.397 -2.2924 -0.8610  0.0039
  109OSM    C5S11194   3.435   5.261  10.375  0.1522 -0.0851  0.1697
  109OSM    H5S11195   3.500   5.187  10.423  2.0004  1.0655 -0.4807
  109OSM    C6S11196   3.469   5.278  10.226  0.9522 -0.2723 -0.4080
  109OSM    H6S11197   3.574   5.246  10.208  1.3835  1.6197 -1.4944
  109OSM    H6T11198   3.448   5.384  10.201  0.0108 -0.3893 -0.1438
  109OSM    C7S11199   3.374   5.193  10.138 -0.4477 -0.0133  0.3359
  109OSM    H7S11200   3.271   5.201  10.177 -0.2944  0.2430  0.7013
  109OSM    H7T11201   3.417   5.092  10.149 -0.6620 -0.2122 -0.5377
  109OSM    C8S11202   3.373   5.244   9.989 -0.4465  0.3014 -0.5129
  109OSM    H8S11203   3.362   5.354   9.976 -0.2669  0.4034  0.1324
  109OSM    H8T11204   3.292   5.195   9.932  0.4040 -2.0457  0.1944
  109OSM    C9S11205   3.502   5.211   9.913  0.0011 -0.0706  0.1910
  109OSM    H9S11206   3.545   5.111   9.934 -0.7260 -0.1638  1.3118
  109OSM    H9T11207   3.583   5.282   9.942  1.1567 -0.8444 -1.0138
  109OSM   C10S11208   3.483   5.227   9.763 -0.1649 -0.0034  1.0933
  109OSM   H10S11209   3.429   5.323   9.749 -0.6844 -0.5030 -0.5336
  109OSM   H10T11210   3.417   5.145   9.728 -0.5965  0.1043  1.6469
  109OSM   C11S11211   3.609   5.234   9.670  0.0198 -0.1527 -0.1912
  109OSM   H11S11212   3.677   5.155   9.709 -2.5671 -3.0783 -1.2747
  109OSM   H11T11213   3.650   5.336   9.689 -0.0746 -0.0894 -0.3242
  109OSM   C12S11214   3.580   5.213   9.523 -0.5989 -0.0690  0.1631
  109OSM   H12S11215   3.534   5.112   9.517  1.5148 -1.1049  0.4635
  109OSM   H12T11216   3.673   5.208   9.463 -1.2205  3.8189 -1.3940
  109OSM   C13S11217   3.502   5.330   9.464  0.2437 -0.5174  0.0498
  109OSM   H13S11218   3.474   5.414   9.532 -2.3545 -0.6378 -0.7969
  109OSM   H13T11219   3.410   5.281   9.427 -0.6122  1.7286 -0.9500
  109OSM   C14S11220   3.559   5.394   9.331 -0.3523 -0.1915  0.2791
  109OSM   H14S11221   3.670   5.398   9.333 -0.2516 -2.4450  2.1245
  109OSM   H14T11222   3.522   5.499   9.338  0.8447  0.4754 -2.2571
  109OSM   C15S11223   3.507   5.331   9.200 -1.0342 -0.5138  0.0958
  109OSM   H15S11224   3.397   5.340   9.190 -1.0018  1.5104  1.1443
  109OSM   H15T11225   3.531   5.223   9.209  1.2447 -0.2089 -1.4673
  109OSM   C16S11226   3.567   5.399   9.074 -1.0071  0.2180  0.2145
  109OSM   H16S11227   3.676   5.383   9.084 -0.7353  0.4700 -1.9393
  109OSM   H16T11228   3.540   5.507   9.072  0.9980  0.7606 -2.2046
  109OSM   C17S11229   3.519   5.342   8.939  0.4970 -0.0908  0.0421
  109OSM   H17S11230   3.416   5.380   8.920  0.5396 -0.3936 -0.8555
  109OSM   H17T11231   3.518   5.231   8.945  0.0113 -0.0826  0.1659
  109OSM   C18S11232   3.606   5.385   8.822  0.4298  0.5322 -0.2908
  109OSM   H18S11233   3.599   5.492   8.792 -0.6895  0.3062 -0.9105
  109OSM   H18T11234   3.570   5.334   8.730 -1.1552  0.0251  0.5631
  109OSM   H18U11235   3.709   5.348   8.841  0.1894 -0.8355 -1.4407
  109OSM    C1F11236   3.422   5.658  10.654 -0.0034 -0.4724  0.1824
  109OSM     OF11237   3.544   5.656  10.684  0.2445  0.1852  0.4552
  109OSM    C2F11238   3.354   5.784  10.632  0.0326  0.0961 -0.1105
  109OSM    H2F11239   3.333   5.835  10.728 -2.0740 -0.2499 -0.3510
  109OSM    H2G11240   3.254   5.769  10.587 -0.3939  1.4228  0.3476
  109OSM    C3F11241   3.438   5.894  10.547  0.2850 -0.4078 -0.2528
  109OSM    H3F11242   3.546   5.904  10.573 -0.0690 -0.2444  1.2436
  109OSM    H3G11243   3.381   5.989  10.554  0.5161  0.0012 -2.9268
  109OSM    C4F11244   3.443   5.852  10.401  0.3600  0.2813  0.0386
  109OSM    H4F11245   3.347   5.860  10.346  1.4430  1.9352 -1.7731
  109OSM    H4G11246   3.471   5.745  10.397 -1.7713 -0.2952 -0.7249
  109OSM    C5F11247   3.546   5.936  10.329  0.5472  0.8439  0.3543
  109OSM    H5F11248   3.644   5.936  10.381  1.0368  1.4093 -0.5444
  109OSM    H5G11249   3.513   6.042  10.332 -1.9426  0.1058  1.4450
  109OSM    C6F11250   3.561   5.902  10.181 -0.1650  0.1895 -0.4205
  109OSM    H6F11251   3.466   5.919  10.125  0.4955 -0.1631 -1.6744
  109OSM    H6G11252   3.570   5.791  10.181 -2.5178 -0.0604 -0.0969
  109OSM    C7F11253   3.689   5.946  10.108 -0.0130 -0.0628  0.7710
  109OSM    H7F11254   3.695   5.898  10.008 -0.4667  1.2773  0.0825
  109OSM    H7G11255   3.770   5.901  10.170 -1.1839  0.0422  2.4407
  109OSM    C8F11256   3.702   6.097  10.090 -0.1142  0.7131  0.3217
  109OSM    H8F11257   3.807   6.120  10.061 -0.2936  0.6465 -0.3955
  109OSM    H8G11258   3.670   6.139  10.188 -1.7951  0.5098 -0.1077
  109OSM    C9F11259   3.604   6.154   9.983 -0.1448  0.2261  0.2998
  109OSM    H9F11260   3.508   6.193  10.021 -0.4727  0.4381 -0.7204
  109OSM   C10F11261   3.637   6.180   9.859 -0.9417  0.5898 -0.2368
  109OSM   H10F11262   3.558   6.221   9.794 -3.1827 -2.1471  0.5711
  109OSM   C11F11263   3.763   6.134   9.798  0.1802  0.1975  0.7992
  109OSM   H11F11264   3.799   6.042   9.848  0.9762 -1.0804 -1.9451
  109OSM   H11G11265   3.840   6.214   9.787  0.1320 -0.0063 -1.8346
  109OSM   C12F11266   3.756   6.094   9.644  0.2114 -0.0314  0.4375
  109OSM   H12F11267   3.687   6.007   9.636 -0.0484  0.2978 -1.4372
  109OSM   H12G11268   3.856   6.058   9.611 -1.0820 -4.9509  1.0412
  109OSM   C13F11269   3.714   6.212   9.546  0.7466  0.4266 -0.2121
  109OSM   H13F11270   3.633   6.265   9.600 -0.1084 -1.4638  0.4370
  109OSM   H13G11271   3.672   6.167   9.454 -0.7451  1.2557  0.0238
  109OSM   C14F11272   3.835   6.304   9.524  0.6152 -0.8170  0.4881
  109OSM   H14F11273   3.895   6.272   9.436  1.3032  3.5706 -0.9151
  109OSM   H14G11274   3.901   6.304   9.613 -0.0265  0.3236  0.9814
  109OSM   C15F11275   3.787   6.449   9.488 -0.6897  0.4357  0.7851
  109OSM   H15F11276   3.723   6.487   9.571 -3.4162 -1.1557 -0.4705
  109OSM   H15G11277   3.722   6.431   9.400  1.2642  0.5312 -0.7534
  109OSM   C16F11278   3.896   6.547   9.460 -0.3432  0.3318  0.9162
  109OSM   H16F11279   3.959   6.505   9.379 -0.5254  0.9744  0.4332
  109OSM   H16G11280   3.953   6.571   9.552 -0.3831 -0.9477  1.2925
  109OSM   C17F11281   3.824   6.673   9.413  0.3248  0.2425 -0.8470
  109OSM   H17F11282   3.809   6.744   9.498 -0.3304 -0.3163 -0.4844
  109OSM   H17G11283   3.728   6.641   9.367 -0.9157 -1.4931  2.5668
  109OSM   C18F11284   3.913   6.746   9.315 -0.1422  0.4592  0.0839
  109OSM   H18F11285   3.869   6.842   9.282  0.8580  1.7442  2.2658
  109OSM   H18G11286   3.940   6.684   9.227  0.3942  1.4732 -0.4724
  109OSM   H18H11287   4.007   6.766   9.371  0.2111  1.2632 -0.7764
  110OSM      N11288   4.986   5.662  10.967  0.2903 -0.1695  0.0448
  110OSM    C1511289   5.031   5.799  10.938  0.2753  0.6171 -0.5807
  110OSM   H15A11290   5.013   5.866  11.020  0.9033  0.2480 -0.1323
  110OSM   H15B11291   4.962   5.847  10.870 -0.1864 -0.4267 -0.8596
  110OSM   H15C11292   5.129   5.823  10.899  0.1197  2.7550  0.2226
  110OSM    C1411293   5.086   5.595  11.055 -0.5042 -0.2411 -0.1965
  110OSM   H14A11294   5.050   5.508  11.109  0.5420  0.0263  0.9659
  110OSM   H14B11295   5.136   5.657  11.128  0.4273 -2.7366  1.4225
  110OSM   H14C11296   5.171   5.563  10.997  0.2056  0.3096  0.5237
  110OSM    C1311297   4.850   5.669  11.031 -0.7827 -0.4542 -0.2536
  110OSM   H13A11298   4.786   5.725  10.964  2.5866  3.7595 -0.4354
  110OSM   H13B11299   4.840   5.716  11.128 -1.9065  1.3230 -1.1734
  110OSM   H13C11300   4.809   5.571  11.048 -1.2305  0.3080  4.3382
  110OSM    C1211301   4.957   5.587  10.839 -0.2755  0.4115 -0.4259
  110OSM   H12A11302   5.049   5.597  10.782  1.6328 -1.1461  2.1682
  110OSM   H12B11303   4.877   5.639  10.789 -0.7590 -1.4596 -1.6936
  110OSM    C1111304   4.914   5.436  10.846  0.1037  0.1972  0.5405
  110OSM   H11A11305   4.998   5.383  10.897  3.2165  1.1295 -3.1813
  110OSM   H11B11306   4.911   5.395  10.743 -0.6245 -0.2561  0.7332
  110OSM      P11307   4.667   5.324  10.854 -0.1373  0.1633  0.2636
  110OSM    O1311308   4.714   5.242  10.744 -0.1367  0.2378 -0.1496
  110OSM    O1411309   4.601   5.251  10.962  0.1223 -0.0241 -0.3254
  110OSM    O1111310   4.560   5.424  10.792 -0.5377  0.6579 -0.5611
  110OSM    O1211311   4.784   5.423  10.909 -0.4065  0.6917  0.3227
  110OSM    C1S11312   4.593   5.540  10.720 -0.5740  0.2003  0.1098
  110OSM    H1S11313   4.701   5.566  10.731 -0.3923 -1.0908  1.6334
  110OSM    H1T11314   4.533   5.622  10.765 -0.2818  0.9467 -0.8058
  110OSM     NF11315   4.568   5.671  10.520  0.0154 -0.2235 -0.2762
  110OSM    HNF11316   4.476   5.707  10.504 -1.1697 -3.3007 -1.2956
  110OSM    C2S11317   4.566   5.533  10.564  0.5962 -0.0732 -0.0124
  110OSM    H2S11318   4.650   5.482  10.512  0.6811  0.6447 -0.5932
  110OSM    C3S11319   4.442   5.444  10.535  0.0876  0.1134 -0.2922
  110OSM    H3S11320   4.357   5.481  10.596  0.6328 -0.1340  0.6419
  110OSM     O311321   4.450   5.309  10.574  0.5510 -0.4089  0.0574
  110OSM    HO311322   4.515   5.304  10.644 -1.4436 -0.2331  2.0327
  110OSM    C4S11323   4.403   5.461  10.390 -0.1164 -0.2226 -0.2654
  110OSM    H4S11324   4.350   5.555  10.367 -0.1108 -0.5301 -1.6021
  110OSM    C5S11325   4.406   5.367  10.295 -0.0234 -0.1040  0.6897
  110OSM    H5S11326   4.438   5.268  10.331  3.3951  0.7015  0.2385
  110OSM    C6S11327   4.358   5.381  10.154 -0.2487  0.1796 -0.0266
  110OSM    H6S11328   4.301   5.288  10.133 -0.8962  0.4034  0.7157
  110OSM    H6T11329   4.442   5.385  10.080  1.0803  0.6144  1.4560
  110OSM    C7S11330   4.294   5.520  10.116  0.7591  0.3634  0.3486
  110OSM    H7S11331   4.361   5.609  10.118  0.0916  0.9061  3.0799
  110OSM    H7T11332   4.212   5.534  10.190  0.9338 -1.6533  0.9775
  110OSM    C8S11333   4.223   5.516   9.975  0.4766  0.1878  0.9089
  110OSM    H8S11334   4.162   5.608   9.969 -1.6108 -1.0840  1.5787
  110OSM    H8T11335   4.150   5.433   9.969  0.7688 -0.0793  0.9833
  110OSM    C9S11336   4.321   5.513   9.859 -0.2848 -0.1719  0.0817
  110OSM    H9S11337   4.425   5.495   9.895 -0.1452  1.7703  0.7320
  110OSM    H9T11338   4.321   5.608   9.802  2.7960 -1.7631 -3.0051
  110OSM   C10S11339   4.286   5.404   9.757 -0.2735 -0.3339  0.0888
  110OSM   H10S11340   4.198   5.438   9.698 -2.1166 -1.3514  2.0920
  110OSM   H10T11341   4.278   5.310   9.816  4.0699 -0.6553  0.4724
  110OSM   C11S11342   4.409   5.383   9.659 -0.0508 -0.3610 -0.2694
  110OSM   H11S11343   4.384   5.305   9.583  0.8456 -0.6076 -0.3207
  110OSM   H11T11344   4.494   5.343   9.718  0.0525  2.8063  1.9521
  110OSM   C12S11345   4.448   5.513   9.580 -0.4139  0.1908  0.3602
  110OSM   H12S11346   4.484   5.597   9.645  1.6204  1.0140 -1.6952
  110OSM   H12T11347   4.350   5.556   9.551 -0.6316 -0.0681  0.7119
  110OSM   C13S11348   4.551   5.492   9.481 -0.3292 -0.3726 -0.0479
  110OSM   H13S11349   4.525   5.404   9.417 -1.3141 -0.0164 -0.1468
  110OSM   H13T11350   4.647   5.462   9.528 -0.7635 -0.8650  0.5328
  110OSM   C14S11351   4.576   5.613   9.387  0.3259  0.1443 -0.4982
  110OSM   H14S11352   4.675   5.610   9.335  0.1763  3.4703 -1.1879
  110OSM   H14T11353   4.573   5.706   9.449  0.5229  0.4201 -0.8993
  110OSM   C15S11354   4.459   5.611   9.283  0.0819  0.1386 -0.4405
  110OSM   H15S11355   4.357   5.604   9.326  0.4626  1.0396  0.6455
  110OSM   H15T11356   4.472   5.516   9.227  0.0751 -1.2584  1.8196
  110OSM   C16S11357   4.471   5.723   9.188  0.1105 -0.4404 -0.2545
  110OSM   H16S11358   4.570   5.730   9.138  0.6961  2.4710  1.0845
  110OSM   H16T11359   4.465   5.818   9.245  1.5939  0.7987 -2.0447
  110OSM   C17S11360   4.369   5.718   9.072  0.2210 -0.8142 -0.3736
  110OSM   H17S11361   4.265   5.722   9.113  1.0443  0.4269  1.7497
  110OSM   H17T11362   4.375   5.623   9.015  2.3127  1.1437 -3.7338
  110OSM   C18S11363   4.361   5.835   8.971 -0.1331  0.1537 -0.2395
  110OSM   H18S11364   4.459   5.845   8.919 -0.1520  0.0249 -0.3026
  110OSM   H18T11365   4.340   5.934   9.016 -2.0822 -0.5217  0.4042
  110OSM   H18U11366   4.289   5.802   8.893  0.1053  0.8193 -0.7589
  110OSM    C1F11367   4.674   5.751  10.530 -0.4766  0.1919 -0.3868
  110OSM     OF11368   4.786   5.704  10.538  0.4069  0.1565  0.2408
  110OSM    C2F11369   4.657   5.896  10.535 -0.2621  0.2188 -0.1638
  110OSM    H2F11370   4.722   5.934  10.617 -2.0846  0.6945  1.1218
  110OSM    H2G11371   4.557   5.924  10.573  0.9517  2.0245  1.9528
  110OSM    C3F11372   4.695   5.972  10.409  0.1929  0.1434 -0.2711
  110OSM    H3F11373   4.798   5.946  10.376 -0.5528 -0.6265 -2.1324
  110OSM    H3G11374   4.680   6.079  10.432  0.4696 -0.0986  1.1641
  110OSM    C4F11375   4.591   5.942  10.301  0.3184  0.3697  0.2536
  110OSM    H4F11376   4.495   5.987  10.334  0.4525 -0.0080  1.1807
  110OSM    H4G11377   4.576   5.832  10.298  3.6886 -0.1826 -1.1501
  110OSM    C5F11378   4.643   5.976  10.163  0.1847  0.7219 -0.5562
  110OSM    H5F11379   4.680   6.081  10.159  0.1376  0.7028 -2.1457
  110OSM    H5G11380   4.557   5.995  10.094 -0.6668 -1.0740 -0.0396
  110OSM    C6F11381   4.732   5.878  10.090  0.0708 -0.0641  0.1373
  110OSM    H6F11382   4.655   5.810  10.047  0.6233 -0.6086 -0.0037
  110OSM    H6G11383   4.797   5.826  10.165  1.5400 -1.4447 -1.9760
  110OSM    C7F11384   4.827   5.924   9.984 -0.1156  0.3553 -0.5122
  110OSM    H7F11385   4.908   5.984  10.032 -1.1243  0.4406  1.1498
  110OSM    H7G11386   4.786   6.000   9.915 -0.2027  0.7973  0.0200
  110OSM    C8F11387   4.896   5.805   9.915  0.6670  0.0942  0.0917
  110OSM    H8F11388   4.819   5.730   9.886  0.7527 -0.1006  0.3672
  110OSM    H8G11389   4.950   5.749   9.994  0.2608 -1.2427 -0.5502
  110OSM    C9F11390   4.995   5.838   9.803  0.3617  1.0325 -0.0375
  110OSM    H9F11391   5.097   5.806   9.828 -0.2535  0.3084  1.6866
  110OSM   C10F11392   4.954   5.894   9.682  0.4573  0.1354 -0.3679
  110OSM   H10F11393   5.021   5.904   9.595 -1.2592  1.4928 -1.5912
  110OSM   C11F11394   4.819   5.942   9.643 -0.3289 -0.6934 -0.1384
  110OSM   H11F11395   4.816   6.053   9.635 -2.6523 -0.7805 -1.3077
  110OSM   H11G11396   4.741   5.908   9.714 -0.0853 -0.2213  0.3595
  110OSM   C12F11397   4.791   5.901   9.501 -0.0379 -0.6452 -0.8458
  110OSM   H12F11398   4.681   5.904   9.483  0.0461 -0.1353 -1.3042
  110OSM   H12G11399   4.831   5.799   9.482  2.4518 -0.1794  1.4111
  110OSM   C13F11400   4.871   5.984   9.393 -0.5353  0.5046  0.1226
  110OSM   H13F11401   4.978   5.952   9.390 -1.0083 -1.1617 -0.6065
  110OSM   H13G11402   4.852   6.092   9.404 -0.6886  0.9301 -3.2148
  110OSM   C14F11403   4.803   5.957   9.251 -0.3811  0.4593  0.4382
  110OSM   H14F11404   4.704   6.007   9.261 -1.1694 -0.8180 -0.6574
  110OSM   H14G11405   4.778   5.851   9.233  0.1383  0.2055  1.1580
  110OSM   C15F11406   4.876   6.015   9.137 -0.6299 -1.0623 -0.1279
  110OSM   H15F11407   4.984   5.989   9.126 -0.4376 -0.8417  1.1437
  110OSM   H15G11408   4.874   6.124   9.155  1.8778 -1.1234  0.9035
  110OSM   C16F11409   4.799   5.986   9.005 -0.0940 -0.4200 -0.0885
  110OSM   H16F11410   4.695   6.020   9.024  0.2097  1.1411 -1.0125
  110OSM   H16G11411   4.796   5.877   8.988  1.7664 -0.7209  1.2199
  110OSM   C17F11412   4.850   6.067   8.884  0.1241  0.0920 -0.1866
  110OSM   H17F11413   4.893   5.991   8.815  0.4684  0.4257 -0.3466
  110OSM   H17G11414   4.927   6.140   8.917 -0.0776  0.7798 -1.1837
  110OSM   C18F11415   4.733   6.131   8.804 -0.2368  0.5356  0.6419
  110OSM   H18F11416   4.662   6.047   8.795  1.8821 -1.4179  1.0797
  110OSM   H18G11417   4.765   6.181   8.710 -1.9798  1.6938  0.6335
  110OSM   H18H11418   4.674   6.206   8.861 -1.0868 -0.3201  0.9007
  111OSM      N11419   0.210   2.036  10.635  0.0754  0.6118 -0.5128
  111OSM    C1511420   0.242   1.919  10.721 -0.3329  0.0808  0.1528
  111OSM   H15A11421   0.349   1.906  10.728  0.1504  2.9137 -0.8024
  111OSM   H15B11422   0.217   1.823  10.678  2.6282  0.4945 -2.9919
  111OSM   H15C11423   0.207   1.933  10.822  0.6812 -0.4281  0.5953
  111OSM    C1411424   0.261   2.165  10.687  0.4358 -0.5013  0.1693
  111OSM   H14A11425   0.197   2.214  10.760 -1.0001  0.5756 -1.7314
  111OSM   H14B11426   0.260   2.244  10.613 -1.6323 -1.7740 -1.2616
  111OSM   H14C11427   0.362   2.159  10.725 -0.4653  0.4072  2.9533
  111OSM    C1311428   0.264   2.016  10.497 -0.6264  0.1518 -0.0964
  111OSM   H13A11429   0.247   2.099  10.430  1.9684  0.7753 -0.1041
  111OSM   H13B11430   0.223   1.920  10.470 -0.3774 -0.2684  0.9379
  111OSM   H13C11431   0.372   2.015  10.502 -0.6076  1.2072 -0.1378
  111OSM    C1211432   0.060   2.057  10.636  0.2337 -0.0500 -0.0849
  111OSM   H12A11433   0.020   2.070  10.736 -2.6010 -0.4247 -1.0662
  111OSM   H12B11434   0.008   1.964  10.618  1.4236 -0.8294  0.3920
  111OSM    C1111435  -0.001   2.164  10.544 -0.2249 -0.4464  0.2612
  111OSM   H11A11436  -0.107   2.132  10.536 -0.0799 -1.2495  1.3933
  111OSM   H11B11437   0.045   2.168  10.443 -1.2167  0.7515 -0.1634
  111OSM      P11438  -0.006   2.426  10.537  0.5117 -0.2293 -0.7925
  111OSM    O1311439  -0.060   2.521  10.638 -0.3657  0.5038 -0.4443
  111OSM    O1411440   0.116   2.463  10.467  0.3344 -0.3980  0.3597
  111OSM    O1111441  -0.118   2.387  10.432  1.0556 -0.0606 -0.1146
  111OSM    O1211442   0.017   2.287  10.611 -0.0020 -0.2737  0.7664
  111OSM    C1S11443  -0.185   2.484  10.362  0.5727 -0.2286  0.3213
  111OSM    H1S11444  -0.194   2.581  10.416 -0.9243  1.2321 -2.3567
  111OSM    H1T11445  -0.284   2.448  10.327  1.7318 -1.9257 -1.3766
  111OSM     NF11446  -0.174   2.648  10.174  0.7468  0.6432  0.2746
  111OSM    HNF11447  -0.254   2.639  10.115 -0.0525 -3.2630  1.6199
  111OSM    C2S11448  -0.118   2.524  10.225 -1.0790  1.0488 -0.7523
  111OSM    H2S11449  -0.011   2.539  10.248 -0.9447 -0.7584 -0.0280
  111OSM    C3S11450  -0.137   2.394  10.136 -0.4326  0.8407 -0.1387
  111OSM    H3S11451  -0.244   2.364  10.135 -0.0901 -0.4103 -0.0876
  111OSM     O311452  -0.059   2.286  10.189 -0.5667 -0.8872  0.2045
  111OSM    HO311453  -0.054   2.298  10.284  2.0742  1.5701 -0.1286
  111OSM    C4S11454  -0.076   2.420  10.001 -0.3397 -0.2550  0.5073
  111OSM    H4S11455   0.033   2.431  10.008 -0.4913  1.4457  0.8548
  111OSM    C5S11456  -0.144   2.421   9.886  0.3067 -0.6210 -0.9095
  111OSM    H5S11457  -0.249   2.389   9.896  0.3706 -0.8963 -1.1357
  111OSM    C6S11458  -0.093   2.444   9.749 -0.3284 -1.0432  0.3635
  111OSM    H6S11459  -0.153   2.383   9.678 -0.6271 -1.3348  0.8548
  111OSM    H6T11460   0.015   2.421   9.742 -0.1610  0.0126 -1.0076
  111OSM    C7S11461  -0.120   2.593   9.726  0.1548 -0.1855  0.4584
  111OSM    H7S11462  -0.070   2.653   9.805  4.0065 -1.1229 -0.9947
  111OSM    H7T11463  -0.230   2.605   9.720  0.2404 -0.0328 -1.3605
  111OSM    C8S11464  -0.054   2.643   9.599 -0.0027 -0.0080 -0.2838
  111OSM    H8S11465   0.055   2.635   9.620 -0.1453 -1.9608 -0.0443
  111OSM    H8T11466  -0.077   2.751   9.588 -1.2325 -0.3855 -1.8124
  111OSM    C9S11467  -0.084   2.553   9.479  0.1567 -0.4064 -0.9474
  111OSM    H9S11468  -0.186   2.513   9.500 -0.1121  0.6944 -0.0546
  111OSM    H9T11469  -0.010   2.472   9.494 -0.6874 -1.4216 -2.0523
  111OSM   C10S11470  -0.069   2.604   9.333  0.6430  0.4452  0.1085
  111OSM   H10S11471  -0.144   2.683   9.308 -1.0316 -0.4508  1.9878
  111OSM   H10T11472  -0.093   2.522   9.262  0.8169 -0.4880  1.0953
  111OSM   C11S11473   0.075   2.649   9.302  0.4985  0.2003 -0.5831
  111OSM   H11S11474   0.144   2.562   9.298  0.7705  0.4185 -0.6763
  111OSM   H11T11475   0.109   2.714   9.385 -1.3093  0.3197  0.1031
  111OSM   C12S11476   0.061   2.733   9.174  0.3515 -0.2403 -0.2717
  111OSM   H12S11477   0.007   2.825   9.205  0.4948 -1.0302  2.6765
  111OSM   H12T11478  -0.004   2.682   9.100 -0.5657 -0.7892  0.8744
  111OSM   C13S11479   0.193   2.747   9.100  0.5391 -0.1390  0.4561
  111OSM   H13S11480   0.232   2.648   9.069 -2.6669 -1.5439  0.4650
  111OSM   H13T11481   0.266   2.778   9.178  0.0741 -2.1269  1.7528
  111OSM   C14S11482   0.184   2.844   8.981 -0.5135 -0.9664  0.2973
  111OSM   H14S11483   0.284   2.880   8.951 -0.8296 -0.9097 -0.7382
  111OSM   H14T11484   0.131   2.936   9.014 -0.5988 -0.6131 -0.7925
  111OSM   C15S11485   0.113   2.795   8.855 -0.0671 -0.0932 -0.2988
  111OSM   H15S11486   0.025   2.859   8.831 -0.7677 -0.7900  0.3246
  111OSM   H15T11487   0.077   2.694   8.885  0.5712 -0.2267  0.0218
  111OSM   C16S11488   0.215   2.786   8.738 -0.1416  0.1286  0.2397
  111OSM   H16S11489   0.269   2.882   8.727  1.3773 -0.7200  0.0358
  111OSM   H16T11490   0.159   2.772   8.643 -3.4995 -1.2429  2.2218
  111OSM   C17S11491   0.318   2.674   8.754  0.6381 -0.0295  0.0084
  111OSM   H17S11492   0.266   2.579   8.777  1.4517 -0.1158  1.6740
  111OSM   H17T11493   0.379   2.687   8.847  1.2504  0.4325 -0.4498
  111OSM   C18S11494   0.400   2.655   8.631 -0.5543 -0.1397  0.2909
  111OSM   H18S11495   0.324   2.626   8.555 -1.8090  0.5343  1.2498
  111OSM   H18T11496   0.466   2.569   8.654  0.8659  1.3271  1.9190
  111OSM   H18U11497   0.460   2.743   8.599 -1.3000 -0.1173 -1.1479
  111OSM    C1F11498  -0.132   2.765  10.211 -0.5739  0.2873  0.0502
  111OSM     OF11499  -0.032   2.774  10.284 -0.1158  0.4708 -0.0601
  111OSM    C2F11500  -0.197   2.885  10.146  0.2149  0.5661 -1.1529
  111OSM    H2F11501  -0.156   2.972  10.201 -0.4993  1.0363 -1.3508
  111OSM    H2G11502  -0.307   2.881  10.160  0.2325 -0.0502 -1.1504
  111OSM    C3F11503  -0.155   2.885   9.996 -0.1590  0.0300  0.1722
  111OSM    H3F11504  -0.201   2.795   9.949 -2.4048  0.4148  1.4529
  111OSM    H3G11505  -0.044   2.880   9.991  0.1231  4.2011 -0.8965
  111OSM    C4F11506  -0.203   3.007   9.922  0.0570 -0.3658  0.3138
  111OSM    H4F11507  -0.164   3.101   9.966 -2.0477  3.1230 -4.4404
  111OSM    H4G11508  -0.314   3.015   9.929  0.0345 -0.9310  0.7010
  111OSM    C5F11509  -0.177   3.007   9.771 -0.3302 -0.2183  0.4793
  111OSM    H5F11510  -0.237   2.935   9.710  0.4191 -1.3603  1.0556
  111OSM    H5G11511  -0.074   2.967   9.765 -0.1498  0.1775  0.9155
  111OSM    C6F11512  -0.170   3.144   9.709  0.6577  0.0498 -0.4809
  111OSM    H6F11513  -0.100   3.210   9.765 -1.2363  0.0146  2.1304
  111OSM    H6G11514  -0.271   3.190   9.697  1.7677  2.3043 -1.8962
  111OSM    C7F11515  -0.117   3.141   9.563 -0.0697  0.0909 -0.6416
  111OSM    H7F11516  -0.022   3.086   9.578 -0.4598 -0.1329  1.2254
  111OSM    H7G11517  -0.117   3.251   9.546 -3.7231  0.1979 -0.7233
  111OSM    C8F11518  -0.211   3.067   9.460  0.3645 -0.3457  0.1578
  111OSM    H8F11519  -0.319   3.090   9.457  0.4835  0.2185 -2.9106
  111OSM    H8G11520  -0.206   2.965   9.504  0.6183 -0.9949 -1.3118
  111OSM    C9F11521  -0.160   3.070   9.317 -0.0084  0.9048 -0.0347
  111OSM    H9F11522  -0.070   3.008   9.308 -0.4934  0.0277  0.9201
  111OSM   C10F11523  -0.214   3.113   9.204 -0.0196 -0.1225  0.8232
  111OSM   H10F11524  -0.152   3.110   9.113 -1.5555 -1.3011 -0.2259
  111OSM   C11F11525  -0.348   3.183   9.185 -0.2796  0.0294 -0.5548
  111OSM   H11F11526  -0.368   3.247   9.273  0.0236 -2.2347  1.2665
  111OSM   H11G11527  -0.436   3.119   9.161 -0.4806  0.1688 -0.1949
  111OSM   C12F11528  -0.341   3.285   9.071 -0.4451  0.6034 -0.9532
  111OSM   H12F11529  -0.440   3.334   9.068 -1.5014 -1.2443  1.0736
  111OSM   H12G11530  -0.336   3.231   8.974 -1.1814  1.6813 -1.6111
  111OSM   C13F11531  -0.226   3.388   9.086 -0.6923 -0.2206  0.8981
  111OSM   H13F11532  -0.127   3.338   9.075 -0.2311  1.0414 -1.0592
  111OSM   H13G11533  -0.236   3.432   9.188 -1.2147  1.7234  0.0573
  111OSM   C14F11534  -0.234   3.504   8.985 -0.4678  0.3457  0.3727
  111OSM   H14F11535  -0.318   3.568   9.019 -0.2889  0.1226  1.2565
  111OSM   H14G11536  -0.258   3.478   8.880 -0.5221 -1.2613  0.7600
  111OSM   C15F11537  -0.110   3.591   9.000  0.6285 -0.5703  0.3953
  111OSM   H15F11538  -0.032   3.516   9.027 -0.0654 -1.1784  0.7683
  111OSM   H15G11539  -0.120   3.668   9.080 -0.2536  0.0539 -0.3046
  111OSM   C16F11540  -0.072   3.676   8.882  0.2613  0.3930  0.5054
  111OSM   H16F11541  -0.065   3.607   8.795 -1.2056  0.9770 -0.1071
  111OSM   H16G11542   0.024   3.729   8.901 -0.2053  1.3863  0.1920
  111OSM   C17F11543  -0.183   3.779   8.859  0.5037  0.9552  0.2008
  111OSM   H17F11544  -0.173   3.857   8.937 -1.2646  1.7481 -0.3271
  111OSM   H17G11545  -0.284   3.733   8.866  1.3452 -2.1237 -3.6722
  111OSM   C18F11546  -0.168   3.838   8.720 -0.7244  0.2962  0.4414
  111OSM   H18F11547  -0.066   3.824   8.677 -1.5999 -1.7165 -1.1364
  111OSM   H18G11548  -0.193   3.947   8.717 -1.1845  0.2112  1.0959
  111OSM   H18H11549  -0.239   3.783   8.654 -0.5849 -0.1873  0.6936
  112OSM      N11550   4.911   1.553  10.694  0.2573 -0.8553  0.1090
  112OSM    C1511551   5.055   1.503  10.673 -0.4196  0.4260 -0.3290
  112OSM   H15A11552   5.117   1.579  10.627  0.9489  0.0567  0.8225
  112OSM   H15B11553   5.050   1.424  10.599  0.8580 -0.9427  0.9543
  112OSM   H15C11554   5.110   1.463  10.757  0.2688  1.5960 -0.2015
  112OSM    C1411555   4.922   1.633  10.817 -0.3275 -0.2798 -0.1201
  112OSM   H14A11556   4.964   1.569  10.894 -2.4882  0.0037  1.3670
  112OSM   H14B11557   4.820   1.650  10.850 -0.7671 -0.1710 -1.4920
  112OSM   H14C11558   4.971   1.728  10.805 -0.9174 -0.0328 -0.6370
  112OSM    C1311559   4.867   1.631  10.576  0.5203 -0.4466 -0.3146
  112OSM   H13A11560   4.918   1.726  10.578 -1.4682  0.6981  2.5203
  112OSM   H13B11561   4.760   1.642  10.575  0.5003 -0.6320 -0.4978
  112OSM   H13C11562   4.884   1.577  10.484 -2.2418 -3.6367  0.8311
  112OSM    C1211563   4.817   1.435  10.714  0.1060 -0.5573 -0.0451
  112OSM   H12A11564   4.721   1.472  10.747 -1.0914 -2.7268 -0.9278
  112OSM   H12B11565   4.851   1.379  10.800 -2.0508 -1.4290  0.3059
  112OSM    C1111566   4.788   1.329  10.597  0.0131 -0.2811 -0.1781
  112OSM   H11A11567   4.765   1.385  10.504 -1.0388 -0.6596 -0.1625
  112OSM   H11B11568   4.704   1.260  10.621 -0.5125  0.6098  0.6348
  112OSM      P11569   4.947   1.148  10.677  0.0409 -0.0723  0.2273
  112OSM    O1311570   5.093   1.111  10.665  0.3688  0.7482 -0.5867
  112OSM    O1411571   4.899   1.188  10.812 -1.0176  0.2188  0.1726
  112OSM    O1111572   4.870   1.019  10.634  0.0487 -0.6376  0.0728
  112OSM    O1211573   4.909   1.255  10.567  0.4809  0.1064 -1.1128
  112OSM    C1S11574   4.814   0.996  10.508 -0.0908 -0.0569  0.7088
  112OSM    H1S11575   4.767   1.089  10.469 -1.5321 -0.2665  1.8654
  112OSM    H1T11576   4.732   0.920  10.511 -0.6865  0.5394  0.0827
  112OSM     NF11577   4.841   0.916  10.281 -0.4606 -1.3101  1.0927
  112OSM    HNF11578   4.786   0.836  10.260  1.1208 -1.8238 -1.7082
  112OSM    C2S11579   4.915   0.927  10.407  0.9895  0.2911  1.1839
  112OSM    H2S11580   5.004   0.992  10.395  0.2825  1.1510  0.4171
  112OSM    C3S11581   4.957   0.791  10.458 -0.0071  0.6864  0.1218
  112OSM    H3S11582   4.869   0.723  10.468 -0.0161  0.7365  0.4039
  112OSM     O311583   5.027   0.803  10.579  0.0285 -0.1392 -0.2284
  112OSM    HO311584   4.995   0.882  10.623 -0.7294 -0.9565  0.7088
  112OSM    C4S11585   5.047   0.720  10.356 -0.2717  0.2111 -0.2129
  112OSM    H4S11586   5.144   0.769  10.345  0.2168 -0.8603 -0.8070
  112OSM    C5S11587   5.007   0.615  10.285  0.7388  0.3173  0.8779
  112OSM    H5S11588   4.907   0.570  10.291  0.1655  0.5482 -3.6445
  112OSM    C6S11589   5.098   0.557  10.182 -0.3024 -0.0462 -0.5894
  112OSM    H6S11590   5.054   0.587  10.085 -0.6151 -1.5249 -0.9274
  112OSM    H6T11591   5.104   0.446  10.186 -0.7959 -0.2652 -3.6496
  112OSM    C7S11592   5.243   0.601  10.166  0.6255 -0.2360  0.2278
  112OSM    H7S11593   5.287   0.612  10.268  1.6614 -1.2935 -0.0900
  112OSM    H7T11594   5.269   0.699  10.119  0.6845 -0.7243 -0.7762
  112OSM    C8S11595   5.327   0.494  10.092 -0.5674  0.1957 -0.3308
  112OSM    H8S11596   5.329   0.400  10.152 -0.0760 -1.0722 -2.2285
  112OSM    H8T11597   5.434   0.525  10.095  0.3959 -2.8734  0.5113
  112OSM    C9S11598   5.285   0.470   9.945 -0.2884  0.1186 -0.8195
  112OSM    H9S11599   5.261   0.570   9.901 -1.6638 -0.3640 -1.1967
  112OSM    H9T11600   5.198   0.402   9.939 -0.8459  0.6386  0.8302
  112OSM   C10S11601   5.402   0.398   9.866  0.5350  0.2583  0.3568
  112OSM   H10S11602   5.441   0.320   9.935  1.5679  2.1346  2.0146
  112OSM   H10T11603   5.491   0.463   9.879  1.3791 -0.2650 -2.3384
  112OSM   C11S11604   5.381   0.331   9.736 -0.2890  0.0367 -0.2019
  112OSM   H11S11605   5.290   0.267   9.740 -0.3389  0.1459  1.5074
  112OSM   H11T11606   5.472   0.273   9.713  0.4302  1.6729 -1.6476
  112OSM   C12S11607   5.372   0.436   9.625  0.1857 -0.3162 -0.3627
  112OSM   H12S11608   5.467   0.493   9.623 -1.9935  3.7507  0.3711
  112OSM   H12T11609   5.295   0.511   9.651  1.2377  0.9749 -0.8582
  112OSM   C13S11610   5.345   0.381   9.490  0.1662 -0.3480  0.1591
  112OSM   H13S11611   5.255   0.319   9.508 -0.2615 -0.2188 -1.4009
  112OSM   H13T11612   5.420   0.307   9.455  1.1833  1.5231 -1.8537
  112OSM   C14S11613   5.333   0.496   9.390  0.9485 -1.1977 -0.1990
  112OSM   H14S11614   5.418   0.566   9.401 -0.4076  0.3314  1.1670
  112OSM   H14T11615   5.253   0.567   9.421  2.1428 -0.0039  0.2256
  112OSM   C15S11616   5.313   0.454   9.244  0.4312 -0.6900  0.0551
  112OSM   H15S11617   5.297   0.540   9.175  0.1611 -1.9427 -1.5195
  112OSM   H15T11618   5.213   0.407   9.243 -0.9180  1.9758  0.5168
  112OSM   C16S11619   5.409   0.344   9.183  0.6044 -0.1374 -0.0163
  112OSM   H16S11620   5.408   0.257   9.252 -0.7334 -0.1962 -0.0701
  112OSM   H16T11621   5.501   0.404   9.199 -0.0662  0.4887  1.6610
  112OSM   C17S11622   5.387   0.315   9.035  0.3223 -0.4908  0.0407
  112OSM   H17S11623   5.279   0.297   9.016  0.1509  0.9037 -0.4240
  112OSM   H17T11624   5.450   0.230   9.002  0.4243  0.0217 -1.1328
  112OSM   C18S11625   5.419   0.436   8.944  0.1071 -0.6884 -0.2930
  112OSM   H18S11626   5.368   0.531   8.974  1.5469 -0.1008  0.4038
  112OSM   H18T11627   5.384   0.418   8.840 -1.6418  2.1075 -0.2939
  112OSM   H18U11628   5.530   0.442   8.945  0.2132 -2.1220  1.4178
  112OSM    C1F11629   4.843   1.021  10.195  0.4783  0.0393 -0.3232
  112OSM     OF11630   4.917   1.112  10.215  0.2282  0.1359  0.0426
  112OSM    C2F11631   4.740   1.017  10.093  0.6178  0.5865 -0.7619
  112OSM    H2F11632   4.647   0.965  10.125  0.6438 -0.4635 -2.2905
  112OSM    H2G11633   4.780   0.964  10.003  0.0727 -0.7377 -0.2589
  112OSM    C3F11634   4.697   1.158  10.056  0.3460 -0.0175  0.1820
  112OSM    H3F11635   4.784   1.208  10.009  0.6097 -0.3625  0.2997
  112OSM    H3G11636   4.653   1.221  10.136  0.0283  0.9230 -0.7178
  112OSM    C4F11637   4.591   1.156   9.944  0.4406  0.0862 -0.1740
  112OSM    H4F11638   4.565   1.264   9.938  1.3800  0.4572  1.7410
  112OSM    H4G11639   4.504   1.094   9.971  1.8805 -2.6997 -1.5317
  112OSM    C5F11640   4.651   1.122   9.804  1.4225  0.0633 -0.3095
  112OSM    H5F11641   4.720   1.036   9.797 -0.7796 -1.6936 -1.7836
  112OSM    H5G11642   4.710   1.210   9.770  2.9610 -0.1328  1.6618
  112OSM    C6F11643   4.536   1.101   9.704  0.6614  0.4929  0.0001
  112OSM    H6F11644   4.477   1.195   9.699 -0.2941 -0.0568  0.5055
  112OSM    H6G11645   4.465   1.028   9.748 -0.6973  1.5213 -0.3959
  112OSM    C7F11646   4.579   1.045   9.571  0.3037  0.0261  0.5868
  112OSM    H7F11647   4.649   0.960   9.589 -0.7463 -1.1814 -0.8334
  112OSM    H7G11648   4.637   1.119   9.511 -1.0031  0.9518  0.4205
  112OSM    C8F11649   4.462   0.992   9.479  0.2915 -0.2887  0.2822
  112OSM    H8F11650   4.382   1.068   9.467 -0.9116 -1.5446 -0.0195
  112OSM    H8G11651   4.432   0.907   9.545  1.5091 -1.2368 -0.3431
  112OSM    C9F11652   4.500   0.925   9.344 -0.4574  0.2435  0.0147
  112OSM    H9F11653   4.550   1.002   9.283  0.4221  0.2247  0.6979
  112OSM   C10F11654   4.488   0.801   9.293  0.4402  0.1081  0.0222
  112OSM   H10F11655   4.533   0.786   9.194  0.6604  0.6471  0.0358
  112OSM   C11F11656   4.418   0.683   9.347  0.1414  0.1176 -0.0365
  112OSM   H11F11657   4.346   0.641   9.274 -0.7495  0.3068  0.7062
  112OSM   H11G11658   4.343   0.715   9.423  0.7721 -0.4549  0.8409
  112OSM   C12F11659   4.514   0.573   9.406  0.2652 -1.7233 -0.1914
  112OSM   H12F11660   4.453   0.510   9.474 -0.0874 -2.7350 -1.4071
  112OSM   H12G11661   4.582   0.625   9.477 -1.3066 -0.5211  0.4979
  112OSM   C13F11662   4.574   0.480   9.308 -0.7923 -0.2183  0.4737
  112OSM   H13F11663   4.640   0.539   9.241  0.7278 -0.9587  1.2687
  112OSM   H13G11664   4.493   0.430   9.251 -0.7639 -0.6497  0.8050
  112OSM   C14F11665   4.652   0.366   9.373 -0.1388  0.6856 -0.3121
  112OSM   H14F11666   4.587   0.341   9.459 -1.2279  0.8157 -1.0829
  112OSM   H14G11667   4.740   0.422   9.413 -0.0894  0.5562 -0.2422
  112OSM   C15F11668   4.689   0.251   9.276 -0.2060  0.3564 -0.2639
  112OSM   H15F11669   4.589   0.225   9.234 -1.5689  3.5308  0.6690
  112OSM   H15G11670   4.731   0.164   9.330 -1.1087 -0.8736 -1.4701
  112OSM   C16F11671   4.786   0.290   9.159  0.2677 -0.3582  0.3320
  112OSM   H16F11672   4.865   0.345   9.215 -2.5603  0.6512  3.6437
  112OSM   H16G11673   4.735   0.360   9.091 -0.7384 -0.0370  1.3865
  112OSM   C17F11674   4.839   0.168   9.086 -1.2118 -0.4574  0.5356
  112OSM   H17F11675   4.749   0.110   9.060 -0.1855 -1.8440 -0.0207
  112OSM   H17G11676   4.901   0.107   9.155  1.3167 -0.8112 -1.8828
  112OSM   C18F11677   4.918   0.204   8.963  0.2229  0.0820 -0.0650
  112OSM   H18F11678   4.841   0.262   8.908 -0.7502  1.1705  2.2988
  112OSM   H18G11679   4.949   0.114   8.905 -1.0164  0.7196 -1.8067
  112OSM   H18H11680   5.006   0.267   8.988  0.8350 -1.7042  2.5772
  113OSM      N11681   4.892   0.532  11.313 -0.0628  0.1017  0.6367
  113OSM    C1511682   4.747   0.513  11.282 -0.0032  0.2523  0.1914
  113OSM   H15A11683   4.705   0.597  11.227 -0.6774 -0.2085 -0.0147
  113OSM   H15B11684   4.691   0.498  11.374 -2.5980 -0.2824 -1.3782
  113OSM   H15C11685   4.735   0.422  11.227  1.1197 -0.7468  1.5269
  113OSM    C1411686   4.896   0.647  11.417  0.3386  0.0170  0.0946
  113OSM   H14A11687   5.000   0.664  11.444  0.3288  0.5292 -0.1632
  113OSM   H14B11688   4.840   0.625  11.506  0.6904 -1.4263 -0.0150
  113OSM   H14C11689   4.866   0.739  11.367  0.8044 -0.6878 -1.5709
  113OSM    C1311690   4.947   0.406  11.373 -0.1341 -0.3897 -0.1015
  113OSM   H13A11691   4.882   0.370  11.451 -0.2843  0.8411  0.3594
  113OSM   H13B11692   5.038   0.433  11.424 -2.2497  2.0696  2.6884
  113OSM   H13C11693   4.962   0.328  11.299  0.4421 -0.5987  0.2283
  113OSM    C1211694   4.970   0.569  11.185  0.6272  0.5444  0.6738
  113OSM   H12A11695   4.920   0.651  11.135 -1.1309 -0.7030  0.2987
  113OSM   H12B11696   4.955   0.488  11.115  2.1805  1.1505 -0.4041
  113OSM    C1111697   5.124   0.580  11.212 -0.2922 -0.3829 -0.5194
  113OSM   H11A11698   5.159   0.484  11.254 -1.9039 -1.4143 -1.3943
  113OSM   H11B11699   5.135   0.659  11.289  0.6081 -1.1191  0.1239
  113OSM      P11700   5.348   0.591  11.078  0.4350  0.5054 -0.1468
  113OSM    O1311701   5.418   0.709  11.121  0.1127 -0.0606  0.2807
  113OSM    O1411702   5.384   0.462  11.146 -0.3364  0.1425  0.2570
  113OSM    O1111703   5.377   0.563  10.930  0.0353  0.5058 -0.3056
  113OSM    O1211704   5.192   0.611  11.088  0.6322  0.2229  0.2943
  113OSM    C1S11705   5.307   0.643  10.830 -0.6272 -0.2926 -0.1032
  113OSM    H1S11706   5.348   0.746  10.828 -0.3516 -0.4061 -1.6589
  113OSM    H1T11707   5.197   0.657  10.840 -0.8167 -0.5500 -1.5633
  113OSM     NF11708   5.293   0.686  10.584  0.3742  0.2136 -0.0922
  113OSM    HNF11709   5.195   0.702  10.572  0.0382 -1.4197  0.1421
  113OSM    C2S11710   5.330   0.586  10.689  0.2211  0.2520 -0.0823
  113OSM    H2S11711   5.434   0.548  10.680 -0.6217 -2.0506 -1.0463
  113OSM    C3S11712   5.250   0.452  10.671 -0.0834 -0.4281  0.0268
  113OSM    H3S11713   5.142   0.470  10.653 -0.6402 -3.4496 -0.1639
  113OSM     O311714   5.252   0.368  10.788  0.3845  0.1329  0.4774
  113OSM    HO311715   5.271   0.435  10.854  0.6141 -0.1007  0.6458
  113OSM    C4S11716   5.313   0.389  10.543 -0.1103  0.0936 -0.0779
  113OSM    H4S11717   5.271   0.429  10.450  0.9090 -1.6630 -1.3610
  113OSM    C5S11718   5.410   0.298  10.538  0.2182  0.2806  0.6513
  113OSM    H5S11719   5.440   0.253  10.634 -2.1164 -1.9679  0.4575
  113OSM    C6S11720   5.462   0.244  10.407 -0.0532  0.0505 -0.4463
  113OSM    H6S11721   5.549   0.300  10.367 -0.9776  1.5025 -0.4974
  113OSM    H6T11722   5.393   0.253  10.321  0.2908  2.9495 -0.5224
  113OSM    C7S11723   5.502   0.097  10.417 -0.0434  0.1176 -0.0099
  113OSM    H7S11724   5.413   0.031  10.412  1.4013 -2.1261  1.8221
  113OSM    H7T11725   5.555   0.068  10.510 -1.7855 -0.7821  0.7457
  113OSM    C8S11726   5.581   0.056  10.292  0.9018  0.0801 -0.3099
  113OSM    H8S11727   5.632  -0.039  10.316 -2.1046 -1.7616 -0.6994
  113OSM    H8T11728   5.656   0.137  10.280 -0.7733  1.9398  1.0725
  113OSM    C9S11729   5.496   0.013  10.171  0.1212 -0.5291  0.7479
  113OSM    H9S11730   5.424   0.096  10.153  0.9772  0.3729  1.3828
  113OSM    H9T11731   5.445  -0.083  10.197 -1.9342  0.9259  2.4522
  113OSM   C10S11732   5.585   0.004  10.055 -0.1933  1.2395  0.3392
  113OSM   H10S11733   5.649  -0.087  10.061  0.0832  1.4410  0.4731
  113OSM   H10T11734   5.645   0.098  10.053 -0.2047  1.2494  0.4447
  113OSM   C11S11735   5.516  -0.008   9.921 -0.2296  0.6875 -0.1886
  113OSM   H11S11736   5.466   0.089   9.900 -0.7646  0.7859  1.4641
  113OSM   H11T11737   5.430  -0.078   9.922 -1.0794  1.6598  2.0266
  113OSM   C12S11738   5.605  -0.070   9.816  0.2982  0.1829  0.0532
  113OSM   H12S11739   5.615  -0.180   9.829 -2.2966 -0.3742 -1.7773
  113OSM   H12T11740   5.706  -0.024   9.815 -0.3127  1.6134 -1.4649
  113OSM   C13S11741   5.542  -0.040   9.679  0.1459  0.2482  0.4092
  113OSM   H13S11742   5.516   0.068   9.672 -5.7270 -0.7273  1.5121
  113OSM   H13T11743   5.442  -0.089   9.672 -0.3298  1.4271 -2.0578
  113OSM   C14S11744   5.637  -0.064   9.562 -0.6901  0.4296  0.1666
  113OSM   H14S11745   5.659  -0.173   9.561 -0.6951  0.4250  0.4875
  113OSM   H14T11746   5.736  -0.021   9.587  0.2237 -1.3516 -0.2350
  113OSM   C15S11747   5.588   0.006   9.433 -1.0488 -0.4828 -0.2760
  113OSM   H15S11748   5.570   0.114   9.450 -2.5120 -0.5173 -1.3749
  113OSM   H15T11749   5.498  -0.051   9.401 -1.8053  0.6318 -0.1814
  113OSM   C16S11750   5.695  -0.004   9.325 -0.3294 -0.0562  0.5417
  113OSM   H16S11751   5.727  -0.107   9.298  0.3551  1.0140 -3.3168
  113OSM   H16T11752   5.788   0.040   9.366  1.4011 -1.7983 -1.2701
  113OSM   C17S11753   5.661   0.081   9.201  0.5720  0.0434 -0.2741
  113OSM   H17S11754   5.620   0.181   9.227  0.8681  0.0047  0.3509
  113OSM   H17T11755   5.577   0.030   9.150  1.0089  0.6011 -1.5909
  113OSM   C18S11756   5.780   0.094   9.106 -0.4825 -0.4717 -0.6251
  113OSM   H18S11757   5.797   0.005   9.041  0.5210 -1.3074  0.7399
  113OSM   H18T11758   5.874   0.102   9.165 -1.1133 -0.1647  0.3530
  113OSM   H18U11759   5.772   0.186   9.044  0.2799  0.2206  0.2837
  113OSM    C1F11760   5.374   0.779  10.554  0.0771 -0.4738 -0.2605
  113OSM     OF11761   5.481   0.776  10.608 -0.1255 -0.2341  0.4025
  113OSM    C2F11762   5.348   0.893  10.459  0.6054 -0.0044  0.4092
  113OSM    H2F11763   5.244   0.932  10.464 -0.4481 -2.5196 -0.5415
  113OSM    H2G11764   5.364   0.853  10.357  2.3837 -0.6702  0.9093
  113OSM    C3F11765   5.455   1.001  10.477 -0.0223  0.0915  0.2726
  113OSM    H3F11766   5.561   0.971  10.482  0.0316  0.4519  2.3944
  113OSM    H3G11767   5.435   1.043  10.578  0.9326 -2.0891  1.4337
  113OSM    C4F11768   5.453   1.115  10.377 -0.0471 -0.9596 -0.2589
  113OSM    H4F11769   5.359   1.174  10.380  0.2465 -0.5341  1.2008
  113OSM    H4G11770   5.484   1.083  10.275 -0.7968  0.1267 -0.8467
  113OSM    C5F11771   5.576   1.210  10.402  0.8995 -0.5788 -0.2225
  113OSM    H5F11772   5.679   1.168  10.402  1.6585  1.1499  1.1484
  113OSM    H5G11773   5.563   1.263  10.498 -0.5081  1.3495 -1.4183
  113OSM    C6F11774   5.560   1.329  10.307 -1.5595  0.2193  0.0960
  113OSM    H6F11775   5.641   1.396  10.345 -1.3755 -2.0230  4.2568
  113OSM    H6G11776   5.460   1.378  10.317 -0.2365  3.3597 -0.5759
  113OSM    C7F11777   5.596   1.291  10.156 -0.4318  0.5457  0.3848
  113OSM    H7F11778   5.528   1.207  10.130  1.4184 -1.1079  0.6875
  113OSM    H7G11779   5.703   1.262  10.148 -0.6583 -0.6182  1.3906
  113OSM    C8F11780   5.558   1.407  10.061 -1.0789 -0.0627 -0.0232
  113OSM    H8F11781   5.448   1.416  10.067 -1.2066 -1.6986  0.3602
  113OSM    H8G11782   5.576   1.367   9.959  1.1750 -0.8350  0.6160
  113OSM    C9F11783   5.628   1.548  10.070  0.2173 -0.1160  0.3024
  113OSM    H9F11784   5.569   1.622  10.125  1.3405  0.1694  1.1755
  113OSM   C10F11785   5.740   1.591  10.014 -0.7877 -0.1761  0.7819
  113OSM   H10F11786   5.784   1.692  10.021 -0.3078  0.0968 -3.4358
  113OSM   C11F11787   5.826   1.500   9.931 -0.8022  0.4861  0.4843
  113OSM   H11F11788   5.775   1.405   9.904  0.0412  0.2453 -0.3072
  113OSM   H11G11789   5.919   1.488   9.990 -0.2480 -0.1982 -0.4872
  113OSM   C12F11790   5.868   1.558   9.799 -0.0428 -0.3211  0.4842
  113OSM   H12F11791   5.949   1.493   9.761  2.0321  2.5639 -0.3227
  113OSM   H12G11792   5.913   1.659   9.806 -0.1065 -0.0473 -2.2280
  113OSM   C13F11793   5.763   1.543   9.686 -0.5333 -0.3193 -0.2009
  113OSM   H13F11794   5.680   1.614   9.705 -1.0948 -1.1849  0.6933
  113OSM   H13G11795   5.716   1.443   9.673 -1.2282 -0.3295  2.1023
  113OSM   C14F11796   5.836   1.575   9.559  0.0949  0.3873 -0.6073
  113OSM   H14F11797   5.929   1.515   9.567  0.1992  0.7581  1.2478
  113OSM   H14G11798   5.875   1.679   9.558 -0.1084  0.4607 -1.1374
  113OSM   C15F11799   5.763   1.532   9.427  0.1417  0.1877  0.0405
  113OSM   H15F11800   5.658   1.571   9.428 -0.9183 -2.4454  1.2858
  113OSM   H15G11801   5.748   1.422   9.425  1.4630 -0.0030  0.1422
  113OSM   C16F11802   5.833   1.570   9.292  0.5877  0.1088 -0.6161
  113OSM   H16F11803   5.932   1.521   9.280  1.3212  0.7510  2.1013
  113OSM   H16G11804   5.842   1.680   9.286 -0.0798  0.1791 -0.4678
  113OSM   C17F11805   5.749   1.511   9.183 -0.6330  0.3880  0.1320
  113OSM   H17F11806   5.645   1.552   9.182 -1.3348 -1.3283 -0.6876
  113OSM   H17G11807   5.733   1.403   9.202  1.5443  0.2049  1.2473
  113OSM   C18F11808   5.818   1.534   9.039 -0.1733 -0.1963 -0.0171
  113OSM   H18F11809   5.910   1.473   9.031 -0.7270 -0.9440 -0.8967
  113OSM   H18G11810   5.847   1.637   9.011 -0.3884 -0.0866  0.1544
  113OSM   H18H11811   5.738   1.495   8.973 -0.9828  0.7274  0.3903
  114OSM      N11812   6.144   5.256  11.358  0.3266 -0.0221 -0.1676
  114OSM    C1511813   6.286   5.238  11.396 -0.3011  0.2217  0.1228
  114OSM   H15A11814   6.301   5.256  11.501 -1.3068 -1.2245  0.5418
  114OSM   H15B11815   6.343   5.308  11.337 -1.2080  1.5973  0.8207
  114OSM   H15C11816   6.325   5.141  11.367  1.9843  0.9285  0.6658
  114OSM    C1411817   6.058   5.146  11.418  0.2344 -0.7093  0.2028
  114OSM   H14A11818   6.109   5.120  11.510  1.1505  1.0871  0.2467
  114OSM   H14B11819   6.057   5.051  11.365  1.8432 -1.4212  1.3512
  114OSM   H14C11820   5.956   5.175  11.439  0.4762 -0.8478  1.6131
  114OSM    C1311821   6.096   5.386  11.411  0.2706  0.1397 -0.5715
  114OSM   H13A11822   6.111   5.388  11.518 -1.5893  0.9021 -0.2896
  114OSM   H13B11823   5.994   5.404  11.381  0.0595 -0.2129 -0.0892
  114OSM   H13C11824   6.160   5.460  11.366 -0.0773 -0.2668 -1.7909
  114OSM    C1211825   6.134   5.252  11.208  0.0068 -0.3416  0.0650
  114OSM   H12A11826   6.031   5.236  11.182  0.0900  0.2937 -0.6793
  114OSM   H12B11827   6.189   5.165  11.177  2.5363  0.4248  2.0584
  114OSM    C1111828   6.178   5.387  11.148 -0.0546 -0.4240  0.2301
  114OSM   H11A11829   6.112   5.474  11.168  0.2171  0.1463 -1.2326
  114OSM   H11B11830   6.166   5.374  11.038 -0.3876 -0.5178  0.2752
  114OSM      P11831   6.378   5.552  11.160 -0.1920 -0.0109 -0.0100
  114OSM    O1311832   6.331   5.631  11.274 -0.4165 -0.0396 -0.4732
  114OSM    O1411833   6.517   5.531  11.137 -0.3102 -0.9828 -0.1663
  114OSM    O1111834   6.305   5.602  11.032  0.1181 -0.2028  0.0505
  114OSM    O1211835   6.315   5.414  11.173  0.1726 -0.2327  0.2790
  114OSM    C1S11836   6.377   5.629  10.912 -0.6832 -0.1084  0.2814
  114OSM    H1S11837   6.459   5.559  10.887  3.6124  3.8824  1.7898
  114OSM    H1T11838   6.432   5.725  10.923  2.3138 -1.4767 -1.6200
  114OSM     NF11839   6.367   5.668  10.677  0.3183  0.5823 -0.1708
  114OSM    HNF11840   6.369   5.757  10.632 -2.0328  0.2448 -1.0530
  114OSM    C2S11841   6.279   5.640  10.788 -0.2701 -0.0893  0.4607
  114OSM    H2S11842   6.225   5.546  10.764  0.3376  0.0704 -1.7214
  114OSM    C3S11843   6.171   5.746  10.817 -0.5628 -0.7565 -0.3560
  114OSM    H3S11844   6.221   5.843  10.836  0.1168 -1.1838  0.0699
  114OSM     O311845   6.100   5.738  10.938 -0.2838  0.7379  0.0429
  114OSM    HO311846   6.165   5.688  10.988 -0.2767 -2.0348 -2.4602
  114OSM    C4S11847   6.083   5.757  10.699 -0.2780  0.2288 -0.0081
  114OSM    H4S11848   6.125   5.826  10.625  0.1532 -0.2121 -0.1782
  114OSM    C5S11849   5.957   5.708  10.685 -0.9577  0.1650 -1.0128
  114OSM    H5S11850   5.904   5.669  10.773 -0.8239  1.8381 -0.1425
  114OSM    C6S11851   5.873   5.725  10.566 -0.1217 -0.6992  0.7158
  114OSM    H6S11852   5.779   5.778  10.595  0.2671  1.0954 -1.1408
  114OSM    H6T11853   5.833   5.628  10.529 -0.6949 -0.5514  0.9307
  114OSM    C7S11854   5.935   5.798  10.444 -0.1855  0.1441 -0.0823
  114OSM    H7S11855   6.013   5.732  10.401 -0.7714 -0.0872 -0.8340
  114OSM    H7T11856   5.988   5.888  10.480  2.2771 -1.4715  0.6188
  114OSM    C8S11857   5.823   5.841  10.342  0.4024  0.6564  0.8161
  114OSM    H8S11858   5.783   5.937  10.381 -2.2299 -0.2375  0.5357
  114OSM    H8T11859   5.747   5.759  10.349  1.3555 -0.5839 -1.9778
  114OSM    C9S11860   5.876   5.853  10.205  0.3531 -0.2373  0.2555
  114OSM    H9S11861   5.802   5.859  10.123  1.4456 -2.1095 -0.9600
  114OSM    H9T11862   5.935   5.760  10.187 -0.9039 -0.9159 -0.5179
  114OSM   C10S11863   5.962   5.974  10.187 -0.6630  0.1483 -0.5554
  114OSM   H10S11864   6.060   5.939  10.226 -1.5126 -1.0874  0.5407
  114OSM   H10T11865   5.913   6.062  10.233 -1.4532 -0.6972  0.2682
  114OSM   C11S11866   5.989   6.005  10.035 -0.3416  0.1481  0.5480
  114OSM   H11S11867   5.896   6.036   9.981 -0.3657 -1.0287 -0.1107
  114OSM   H11T11868   6.039   5.914   9.996 -1.7121 -0.4931  0.2329
  114OSM   C12S11869   6.095   6.116  10.023 -0.1186 -0.9905  0.1711
  114OSM   H12S11870   6.185   6.087  10.081  0.4887 -0.2880 -0.3873
  114OSM   H12T11871   6.062   6.209  10.074  0.6025 -1.1991  1.0299
  114OSM   C13S11872   6.147   6.156   9.881 -0.3913 -0.4737  0.7169
  114OSM   H13S11873   6.182   6.063   9.829  0.6603  0.1562  0.2613
  114OSM   H13T11874   6.233   6.225   9.889 -0.3075 -0.6184  1.1043
  114OSM   C14S11875   6.026   6.222   9.797  0.4226 -0.2483 -0.4925
  114OSM   H14S11876   5.984   6.318   9.834  1.9379  0.4655 -0.5815
  114OSM   H14T11877   5.948   6.142   9.798  0.7769 -0.6329  2.0833
  114OSM   C15S11878   6.065   6.226   9.645  0.2716 -0.5055 -0.8078
  114OSM   H15S11879   6.111   6.127   9.624  0.1536 -0.4762 -1.1975
  114OSM   H15T11880   6.138   6.310   9.641 -0.1675 -0.1365 -1.0742
  114OSM   C16S11881   5.944   6.243   9.550  0.2230  0.1988 -0.1769
  114OSM   H16S11882   5.985   6.282   9.454  1.3661  0.5422  0.4261
  114OSM   H16T11883   5.877   6.324   9.584  0.1839 -0.0024  0.2280
  114OSM   C17S11884   5.855   6.120   9.530  0.3619 -0.8835  0.0010
  114OSM   H17S11885   5.754   6.166   9.521  0.4991 -0.1158  1.9831
  114OSM   H17T11886   5.845   6.066   9.627  0.6533  2.1740  1.8454
  114OSM   C18S11887   5.890   6.023   9.424 -0.2230  0.1683  0.0111
  114OSM   H18S11888   5.904   6.063   9.322  0.4805 -0.0517  0.0217
  114OSM   H18T11889   5.833   5.928   9.417 -1.7836  1.1967 -3.4929
  114OSM   H18U11890   5.996   5.990   9.431  0.0457  0.3492 -2.3394
  114OSM    C1F11891   6.453   5.591  10.622 -0.3005 -0.2773  0.3576
  114OSM     OF11892   6.490   5.483  10.670  0.3653  0.7747 -0.8096
  114OSM    C2F11893   6.514   5.642  10.497 -0.0418  0.0515 -0.6147
  114OSM    H2F11894   6.559   5.738  10.529  2.4144 -1.0473 -0.6007
  114OSM    H2G11895   6.439   5.647  10.414 -1.5465 -0.4612  0.6594
  114OSM    C3F11896   6.632   5.548  10.457  0.9061 -0.2507 -0.5508
  114OSM    H3F11897   6.606   5.451  10.412 -1.1255 -0.3803  0.7798
  114OSM    H3G11898   6.698   5.526  10.544 -0.1414  0.2866  0.4092
  114OSM    C4F11899   6.718   5.605  10.348 -0.0479  0.1149 -0.9307
  114OSM    H4F11900   6.803   5.537  10.330  1.2915  1.1804  1.0498
  114OSM    H4G11901   6.746   5.705  10.387 -0.9518  1.1798 -2.8859
  114OSM    C5F11902   6.645   5.611  10.211  0.0121 -0.0610 -0.3270
  114OSM    H5F11903   6.562   5.684  10.225 -0.0301 -0.3709  1.1206
  114OSM    H5G11904   6.591   5.518  10.185  1.7726 -0.8068 -1.4865
  114OSM    C6F11905   6.741   5.652  10.095 -0.0813 -0.0418  0.5114
  114OSM    H6F11906   6.826   5.580  10.094 -0.2242 -0.2095  0.3523
  114OSM    H6G11907   6.780   5.755  10.102 -0.5035  0.1782 -0.3157
  114OSM    C7F11908   6.678   5.634   9.952  0.0555  0.7038 -0.1171
  114OSM    H7F11909   6.599   5.712   9.946 -0.8074  0.1168  2.4709
  114OSM    H7G11910   6.616   5.542   9.944  0.5368  0.2102  1.5487
  114OSM    C8F11911   6.785   5.628   9.843  0.4097  0.3554  0.5170
  114OSM    H8F11912   6.852   5.541   9.854 -0.3217 -0.0532  1.9986
  114OSM    H8G11913   6.854   5.715   9.854  1.2802 -0.2962  0.3010
  114OSM    C9F11914   6.710   5.645   9.709  0.4930  0.2138 -0.2020
  114OSM    H9F11915   6.638   5.728   9.711  1.8573  1.4896 -1.1724
  114OSM   C10F11916   6.713   5.563   9.607 -0.8333  0.4980 -0.2324
  114OSM   H10F11917   6.649   5.571   9.518  0.8006 -2.2587 -1.8078
  114OSM   C11F11918   6.787   5.435   9.590 -0.2681  0.5720  0.1392
  114OSM   H11F11919   6.721   5.363   9.537  0.2032  0.4080 -0.2363
  114OSM   H11G11920   6.827   5.385   9.680  3.4467 -0.1386 -1.7271
  114OSM   C12F11921   6.917   5.450   9.513  0.0359  0.4531 -0.2563
  114OSM   H12F11922   6.977   5.359   9.531 -0.0190  0.1868 -1.3639
  114OSM   H12G11923   6.980   5.536   9.547  0.1825  0.0809  0.4212
  114OSM   C13F11924   6.883   5.458   9.357  0.1215 -0.0202 -0.2287
  114OSM   H13F11925   6.815   5.542   9.331 -2.6525 -2.5289 -1.5726
  114OSM   H13G11926   6.831   5.361   9.347  0.2653 -0.3043  1.4378
  114OSM   C14F11927   7.003   5.484   9.259 -0.4105  0.1521  0.2665
  114OSM   H14F11928   7.070   5.396   9.257 -0.3170  0.2106  0.6521
  114OSM   H14G11929   7.065   5.563   9.308 -3.2995  2.6231  0.2625
  114OSM   C15F11930   6.956   5.526   9.120  0.4939  0.0710 -0.1360
  114OSM   H15F11931   7.048   5.569   9.075  1.1452 -0.5958  0.5144
  114OSM   H15G11932   6.886   5.611   9.133  0.3555 -0.1569  0.6480
  114OSM   C16F11933   6.893   5.424   9.030  0.1026 -0.6153 -0.1807
  114OSM   H16F11934   6.816   5.362   9.080  0.8724 -0.8666  0.7277
  114OSM   H16G11935   6.970   5.354   8.990  1.3645  1.0198 -0.7074
  114OSM   C17F11936   6.825   5.488   8.912  0.0528 -0.3889 -0.4418
  114OSM   H17F11937   6.778   5.411   8.848 -0.8488  0.4720 -0.8509
  114OSM   H17G11938   6.902   5.543   8.853  0.5914 -0.9733 -0.2934
  114OSM   C18F11939   6.720   5.590   8.950  0.1117 -0.1283  0.1477
  114OSM   H18F11940   6.646   5.549   9.022  0.6791 -0.0734  0.7732
  114OSM   H18G11941   6.664   5.619   8.859 -0.4436  1.9390  1.0701
  114OSM   H18H11942   6.755   5.690   8.986  0.1586  0.0126 -0.2810
  115OSM      N11943   5.307   0.770   5.767  0.2287  0.2853 -0.1470
  115OSM    C1511944   5.228   0.647   5.757 -0.0965  0.0401 -0.1858
  115OSM   H15A11945   5.206   0.626   5.653 -0.3105 -1.4509  0.1247
  115OSM   H15B11946   5.132   0.650   5.808 -0.1976  0.5981 -0.4060
  115OSM   H15C11947   5.287   0.569   5.804 -0.0020  0.2975  0.1219
  115OSM    C1411948   5.452   0.731   5.768  0.0743  0.8206  0.4241
  115OSM   H14A11949   5.518   0.817   5.765  1.1822 -0.0237 -0.1368
  115OSM   H14B11950   5.482   0.663   5.690  3.0939  1.3187  1.0190
  115OSM   H14C11951   5.472   0.680   5.862  0.4976 -0.3859 -0.2943
  115OSM    C1311952   5.274   0.868   5.660 -0.8817 -0.1588  0.2208
  115OSM   H13A11953   5.319   0.822   5.573  0.3272  2.2424 -0.5140
  115OSM   H13B11954   5.336   0.956   5.670  2.4080 -2.0006 -1.8007
  115OSM   H13C11955   5.170   0.895   5.652 -1.0268  0.0071  2.1377
  115OSM    C1211956   5.275   0.836   5.900 -0.4997  0.7119 -0.2009
  115OSM   H12A11957   5.169   0.854   5.907 -0.8666 -1.1518 -0.4905
  115OSM   H12B11958   5.322   0.933   5.908 -1.6203  1.2092  0.4786
  115OSM    C1111959   5.312   0.758   6.032  0.4417  0.2594 -0.3111
  115OSM   H11A11960   5.290   0.651   6.012 -0.3392  0.4265 -0.3571
  115OSM   H11B11961   5.246   0.778   6.119 -0.8095 -0.9074 -0.9595
  115OSM      P11962   5.508   0.861   6.174  0.1562  0.4436  0.0794
  115OSM    O1311963   5.654   0.828   6.169  0.4594  0.3707 -0.5176
  115OSM    O1411964   5.468   1.001   6.147 -0.2137  0.3758 -0.3126
  115OSM    O1111965   5.441   0.810   6.309 -0.1776  0.5184  0.2364
  115OSM    O1211966   5.445   0.767   6.069 -0.1277  0.1986  0.7796
  115OSM    C1S11967   5.504   0.712   6.392  0.1006  0.1416  0.6514
  115OSM    H1S11968   5.614   0.724   6.395  0.5061 -1.6737 -2.4505
  115OSM    H1T11969   5.485   0.609   6.355 -0.3063 -0.5423  2.6523
  115OSM     NF11970   5.519   0.596   6.619 -0.0311 -0.6924  0.5640
  115OSM    HNF11971   5.455   0.537   6.668 -2.3516 -0.8093 -2.3670
  115OSM    C2S11972   5.459   0.713   6.546 -0.2991  0.7649  0.3446
  115OSM    H2S11973   5.498   0.806   6.593  1.7623 -0.5628  1.4522
  115OSM    C3S11974   5.304   0.733   6.553  0.4607  0.0720  0.4158
  115OSM    H3S11975   5.253   0.646   6.506  0.7425 -0.0101  0.2532
  115OSM     O311976   5.246   0.834   6.471  0.7096 -0.6812  0.3433
  115OSM    HO311977   5.312   0.843   6.402 -0.8862  2.1868 -0.9805
  115OSM    C4S11978   5.270   0.746   6.701  1.1754 -1.1191 -0.0921
  115OSM    H4S11979   5.231   0.659   6.753 -1.6845 -1.0895 -1.9767
  115OSM    C5S11980   5.274   0.865   6.760 -0.2344 -0.3792  0.4870
  115OSM    H5S11981   5.300   0.948   6.693 -0.1467 -1.2818 -0.6237
  115OSM    C6S11982   5.249   0.887   6.901  0.8151  0.1792 -0.6912
  115OSM    H6S11983   5.213   0.800   6.960 -0.9524  1.3624  0.0938
  115OSM    H6T11984   5.162   0.955   6.913 -0.1294 -0.3360 -3.8118
  115OSM    C7S11985   5.372   0.941   6.976  0.3907  0.8255 -0.0215
  115OSM    H7S11986   5.403   1.038   6.932 -1.6794  2.2832  1.5182
  115OSM    H7T11987   5.453   0.868   6.956  0.2771  0.7422 -0.1836
  115OSM    C8S11988   5.338   0.962   7.123  0.1347  0.1758 -0.4623
  115OSM    H8S11989   5.313   0.863   7.166  2.1550 -0.2113 -0.0648
  115OSM    H8T11990   5.249   1.027   7.135 -0.2497 -0.6963  1.8034
  115OSM    C9S11991   5.452   1.034   7.200  0.0220 -0.2252 -0.5036
  115OSM    H9S11992   5.477   1.126   7.143 -0.3620  0.4191  0.3409
  115OSM    H9T11993   5.534   0.960   7.186 -2.3563 -3.1124 -0.2036
  115OSM   C10S11994   5.441   1.072   7.346  0.2892 -0.5644 -0.3699
  115OSM   H10S11995   5.417   0.984   7.409 -1.7133  0.0074 -0.2529
  115OSM   H10T11996   5.353   1.140   7.345  1.9233  1.6713 -0.3402
  115OSM   C11S11997   5.562   1.141   7.409 -0.3813  0.2018 -0.1658
  115OSM   H11S11998   5.663   1.097   7.401  0.2340  1.8829 -3.0791
  115OSM   H11T11999   5.538   1.144   7.518  2.3219  0.3501  0.4935
  115OSM   C12S12000   5.583   1.285   7.366  0.8513  0.1107 -0.2499
  115OSM   H12S12001   5.489   1.336   7.399  1.8975  0.7167  1.9491
  115OSM   H12T12002   5.598   1.288   7.256  2.0228 -0.1856 -0.1058
  115OSM   C13S12003   5.688   1.363   7.440 -0.1075 -0.2890 -1.0755
  115OSM   H13S12004   5.785   1.313   7.418 -1.1295 -3.0481  0.2287
  115OSM   H13T12005   5.669   1.349   7.549 -1.3346  3.1396 -0.7291
  115OSM   C14S12006   5.696   1.517   7.426  0.0461  0.1916 -0.7422
  115OSM   H14S12007   5.776   1.562   7.488  0.8952 -0.9591 -0.9556
  115OSM   H14T12008   5.602   1.562   7.463 -0.2108  0.7138 -1.9610
  115OSM   C15S12009   5.717   1.577   7.291  0.7299 -0.5426  0.8280
  115OSM   H15S12010   5.679   1.681   7.287 -0.6070 -1.0017  1.0807
  115OSM   H15T12011   5.647   1.514   7.232  0.7247 -0.0873  0.3396
  115OSM   C16S12012   5.859   1.587   7.228  0.2172  0.1499  0.2987
  115OSM   H16S12013   5.913   1.668   7.281  0.0648 -0.0332  0.7459
  115OSM   H16T12014   5.834   1.609   7.122  0.5105 -1.9805 -0.2653
  115OSM   C17S12015   5.936   1.457   7.227  0.0575  0.6901  0.0206
  115OSM   H17S12016   5.881   1.394   7.154  0.2850  0.1931  0.2732
  115OSM   H17T12017   5.940   1.408   7.327 -1.7967  1.8406  0.7011
  115OSM   C18S12018   6.078   1.472   7.162  0.3197  0.1922 -0.5025
  115OSM   H18S12019   6.074   1.528   7.066 -1.1972  1.7904  0.4329
  115OSM   H18T12020   6.125   1.375   7.136 -0.6141  0.4413 -3.4731
  115OSM   H18U12021   6.135   1.539   7.230 -0.2639 -1.2029  1.4509
  115OSM    C1F12022   5.654   0.579   6.643  0.3461 -0.6985  0.0836
  115OSM     OF12023   5.734   0.651   6.585 -0.0101  0.1114 -0.0701
  115OSM    C2F12024   5.687   0.464   6.729 -0.1307 -0.1930  0.2523
  115OSM    H2F12025   5.719   0.380   6.663 -1.5620  0.9475 -2.0258
  115OSM    H2G12026   5.594   0.437   6.783 -3.0192  3.7377 -2.2545
  115OSM    C3F12027   5.787   0.493   6.840 -0.2616  0.2898  0.0130
  115OSM    H3F12028   5.886   0.518   6.795 -0.0756 -1.4546 -0.6346
  115OSM    H3G12029   5.805   0.405   6.905  0.3346 -0.5366 -1.2104
  115OSM    C4F12030   5.739   0.596   6.937 -0.4875 -0.5065 -0.7332
  115OSM    H4F12031   5.732   0.699   6.895 -2.2976  0.8063  2.4736
  115OSM    H4G12032   5.827   0.601   7.005  1.2871  3.2509 -2.9244
  115OSM    C5F12033   5.606   0.566   7.010 -0.6238 -0.0334  0.5223
  115OSM    H5F12034   5.593   0.456   7.019  0.9797 -0.4646 -1.6905
  115OSM    H5G12035   5.524   0.597   6.942 -0.2620  0.3953  0.2762
  115OSM    C6F12036   5.576   0.628   7.148 -0.2181  0.3242 -0.3103
  115OSM    H6F12037   5.561   0.738   7.140 -0.4345  0.3055 -0.1392
  115OSM    H6G12038   5.672   0.610   7.201 -1.6638 -2.1667  1.6590
  115OSM    C7F12039   5.461   0.562   7.222  0.2969 -0.2380  0.1321
  115OSM    H7F12040   5.451   0.455   7.194  3.0276 -0.7752  0.9156
  115OSM    H7G12041   5.367   0.609   7.184  0.7663  1.5394  1.0256
  115OSM    C8F12042   5.469   0.572   7.375 -0.5142  0.1192 -0.7677
  115OSM    H8F12043   5.530   0.488   7.414 -2.2807 -0.4770  0.8730
  115OSM    H8G12044   5.364   0.563   7.411 -0.9880  2.6122 -1.3223
  115OSM    C9F12045   5.517   0.703   7.427  0.3175  0.5095  1.0120
  115OSM    H9F12046   5.569   0.757   7.346 -1.6766  0.6532 -0.2735
  115OSM   C10F12047   5.514   0.746   7.548 -0.1506 -0.8585 -0.1228
  115OSM   H10F12048   5.568   0.839   7.570  0.5277 -1.0391 -0.9590
  115OSM   C11F12049   5.466   0.665   7.664  0.3717  0.0064  0.3044
  115OSM   H11F12050   5.544   0.595   7.701  1.0069  1.1882  1.2521
  115OSM   H11G12051   5.382   0.603   7.626  0.3848  1.1309 -1.6861
  115OSM   C12F12052   5.415   0.758   7.774 -0.2377 -0.2253 -0.4249
  115OSM   H12F12053   5.354   0.706   7.851 -0.7447 -1.4497 -1.6083
  115OSM   H12G12054   5.344   0.832   7.730  0.5327  0.8441  0.0829
  115OSM   C13F12055   5.525   0.840   7.844 -0.1741  0.2243 -0.2657
  115OSM   H13F12056   5.490   0.939   7.881 -0.4826 -0.3167  0.9490
  115OSM   H13G12057   5.608   0.859   7.773  0.0139  0.7900  0.1046
  115OSM   C14F12058   5.564   0.752   7.968  0.3484 -0.0890  1.2635
  115OSM   H14F12059   5.555   0.643   7.948  0.3006  0.3291 -1.3700
  115OSM   H14G12060   5.494   0.773   8.052  0.7596 -1.8425  2.0920
  115OSM   C15F12061   5.714   0.770   8.000  0.6349 -0.9915 -0.3983
  115OSM   H15F12062   5.739   0.878   8.001 -0.1858 -0.7878  0.5586
  115OSM   H15G12063   5.773   0.726   7.917  0.8562  0.4060 -1.0080
  115OSM   C16F12064   5.737   0.709   8.142 -0.0938 -0.0675  0.3840
  115OSM   H16F12065   5.715   0.600   8.141  0.4928 -0.1939  0.4621
  115OSM   H16G12066   5.679   0.768   8.216 -0.8723 -0.7287  0.3152
  115OSM   C17F12067   5.888   0.737   8.180  0.2328  0.1000  0.3406
  115OSM   H17F12068   5.908   0.846   8.181 -0.8140  0.3174 -0.4997
  115OSM   H17G12069   5.948   0.692   8.098  1.4720  1.3061  0.5376
  115OSM   C18F12070   5.925   0.675   8.322 -0.0465 -0.4343  0.9916
  115OSM   H18F12071   5.908   0.566   8.321  0.1843 -0.4706  0.9851
  115OSM   H18G12072   5.864   0.723   8.402 -0.4486 -1.0657  1.0706
  115OSM   H18H12073   6.028   0.702   8.355 -0.2105  3.1311 -0.8842
  116OSM      N12074   4.428   5.764   6.203  0.0322  0.9013 -0.2107
  116OSM    C1512075   4.471   5.668   6.097 -0.3580  0.6544 -0.3421
  116OSM   H15A12076   4.426   5.570   6.106 -0.9423  0.9788  0.3638
  116OSM   H15B12077   4.576   5.649   6.113 -0.2935 -0.0296 -1.4645
  116OSM   H15C12078   4.453   5.705   5.997  1.1519  1.0953 -0.4751
  116OSM    C1412079   4.492   5.901   6.186 -0.3601 -0.1053 -0.0894
  116OSM   H14A12080   4.468   5.970   6.265  0.9353 -0.6220  0.7851
  116OSM   H14B12081   4.474   5.948   6.090  4.8629  2.6746 -0.1071
  116OSM   H14C12082   4.600   5.898   6.189 -0.3509 -0.2361 -0.4856
  116OSM    C1312083   4.282   5.781   6.187 -0.0431  0.2984  0.4152
  116OSM   H13A12084   4.225   5.691   6.203 -1.0062  0.8753  0.2557
  116OSM   H13B12085   4.241   5.829   6.100  1.0154  0.2507 -0.1327
  116OSM   H13C12086   4.259   5.852   6.265  1.2298  1.0545  0.1351
  116OSM    C1212087   4.457   5.702   6.336  0.2537 -0.0770 -0.6000
  116OSM   H12A12088   4.469   5.782   6.407 -2.1415 -0.5202  0.3863
  116OSM   H12B12089   4.552   5.651   6.326  0.1116 -0.4889  0.0982
  116OSM    C1112090   4.366   5.588   6.396  0.4024 -0.3827 -0.1427
  116OSM   H11A12091   4.260   5.621   6.396  0.3585 -0.4913  0.9950
  116OSM   H11B12092   4.391   5.567   6.502  2.8190 -2.5927 -1.0557
  116OSM      P12093   4.511   5.382   6.305 -0.2300  0.2007  0.0244
  116OSM    O1312094   4.466   5.290   6.195 -0.3605 -0.7677  0.3047
  116OSM    O1412095   4.630   5.466   6.295 -0.0228  0.1573  0.9529
  116OSM    O1112096   4.509   5.301   6.445 -0.1659  0.3266  0.0224
  116OSM    O1212097   4.387   5.473   6.316  0.4473  0.0101 -0.1723
  116OSM    C1S12098   4.605   5.333   6.549 -0.2700  0.3385 -0.0898
  116OSM    H1S12099   4.608   5.441   6.578 -0.4125  0.4849 -0.6007
  116OSM    H1T12100   4.702   5.296   6.510  0.0361  1.2312 -0.2094
  116OSM     NF12101   4.675   5.293   6.780  0.0990 -0.4687 -0.4876
  116OSM    HNF12102   4.757   5.238   6.793  1.6783  1.8363 -0.0815
  116OSM    C2S12103   4.586   5.245   6.675 -0.2074 -0.4294 -0.9543
  116OSM    H2S12104   4.485   5.266   6.717  1.0749  2.4857  1.0168
  116OSM    C3S12105   4.601   5.092   6.644 -0.3874 -0.5085  0.2804
  116OSM    H3S12106   4.708   5.084   6.615 -0.1738 -0.5047  1.0405
  116OSM     O312107   4.515   5.049   6.533 -0.6009 -0.0001  0.3429
  116OSM    HO312108   4.517   5.122   6.472 -0.6998 -0.7529 -0.5819
  116OSM    C4S12109   4.577   5.013   6.768  0.2584 -0.1840  0.4039
  116OSM    H4S12110   4.670   5.011   6.826  0.1485 -1.0855  0.5609
  116OSM    C5S12111   4.460   4.968   6.811  0.7693 -0.5651 -0.2691
  116OSM    H5S12112   4.378   4.984   6.739  0.3509 -0.7905  0.1538
  116OSM    C6S12113   4.425   4.894   6.936  0.0180 -0.2335 -0.1846
  116OSM    H6S12114   4.401   4.787   6.920  0.3368 -0.4825  0.9161
  116OSM    H6T12115   4.336   4.937   6.986  0.8894  2.1125 -0.5354
  116OSM    C7S12116   4.529   4.894   7.054  0.3196 -0.5460  0.2469
  116OSM    H7S12117   4.558   4.996   7.090  1.1049 -0.2194 -1.2241
  116OSM    H7T12118   4.620   4.848   7.009  1.5973 -0.4283  2.5361
  116OSM    C8S12119   4.481   4.816   7.178  0.1629  0.3911  0.6066
  116OSM    H8S12120   4.446   4.713   7.155  3.6981 -1.3953  2.4957
  116OSM    H8T12121   4.381   4.851   7.212  0.1013 -0.5980  1.4872
  116OSM    C9S12122   4.573   4.813   7.299  0.0888 -0.1570 -0.2804
  116OSM    H9S12123   4.556   4.907   7.356  1.8698 -0.6186  1.1399
  116OSM    H9T12124   4.680   4.810   7.268  0.4106  0.9243  0.6469
  116OSM   C10S12125   4.555   4.690   7.389 -0.0878  0.1321  0.3224
  116OSM   H10S12126   4.615   4.606   7.346  0.4122  0.5504  0.1896
  116OSM   H10T12127   4.448   4.663   7.379 -0.0710  0.4780 -0.9107
  116OSM   C11S12128   4.582   4.719   7.534 -0.4034  0.3521 -0.1424
  116OSM   H11S12129   4.514   4.799   7.570 -0.0168  0.5373  0.1848
  116OSM   H11T12130   4.687   4.753   7.541 -0.6707  1.0254  0.7041
  116OSM   C12S12131   4.561   4.593   7.622 -0.0519  0.1410 -0.6986
  116OSM   H12S12132   4.636   4.512   7.612  1.0275  0.9736  0.3907
  116OSM   H12T12133   4.465   4.542   7.600 -0.0345 -0.5642  0.7340
  116OSM   C13S12134   4.560   4.626   7.776  0.0903 -0.1831  0.6016
  116OSM   H13S12135   4.468   4.689   7.773  1.6855  2.3361  1.2810
  116OSM   H13T12136   4.643   4.691   7.811  0.2950  0.4458 -0.9638
  116OSM   C14S12137   4.560   4.506   7.858 -0.2050  0.6729  0.0429
  116OSM   H14S12138   4.657   4.453   7.865 -0.3712  0.3757  0.1370
  116OSM   H14T12139   4.478   4.440   7.821  0.1717 -0.2832  0.8864
  116OSM   C15S12140   4.515   4.557   8.002 -0.2103  0.3783  0.2934
  116OSM   H15S12141   4.412   4.593   7.983 -1.0596 -0.9609  2.1659
  116OSM   H15T12142   4.587   4.633   8.040 -0.8632  1.1638 -0.0239
  116OSM   C16S12143   4.497   4.443   8.103  0.1300 -0.0064 -0.2829
  116OSM   H16S12144   4.552   4.469   8.197 -2.3775  1.1243  0.9571
  116OSM   H16T12145   4.543   4.351   8.061  0.1308  0.5033 -1.4323
  116OSM   C17S12146   4.341   4.414   8.130  1.0121 -0.1416 -0.2212
  116OSM   H17S12147   4.297   4.386   8.032 -1.8627  2.0477  0.2916
  116OSM   H17T12148   4.296   4.511   8.161  0.8784 -0.6390  1.1821
  116OSM   C18S12149   4.325   4.300   8.215 -0.2589  0.0416 -0.6394
  116OSM   H18S12150   4.225   4.251   8.218 -0.5327  0.5174 -1.7286
  116OSM   H18T12151   4.354   4.315   8.322  0.8286 -1.4775 -0.6779
  116OSM   H18U12152   4.394   4.218   8.188  1.3401  0.9945  0.4039
  116OSM    C1F12153   4.651   5.409   6.839 -0.0713  0.6290 -1.4790
  116OSM     OF12154   4.562   5.484   6.807 -0.5810 -0.4605 -0.3902
  116OSM    C2F12155   4.727   5.452   6.970 -0.0498 -0.1201  0.0362
  116OSM    H2F12156   4.748   5.561   6.968 -0.1931 -0.0703 -2.3964
  116OSM    H2G12157   4.822   5.394   6.972  1.0686  1.5001 -1.9938
  116OSM    C3F12158   4.652   5.421   7.101  0.1346  0.1115 -0.0764
  116OSM    H3F12159   4.659   5.310   7.107 -1.3544  0.0877  2.2987
  116OSM    H3G12160   4.543   5.425   7.078  0.2695 -3.9409 -2.3740
  116OSM    C4F12161   4.697   5.493   7.231 -0.1835  0.1268  0.2692
  116OSM    H4F12162   4.718   5.600   7.211  1.4992  0.1839  2.1168
  116OSM    H4G12163   4.793   5.446   7.261 -0.4911 -0.4078  0.4142
  116OSM    C5F12164   4.600   5.482   7.347  0.3593 -0.0989 -0.3630
  116OSM    H5F12165   4.576   5.375   7.367 -1.5448  0.4711  0.6714
  116OSM    H5G12166   4.507   5.541   7.329 -0.2108 -0.6200  0.7422
  116OSM    C6F12167   4.673   5.523   7.477  0.3925 -0.2660  0.5309
  116OSM    H6F12168   4.779   5.489   7.478  0.7757  0.7687 -0.8179
  116OSM    H6G12169   4.614   5.484   7.562  0.0144 -0.6501  0.0998
  116OSM    C7F12170   4.663   5.680   7.496 -0.1299  0.1959 -0.9220
  116OSM    H7F12171   4.562   5.715   7.465 -0.8367 -0.2983  0.7254
  116OSM    H7G12172   4.744   5.728   7.436 -0.1382  1.4062  0.0029
  116OSM    C8F12173   4.701   5.737   7.634  0.3041  0.6802 -0.2936
  116OSM    H8F12174   4.620   5.715   7.707 -0.2876  1.9228 -0.5491
  116OSM    H8G12175   4.698   5.848   7.631 -1.5635  0.6866  0.3243
  116OSM    C9F12176   4.834   5.682   7.688 -0.5859  0.3756 -0.2095
  116OSM    H9F12177   4.923   5.682   7.623 -1.8796 -1.2909 -2.0942
  116OSM   C10F12178   4.862   5.621   7.804  0.7131 -0.0208 -0.2110
  116OSM   H10F12179   4.965   5.585   7.817  0.9000  0.9515  1.1600
  116OSM   C11F12180   4.768   5.594   7.924 -0.3058  0.3631 -0.7371
  116OSM   H11F12181   4.786   5.490   7.961 -2.1572  1.1209  2.7391
  116OSM   H11G12182   4.660   5.600   7.898 -0.8179 -1.7307  0.5983
  116OSM   C12F12183   4.786   5.688   8.047  0.0418  0.1437 -0.0941
  116OSM   H12F12184   4.686   5.675   8.095 -0.6449  0.4413 -1.3819
  116OSM   H12G12185   4.798   5.789   8.003 -1.3126 -0.9554 -3.3647
  116OSM   C13F12186   4.912   5.642   8.122  0.3664  0.0036 -0.2837
  116OSM   H13F12187   5.006   5.661   8.067  0.4025  1.1579  0.1470
  116OSM   H13G12188   4.917   5.531   8.122  0.6804  0.0121 -1.0184
  116OSM   C14F12189   4.910   5.687   8.266 -0.2252 -0.3450 -1.0855
  116OSM   H14F12190   4.913   5.798   8.267  1.0581 -0.3586  0.3040
  116OSM   H14G12191   5.009   5.654   8.304 -0.6021 -0.0986  0.1772
  116OSM   C15F12192   4.796   5.633   8.353 -0.2883  0.2845 -0.1350
  116OSM   H15F12193   4.791   5.523   8.341  1.2255 -0.0430  1.6861
  116OSM   H15G12194   4.699   5.668   8.312 -0.2338  0.0366 -0.4771
  116OSM   C16F12195   4.809   5.665   8.499 -0.1440 -0.1854 -0.0936
  116OSM   H16F12196   4.830   5.773   8.516 -0.5077 -0.5416  3.4048
  116OSM   H16G12197   4.899   5.609   8.531 -2.4897 -3.3793  1.4594
  116OSM   C17F12198   4.696   5.621   8.592  0.6276  0.2199 -0.2534
  116OSM   H17F12199   4.671   5.514   8.573 -2.8791  0.9699 -0.6621
  116OSM   H17G12200   4.606   5.665   8.544 -1.1593 -1.0198  1.7761
  116OSM   C18F12201   4.699   5.673   8.738  0.0929  0.1614  0.4680
  116OSM   H18F12202   4.635   5.608   8.803  1.1921 -2.2585 -0.7403
  116OSM   H18G12203   4.681   5.783   8.738  2.4551  0.7191 -3.4410
  116OSM   H18H12204   4.804   5.654   8.770 -0.7748 -2.7770  1.9851
  117OSM      N12205   4.022   0.054   6.427 -0.5919 -0.3693  0.0928
  117OSM    C1512206   3.955   0.016   6.556  0.0464 -0.3623 -0.2620
  117OSM   H15A12207   4.001   0.071   6.636  0.3303  0.6067 -1.0711
  117OSM   H15B12208   3.969  -0.086   6.591  1.1797  0.9643  3.7146
  117OSM   H15C12209   3.848   0.027   6.561  0.0932 -0.2914  0.8741
  117OSM    C1412210   4.169   0.020   6.430  0.7441  0.3641  0.3761
  117OSM   H14A12211   4.172  -0.084   6.457 -1.0226  0.1983  0.0405
  117OSM   H14B12212   4.215   0.088   6.500 -0.4738 -0.0502  1.6276
  117OSM   H14C12213   4.226   0.041   6.340  0.2023 -0.0889 -0.0846
  117OSM    C1312214   3.961  -0.027   6.317  0.2877 -0.1933  0.6869
  117OSM   H13A12215   3.858  -0.002   6.300  0.3061 -0.6704 -0.2009
  117OSM   H13B12216   3.963  -0.131   6.347  0.3720 -0.2245  0.5743
  117OSM   H13C12217   4.017  -0.019   6.225 -0.5813  1.0089  0.2378
  117OSM    C1212218   4.014   0.200   6.408  0.1210 -0.6710  0.3831
  117OSM   H12A12219   3.910   0.231   6.409  0.1957 -0.2064 -1.6893
  117OSM   H12B12220   4.052   0.208   6.307 -0.3309 -0.1197  0.2494
  117OSM    C1112221   4.095   0.288   6.504  0.4500  0.0661 -0.2520
  117OSM   H11A12222   4.093   0.237   6.602 -0.5972  1.9979  0.7783
  117OSM   H11B12223   4.049   0.387   6.523 -0.0352 -0.0092 -1.0022
  117OSM      P12224   4.274   0.387   6.342  0.2209  0.1210 -0.2623
  117OSM    O1312225   4.416   0.368   6.314 -0.5488 -0.4639  0.2358
  117OSM    O1412226   4.177   0.359   6.232 -0.1646 -0.2805  0.2057
  117OSM    O1112227   4.264   0.538   6.400 -0.1711  0.6802 -0.7142
  117OSM    O1212228   4.233   0.301   6.466 -0.3022  0.7005  0.4348
  117OSM    C1S12229   4.287   0.573   6.537  0.3526 -0.2217 -0.8859
  117OSM    H1S12230   4.248   0.499   6.611  0.3583  1.3457  0.7789
  117OSM    H1T12231   4.221   0.659   6.560 -1.2586 -1.4072 -0.9063
  117OSM     NF12232   4.458   0.614   6.713  0.4578  0.3527 -0.4010
  117OSM    HNF12233   4.471   0.712   6.722  3.6010  0.1160 -1.1557
  117OSM    C2S12234   4.443   0.578   6.570  0.8536 -0.0030 -0.7607
  117OSM    H2S12235   4.485   0.477   6.553  1.1021  0.1479 -1.0462
  117OSM    C3S12236   4.520   0.674   6.480  0.0609 -0.7278  0.8109
  117OSM    H3S12237   4.481   0.777   6.494  0.0073 -0.2174 -2.2319
  117OSM     O312238   4.507   0.658   6.338 -0.1711 -0.0389  0.6864
  117OSM    HO312239   4.441   0.588   6.339 -1.5999  1.2532  0.8834
  117OSM    C4S12240   4.668   0.674   6.507  0.0260  0.8367  0.0916
  117OSM    H4S12241   4.705   0.773   6.539  0.8798 -0.0270  1.9126
  117OSM    C5S12242   4.760   0.583   6.474 -0.6572  0.8190 -0.1814
  117OSM    H5S12243   4.726   0.490   6.427  4.5142 -1.1048 -0.7547
  117OSM    C6S12244   4.904   0.584   6.525  0.0201 -1.1198  0.4333
  117OSM    H6S12245   4.920   0.683   6.572  0.8839 -0.2895 -1.4834
  117OSM    H6T12246   4.969   0.588   6.435  2.6777  4.0549  2.1481
  117OSM    C7S12247   4.949   0.481   6.624  0.0041 -0.8328 -0.1948
  117OSM    H7S12248   5.058   0.494   6.638  0.3249  2.6140 -4.0158
  117OSM    H7T12249   4.920   0.381   6.585 -1.5571  0.2484 -2.0029
  117OSM    C8S12250   4.884   0.491   6.767 -0.0554  0.2755 -0.3403
  117OSM    H8S12251   4.930   0.412   6.830  0.0334  0.2778 -0.4018
  117OSM    H8T12252   4.775   0.471   6.759  0.3302 -1.9609 -0.5684
  117OSM    C9S12253   4.925   0.622   6.844  0.2210 -0.3364  0.6791
  117OSM    H9S12254   4.852   0.701   6.818 -1.1954 -1.1787  1.9468
  117OSM    H9T12255   5.025   0.648   6.802  0.2285 -0.8453  0.3721
  117OSM   C10S12256   4.934   0.614   6.995  0.3754 -0.3519  0.5780
  117OSM   H10S12257   4.840   0.577   7.041  0.0501 -0.7564 -0.3918
  117OSM   H10T12258   4.962   0.718   7.024  1.6301 -1.1120  2.1985
  117OSM   C11S12259   5.047   0.512   7.034  0.4601 -0.4056 -0.2537
  117OSM   H11S12260   5.138   0.521   6.971  0.8637  1.8187  0.5786
  117OSM   H11T12261   5.017   0.405   7.032 -1.0009 -0.0247  0.0599
  117OSM   C12S12262   5.090   0.543   7.176  0.2936  0.1046 -0.7309
  117OSM   H12S12263   5.141   0.642   7.166  2.5570 -1.1619 -3.1152
  117OSM   H12T12264   5.159   0.461   7.204 -0.2474  0.3864  1.5698
  117OSM   C13S12265   4.979   0.533   7.286  0.1102 -0.3509 -0.4268
  117OSM   H13S12266   4.954   0.424   7.285  0.9303 -0.5614  0.5180
  117OSM   H13T12267   4.886   0.592   7.270  0.2872  0.1938  0.5141
  117OSM   C14S12268   5.045   0.557   7.426  0.1425  0.2692  0.1368
  117OSM   H14S12269   5.102   0.651   7.411 -0.9846  0.6797 -1.8585
  117OSM   H14T12270   5.119   0.475   7.442 -1.8602 -2.0707 -1.9501
  117OSM   C15S12271   4.938   0.566   7.533 -0.3804  0.0479 -0.4782
  117OSM   H15S12272   4.868   0.650   7.514  1.7177  1.5766 -1.9409
  117OSM   H15T12273   4.995   0.604   7.621  0.8325 -1.7333 -0.4330
  117OSM   C16S12274   4.871   0.435   7.586  0.3175  0.0450 -0.0905
  117OSM   H16S12275   4.815   0.369   7.517 -2.3366  1.7089  0.3498
  117OSM   H16T12276   4.795   0.482   7.652  1.3724  0.9649  0.5092
  117OSM   C17S12277   4.956   0.357   7.677  0.2246  0.2225 -0.1246
  117OSM   H17S12278   5.045   0.307   7.633  0.9842 -1.1422  2.7181
  117OSM   H17T12279   4.893   0.269   7.704  2.4733 -1.5203 -0.2228
  117OSM   C18S12280   4.984   0.426   7.809  0.4589 -0.2599 -0.3508
  117OSM   H18S12281   5.057   0.510   7.800  0.8098 -0.5254  0.0136
  117OSM   H18T12282   5.025   0.350   7.879 -1.9613 -4.1185 -2.7836
  117OSM   H18U12283   4.890   0.460   7.858 -0.5147 -1.1660 -1.5346
  117OSM    C1F12284   4.437   0.535   6.814 -0.2050 -0.1270 -0.0115
  117OSM     OF12285   4.399   0.420   6.805 -0.3986  0.3682  0.2804
  117OSM    C2F12286   4.453   0.604   6.953 -0.2961  0.1600  0.2552
  117OSM    H2F12287   4.352   0.644   6.977 -0.0914 -0.1999  1.8978
  117OSM    H2G12288   4.527   0.686   6.943 -2.2977  1.8013 -2.2739
  117OSM    C3F12289   4.498   0.501   7.055  0.1830 -0.2116  0.0505
  117OSM    H3F12290   4.598   0.467   7.022  0.2525 -0.1265  0.1739
  117OSM    H3G12291   4.422   0.421   7.067 -0.6969  0.6855  0.5876
  117OSM    C4F12292   4.521   0.568   7.197  0.3409 -0.1448 -0.3546
  117OSM    H4F12293   4.563   0.669   7.181 -0.7071  0.4432  0.4856
  117OSM    H4G12294   4.591   0.501   7.253  2.5781  1.4294 -1.1365
  117OSM    C5F12295   4.398   0.582   7.291 -0.2349  0.0145  0.4311
  117OSM    H5F12296   4.378   0.479   7.329  1.7908 -0.3793  0.5687
  117OSM    H5G12297   4.315   0.595   7.219  0.6032 -0.9122 -0.7564
  117OSM    C6F12298   4.400   0.679   7.406 -0.3533  0.6883  0.5119
  117OSM    H6F12299   4.314   0.692   7.476  0.9936  0.3478  2.2969
  117OSM    H6G12300   4.428   0.780   7.369  3.3612 -0.8108 -1.1616
  117OSM    C7F12301   4.511   0.625   7.507  0.5503 -0.0771  0.5202
  117OSM    H7F12302   4.607   0.596   7.458  1.2702  1.9148  0.6630
  117OSM    H7G12303   4.475   0.537   7.565 -0.8647  0.0266 -0.1550
  117OSM    C8F12304   4.564   0.733   7.605 -0.2386  0.0587 -0.4232
  117OSM    H8F12305   4.600   0.823   7.550  2.3190  0.0219  1.0302
  117OSM    H8G12306   4.651   0.694   7.662  0.2133 -0.4394 -1.4313
  117OSM    C9F12307   4.449   0.788   7.687 -0.4453 -0.2933 -0.1394
  117OSM    H9F12308   4.389   0.863   7.633 -0.5763  0.2485  0.7337
  117OSM   C10F12309   4.426   0.753   7.812  0.0877 -0.5391  0.6246
  117OSM   H10F12310   4.352   0.814   7.866 -0.5964 -1.5112  0.8082
  117OSM   C11F12311   4.504   0.655   7.903 -0.3461  0.5311  0.3157
  117OSM   H11F12312   4.573   0.707   7.972 -1.1422 -0.0540  1.5788
  117OSM   H11G12313   4.568   0.591   7.838 -0.0300  0.6799  0.4798
  117OSM   C12F12314   4.408   0.564   7.975 -0.2306  0.4483 -0.4935
  117OSM   H12F12315   4.468   0.496   8.038 -0.1493 -0.7844 -1.8514
  117OSM   H12G12316   4.355   0.507   7.896  0.8190 -1.6361  0.2384
  117OSM   C13F12317   4.304   0.626   8.070 -0.9569 -0.6356  0.3436
  117OSM   H13F12318   4.219   0.648   8.002  0.2056  0.4747 -0.8008
  117OSM   H13G12319   4.332   0.722   8.119 -0.3809 -0.4727 -0.2929
  117OSM   C14F12320   4.257   0.525   8.180 -0.0393 -0.3456  0.7915
  117OSM   H14F12321   4.343   0.511   8.250  0.2191  2.3144  1.1227
  117OSM   H14G12322   4.243   0.424   8.137  1.9744 -0.0513 -0.6657
  117OSM   C15F12323   4.118   0.558   8.244 -0.6412 -0.0940  0.9239
  117OSM   H15F12324   4.067   0.472   8.291 -1.7584 -1.3666 -2.3371
  117OSM   H15G12325   4.047   0.593   8.166 -0.3230  0.7236  0.9959
  117OSM   C16F12326   4.118   0.678   8.345  0.2842  1.1702 -0.1016
  117OSM   H16F12327   4.169   0.764   8.296  0.1882  0.3473 -1.6993
  117OSM   H16G12328   4.187   0.648   8.426 -4.1201 -0.9556  3.2831
  117OSM   C17F12329   3.980   0.721   8.396  0.3318  0.5863  0.0079
  117OSM   H17F12330   3.918   0.759   8.313  1.5252  0.8661 -0.7819
  117OSM   H17G12331   3.918   0.635   8.429  0.1109  1.2112  1.2814
  117OSM   C18F12332   3.984   0.835   8.499  0.1250  0.7074  0.1898
  117OSM   H18F12333   3.895   0.901   8.494  0.7095  1.5282  0.4294
  117OSM   H18G12334   4.073   0.898   8.482 -1.0675  2.9957  1.8219
  117OSM   H18H12335   3.981   0.797   8.604  1.6212  3.0744  1.1772
  118OSM      N12336   5.741   0.402   6.299  0.8794  0.1337 -0.0882
  118OSM    C1512337   5.779   0.294   6.202  0.3204  0.8719 -0.3395
  118OSM   H15A12338   5.691   0.261   6.149  0.0379  0.3376  0.4374
  118OSM   H15B12339   5.806   0.209   6.262  2.1220  1.5908 -0.0849
  118OSM   H15C12340   5.862   0.320   6.138  1.2932  0.5973  0.7774
  118OSM    C1412341   5.694   0.519   6.215 -0.2106 -0.4559 -0.0982
  118OSM   H14A12342   5.603   0.493   6.161 -0.5165 -1.4742  0.8633
  118OSM   H14B12343   5.762   0.540   6.134 -1.1600  0.8367 -0.5897
  118OSM   H14C12344   5.679   0.611   6.269  0.0976  0.9248 -2.2259
  118OSM    C1312345   5.627   0.353   6.378  0.0472 -0.3726  0.2060
  118OSM   H13A12346   5.637   0.260   6.432 -2.0827 -1.2171 -0.7418
  118OSM   H13B12347   5.536   0.348   6.320  1.2387 -2.6061 -1.5927
  118OSM   H13C12348   5.612   0.430   6.453  0.9394  0.1437 -0.1290
  118OSM    C1212349   5.854   0.447   6.383 -0.2619 -0.0371 -0.7437
  118OSM   H12A12350   5.818   0.532   6.439 -0.3228  0.3093 -1.3040
  118OSM   H12B12351   5.929   0.492   6.319 -0.7827  2.0554  0.0431
  118OSM    C1112352   5.919   0.341   6.471  0.4859 -0.5331  0.0507
  118OSM   H11A12353   5.844   0.276   6.521 -1.4932  1.9864  0.5189
  118OSM   H11B12354   5.961   0.394   6.559 -2.8084  3.1310 -0.3510
  118OSM      P12355   6.149   0.309   6.337  0.0421 -0.1823  0.3149
  118OSM    O1312356   6.209   0.195   6.258  0.3537 -0.5439  0.3379
  118OSM    O1412357   6.142   0.445   6.280  0.3995  0.1960  0.5345
  118OSM    O1112358   6.221   0.326   6.474 -0.3394  0.5664 -0.7032
  118OSM    O1212359   6.005   0.258   6.388  0.0563 -0.3891  0.1644
  118OSM    C1S12360   6.219   0.208   6.556  0.3003  0.0104  0.0090
  118OSM    H1S12361   6.293   0.130   6.527 -0.3669 -0.5651 -0.1789
  118OSM    H1T12362   6.122   0.155   6.559  0.7683 -0.8270  2.2588
  118OSM     NF12363   6.276   0.127   6.781 -1.1365  0.0769 -0.3780
  118OSM    HNF12364   6.198   0.107   6.840 -0.1503  0.5079  1.1164
  118OSM    C2S12365   6.253   0.245   6.706 -0.1878  0.2704  0.2978
  118OSM    H2S12366   6.339   0.314   6.696 -1.7456  2.0794 -1.7718
  118OSM    C3S12367   6.143   0.343   6.763 -0.3171  0.3430  0.5718
  118OSM    H3S12368   6.047   0.289   6.748 -0.7303  1.3576 -0.5733
  118OSM     O312369   6.144   0.470   6.687 -0.3742 -0.0145 -0.3859
  118OSM    HO312370   6.165   0.447   6.596 -0.4453 -0.1789 -0.3600
  118OSM    C4S12371   6.162   0.372   6.903  0.4726  0.2298 -0.5170
  118OSM    H4S12372   6.070   0.350   6.959  0.1532  0.7181 -0.8385
  118OSM    C5S12373   6.262   0.425   6.969 -0.0980 -0.0600 -0.4626
  118OSM    H5S12374   6.352   0.460   6.916  0.9069 -1.6732  0.1010
  118OSM    C6S12375   6.248   0.446   7.121 -0.7266  0.6953  0.1802
  118OSM    H6S12376   6.160   0.505   7.153 -0.2029  2.3888 -1.3473
  118OSM    H6T12377   6.340   0.501   7.150 -0.4189 -0.2144  0.9966
  118OSM    C7S12378   6.246   0.313   7.210 -0.0903 -0.2588 -0.0626
  118OSM    H7S12379   6.187   0.234   7.157 -1.2892 -0.7643  1.9027
  118OSM    H7T12380   6.194   0.331   7.306  0.1629 -1.3365  0.2888
  118OSM    C8S12381   6.389   0.259   7.241  0.1358 -0.4200  0.6727
  118OSM    H8S12382   6.453   0.332   7.294 -1.1139  0.9361  0.3700
  118OSM    H8T12383   6.443   0.253   7.144 -0.4052 -1.4887  0.4218
  118OSM    C9S12384   6.382   0.127   7.304 -0.6892  0.7976 -0.3904
  118OSM    H9S12385   6.477   0.068   7.299 -1.3602 -0.3233 -0.1577
  118OSM    H9T12386   6.301   0.067   7.259  0.0182 -0.1081 -0.4841
  118OSM   C10S12387   6.346   0.133   7.459 -0.4227 -0.0157 -0.1504
  118OSM   H10S12388   6.254   0.194   7.473 -1.4688 -1.3413 -1.0029
  118OSM   H10T12389   6.431   0.177   7.514  1.2346 -1.7270 -1.2520
  118OSM   C11S12390   6.310  -0.009   7.502 -0.3568  0.7858 -0.3370
  118OSM   H11S12391   6.401  -0.070   7.515 -1.2956 -0.5006  0.4313
  118OSM   H11T12392   6.239  -0.056   7.431 -2.2113  3.5232 -0.4569
  118OSM   C12S12393   6.218  -0.014   7.630  0.3921 -0.6129  0.5282
  118OSM   H12S12394   6.163   0.082   7.621  2.0582  0.3098 -0.4075
  118OSM   H12T12395   6.280  -0.006   7.722 -0.2146 -0.6797  0.9431
  118OSM   C13S12396   6.135  -0.139   7.641 -0.2750  0.3999  0.3623
  118OSM   H13S12397   6.203  -0.227   7.641 -0.5179  0.2091  1.1651
  118OSM   H13T12398   6.076  -0.145   7.546 -2.5711 -4.4104  1.7701
  118OSM   C14S12399   6.038  -0.130   7.758 -1.1106  0.0448  0.0095
  118OSM   H14S12400   5.946  -0.187   7.733 -1.8256  0.9868  0.3896
  118OSM   H14T12401   6.000  -0.025   7.764 -0.9634  0.1223 -0.4102
  118OSM   C15S12402   6.097  -0.179   7.890  0.1055  0.2031 -0.7283
  118OSM   H15S12403   6.173  -0.102   7.913 -1.4898  1.6607 -0.1846
  118OSM   H15T12404   6.147  -0.277   7.873  0.6523 -0.0635  1.9706
  118OSM   C16S12405   6.004  -0.198   8.004 -0.4503 -0.3551 -0.5040
  118OSM   H16S12406   5.930  -0.274   7.970  0.2396 -1.3054  0.0694
  118OSM   H16T12407   5.950  -0.105   8.030 -0.4845 -0.3196 -0.6985
  118OSM   C17S12408   6.080  -0.249   8.131  0.4990 -0.1767  0.4205
  118OSM   H17S12409   6.160  -0.179   8.163  1.6899  0.1973 -3.0154
  118OSM   H17T12410   6.129  -0.341   8.092 -0.6139  0.0136 -1.5494
  118OSM   C18S12411   5.991  -0.278   8.255 -0.8259 -0.2277  0.2506
  118OSM   H18S12412   5.896  -0.324   8.220 -0.2492  1.1992 -3.6780
  118OSM   H18T12413   5.955  -0.183   8.298 -3.6926 -0.9279 -0.4203
  118OSM   H18U12414   6.046  -0.336   8.333 -0.4682 -0.6444 -0.3023
  118OSM    C1F12415   6.389   0.055   6.764 -0.3328  0.1772  0.2353
  118OSM     OF12416   6.478   0.098   6.689 -0.2454  0.1992  0.3197
  118OSM    C2F12417   6.400  -0.085   6.827 -0.9644 -0.6354 -0.8607
  118OSM    H2F12418   6.375  -0.160   6.749 -1.2184 -1.4694  0.0085
  118OSM    H2G12419   6.326  -0.096   6.909  0.2263 -0.4238  0.2650
  118OSM    C3F12420   6.542  -0.124   6.889 -0.0178 -0.4681 -0.0425
  118OSM    H3F12421   6.608  -0.081   6.811 -0.1987 -0.9640 -0.4755
  118OSM    H3G12422   6.543  -0.235   6.891 -0.6194 -0.4750  1.1332
  118OSM    C4F12423   6.573  -0.074   7.031 -0.3682  0.2751 -0.8414
  118OSM    H4F12424   6.511  -0.127   7.107 -1.4707  1.3398 -0.9597
  118OSM    H4G12425   6.525   0.025   7.044 -0.0968  0.5354 -1.7399
  118OSM    C5F12426   6.724  -0.075   7.073 -0.1763 -0.9118  0.7792
  118OSM    H5F12427   6.783  -0.008   7.007 -0.0818  0.4271  2.1792
  118OSM    H5G12428   6.759  -0.180   7.058 -2.5285 -1.4660 -1.7901
  118OSM    C6F12429   6.750  -0.025   7.219  0.9335 -0.3186  0.2425
  118OSM    H6F12430   6.698   0.073   7.227  1.5688 -0.0576  1.3364
  118OSM    H6G12431   6.859  -0.014   7.235  0.5948  0.3296  2.4131
  118OSM    C7F12432   6.680  -0.123   7.321  0.5834 -0.0147 -0.2577
  118OSM    H7F12433   6.719  -0.223   7.294 -0.3461 -0.4667  0.0581
  118OSM    H7G12434   6.570  -0.129   7.314  0.6915 -0.4188 -2.1825
  118OSM    C8F12435   6.742  -0.081   7.461  0.2512  0.4119  0.0471
  118OSM    H8F12436   6.850  -0.107   7.457  0.6703  1.2151  3.1833
  118OSM    H8G12437   6.700  -0.156   7.531 -2.5321  2.3509  0.6191
  118OSM    C9F12438   6.733   0.055   7.520 -0.0259  0.1581  0.0567
  118OSM    H9F12439   6.772   0.137   7.458  1.4338 -3.1670 -3.7566
  118OSM   C10F12440   6.670   0.098   7.639 -0.4093  0.5356  0.4949
  118OSM   H10F12441   6.672   0.205   7.666 -1.6448  0.5547  0.5260
  118OSM   C11F12442   6.601   0.006   7.738  0.2987  0.1634  0.3498
  118OSM   H11F12443   6.652  -0.092   7.735  2.3009  1.1607 -0.2014
  118OSM   H11G12444   6.493  -0.009   7.717  0.2649  0.3567  0.3842
  118OSM   C12F12445   6.640   0.042   7.888  0.3634  0.0192  1.2568
  118OSM   H12F12446   6.611   0.149   7.902  1.5343  1.4316 -4.4733
  118OSM   H12G12447   6.750   0.038   7.901  0.2237  0.2791  2.6164
  118OSM   C13F12448   6.591  -0.052   7.991 -0.1659  0.3364 -0.1324
  118OSM   H13F12449   6.617  -0.156   7.962  2.1597  0.5611  0.9845
  118OSM   H13G12450   6.482  -0.049   8.014 -0.6325 -0.0318 -2.0607
  118OSM   C14F12451   6.668  -0.030   8.132 -0.6783 -1.1309 -0.1252
  118OSM   H14F12452   6.639   0.072   8.166 -0.5282 -0.0522 -3.0250
  118OSM   H14G12453   6.774  -0.029   8.100 -1.0170 -0.7701 -1.2825
  118OSM   C15F12454   6.630  -0.125   8.251 -0.4503  0.7833 -0.1477
  118OSM   H15F12455   6.625  -0.232   8.223 -0.3968  1.0404 -1.1855
  118OSM   H15G12456   6.524  -0.102   8.276 -1.3889 -2.1305 -1.0850
  118OSM   C16F12457   6.711  -0.115   8.382 -0.3483  0.0592 -0.4843
  118OSM   H16F12458   6.662  -0.178   8.460  1.5642  0.4219  1.0677
  118OSM   H16G12459   6.725  -0.011   8.417  0.8089 -0.5157  0.8529
  118OSM   C17F12460   6.854  -0.167   8.372  0.4079 -0.6780  0.0478
  118OSM   H17F12461   6.900  -0.121   8.281 -1.8939  1.5914 -0.0782
  118OSM   H17G12462   6.851  -0.277   8.356 -1.3087 -0.5057 -1.0537
  118OSM   C18F12463   6.945  -0.139   8.495 -0.3788 -0.7066  0.2522
  118OSM   H18F12464   6.913  -0.195   8.586 -0.3747 -2.3922 -0.7452
  118OSM   H18G12465   6.930  -0.034   8.526  0.4221  0.2354 -2.3601
  118OSM   H18H12466   7.053  -0.145   8.472 -0.7810 -1.5627 -1.5855
  119OSM      N12467   1.938   1.550   5.707  0.4653  0.5668  0.3450
  119OSM    C1512468   1.803   1.494   5.673 -0.0439 -0.3075  0.6787
  119OSM   H15A12469   1.810   1.404   5.614 -1.0560  0.7357 -1.1113
  119OSM   H15B12470   1.757   1.566   5.607  2.3922  0.2187 -0.5972
  119OSM   H15C12471   1.740   1.473   5.758 -0.9608 -1.4695 -0.2491
  119OSM    C1412472   2.004   1.437   5.788 -0.0580  0.0001 -0.0099
  119OSM   H14A12473   1.997   1.344   5.733 -0.7035  0.6858 -1.1312
  119OSM   H14B12474   1.948   1.423   5.879  2.0590  0.8456  1.5048
  119OSM   H14C12475   2.107   1.461   5.806 -0.1556 -0.2013  0.8593
  119OSM    C1312476   2.028   1.569   5.590  0.3287  0.8622  0.0882
  119OSM   H13A12477   2.126   1.602   5.623  0.4487  2.0108 -1.3250
  119OSM   H13B12478   1.984   1.645   5.528 -3.7710 -0.0112  1.6343
  119OSM   H13C12479   2.026   1.489   5.518 -0.8924  1.8095 -0.9790
  119OSM    C1212480   1.926   1.684   5.780 -0.6324 -0.5378 -0.4145
  119OSM   H12A12481   1.890   1.758   5.711  2.3203  0.6050 -0.8681
  119OSM   H12B12482   2.028   1.719   5.789 -0.8743 -0.1281  0.8068
  119OSM    C1112483   1.868   1.693   5.926 -0.0743 -0.3468 -0.1310
  119OSM   H11A12484   1.883   1.799   5.954  2.8530 -0.8463  0.4426
  119OSM   H11B12485   1.930   1.629   5.993  0.8820  0.6874 -0.0095
  119OSM      P12486   1.604   1.733   5.938 -0.1846 -0.1236  0.2390
  119OSM    O1312487   1.627   1.835   5.830  0.3074 -0.0759 -0.1710
  119OSM    O1412488   1.474   1.649   5.941  0.3769  0.3730  0.2897
  119OSM    O1112489   1.616   1.792   6.077 -0.0542 -0.7506 -0.3428
  119OSM    O1212490   1.737   1.641   5.933  0.3201 -0.1964  0.2795
  119OSM    C1S12491   1.613   1.711   6.195  0.7751 -0.7932  0.2930
  119OSM    H1S12492   1.720   1.692   6.220  1.1467  0.7521 -0.0749
  119OSM    H1T12493   1.557   1.616   6.180 -0.4076  0.1843 -1.7122
  119OSM     NF12494   1.522   1.685   6.431  0.2462 -0.3996 -0.1541
  119OSM    HNF12495   1.424   1.674   6.447 -0.1361  0.4245 -1.7360
  119OSM    C2S12496   1.559   1.784   6.326  0.1354 -0.1463  0.3967
  119OSM    H2S12497   1.644   1.848   6.356 -1.0002  1.5125  0.2310
  119OSM    C3S12498   1.440   1.895   6.298 -0.5963 -0.0845 -0.6009
  119OSM    H3S12499   1.341   1.850   6.278 -0.3570 -1.2388  0.7085
  119OSM     O312500   1.454   1.975   6.182  0.2812 -0.2250  0.1570
  119OSM    HO312501   1.518   1.932   6.125  0.3499 -0.3164  0.3029
  119OSM    C4S12502   1.411   1.979   6.418  0.0187  0.7682  0.2851
  119OSM    H4S12503   1.362   1.912   6.490 -2.4106 -0.3448 -2.2225
  119OSM    C5S12504   1.434   2.101   6.450  0.2143 -0.5324  0.0210
  119OSM    H5S12505   1.490   2.162   6.377 -0.0135 -0.0205  0.2654
  119OSM    C6S12506   1.391   2.172   6.578  0.1558 -0.0349  0.0576
  119OSM    H6S12507   1.280   2.166   6.582  0.2669 -3.3690  0.5238
  119OSM    H6T12508   1.431   2.276   6.577  0.7341 -0.2042  1.8592
  119OSM    C7S12509   1.433   2.105   6.713 -0.2056 -0.2820  0.9989
  119OSM    H7S12510   1.536   2.062   6.716 -0.0184  0.1660  1.1545
  119OSM    H7T12511   1.362   2.021   6.725 -2.1574  0.7812 -2.1001
  119OSM    C8S12512   1.431   2.196   6.835 -0.4305 -0.0351  0.5567
  119OSM    H8S12513   1.326   2.226   6.854 -0.6786 -0.8714  0.5635
  119OSM    H8T12514   1.490   2.288   6.815 -0.8016  0.0972  0.0426
  119OSM    C9S12515   1.482   2.132   6.963 -0.2755 -0.0984 -0.4089
  119OSM    H9S12516   1.592   2.138   6.954 -0.1262  1.7007  1.7931
  119OSM    H9T12517   1.441   2.030   6.983  0.4596 -0.2204  0.5600
  119OSM   C10S12518   1.451   2.211   7.087  0.1836 -0.3802  0.0504
  119OSM   H10S12519   1.345   2.194   7.115  0.4549 -2.2295  0.1022
  119OSM   H10T12520   1.470   2.316   7.057  0.2140 -0.7067 -1.1050
  119OSM   C11S12521   1.537   2.184   7.212  0.1974 -0.5934 -1.1084
  119OSM   H11S12522   1.633   2.240   7.198 -0.1870  0.4982  0.3630
  119OSM   H11T12523   1.541   2.075   7.231 -3.1177 -0.7457 -0.6488
  119OSM   C12S12524   1.472   2.242   7.341 -0.2200 -0.1503  0.0033
  119OSM   H12S12525   1.378   2.189   7.368 -0.7163  0.9591  0.5229
  119OSM   H12T12526   1.460   2.350   7.319  1.4098  0.2419  0.9056
  119OSM   C13S12527   1.558   2.242   7.463  0.0882  0.2175  0.1901
  119OSM   H13S12528   1.661   2.281   7.445  0.8121 -0.5941  2.3276
  119OSM   H13T12529   1.566   2.140   7.504  0.5686  0.5755  1.0146
  119OSM   C14S12530   1.504   2.328   7.574 -0.0392  0.3527 -0.5467
  119OSM   H14S12531   1.569   2.331   7.664 -0.5304 -1.1134 -0.1111
  119OSM   H14T12532   1.413   2.275   7.611  1.1606 -0.8943  0.7792
  119OSM   C15S12533   1.453   2.464   7.534 -0.4765  0.2978 -0.1820
  119OSM   H15S12534   1.376   2.429   7.461  0.9358 -4.5438  0.2966
  119OSM   H15T12535   1.523   2.525   7.474 -0.4291  0.3407 -0.0844
  119OSM   C16S12536   1.401   2.540   7.658  0.5941  0.1166 -0.9977
  119OSM   H16S12537   1.370   2.639   7.618  0.5644  1.0642  1.1942
  119OSM   H16T12538   1.485   2.561   7.727  0.3616 -0.3984 -0.5418
  119OSM   C17S12539   1.288   2.484   7.738 -0.0896  0.1356 -0.1254
  119OSM   H17S12540   1.271   2.543   7.832 -0.1482  3.0751 -1.8444
  119OSM   H17T12541   1.316   2.383   7.775 -1.0608  0.3628  1.3448
  119OSM   C18S12542   1.156   2.470   7.659 -0.3986 -0.3236  0.2016
  119OSM   H18S12543   1.076   2.441   7.730 -0.6471  1.0371  0.5051
  119OSM   H18T12544   1.164   2.391   7.582  2.2799  1.4008 -1.4604
  119OSM   H18U12545   1.132   2.572   7.621  0.1430 -0.2258  0.1071
  119OSM    C1F12546   1.611   1.608   6.498 -0.5634 -0.5990 -0.2248
  119OSM     OF12547   1.727   1.615   6.462 -0.3183  0.2414  0.0968
  119OSM    C2F12548   1.558   1.526   6.614 -0.4573 -0.2869  0.0744
  119OSM    H2F12549   1.581   1.421   6.586  1.3181  0.2034 -0.4235
  119OSM    H2G12550   1.448   1.526   6.630 -0.6326 -0.0668 -1.0818
  119OSM    C3F12551   1.626   1.564   6.747  0.3036  0.4285 -0.2707
  119OSM    H3F12552   1.731   1.529   6.758 -0.0711 -0.1731  1.8018
  119OSM    H3G12553   1.562   1.523   6.828 -1.2868  3.3094  0.0507
  119OSM    C4F12554   1.613   1.711   6.778 -0.3451 -0.2929 -0.1259
  119OSM    H4F12555   1.521   1.749   6.729 -1.7094 -0.7902  1.8975
  119OSM    H4G12556   1.701   1.750   6.723 -0.8206 -3.1055 -3.1703
  119OSM    C5F12557   1.619   1.745   6.928 -0.2715 -0.6788  0.2480
  119OSM    H5F12558   1.544   1.697   6.994 -0.3091  0.1410  0.8268
  119OSM    H5G12559   1.587   1.852   6.932 -2.3976 -1.3028  0.8800
  119OSM    C6F12560   1.759   1.721   6.988 -0.1538  0.0232 -0.2254
  119OSM    H6F12561   1.834   1.768   6.921 -2.6486 -0.1641 -3.3748
  119OSM    H6G12562   1.779   1.612   6.988 -0.7486 -0.0912 -0.0882
  119OSM    C7F12563   1.751   1.775   7.132 -0.3740  0.0223  0.1858
  119OSM    H7F12564   1.668   1.720   7.182 -0.1959 -1.1135 -0.7469
  119OSM    H7G12565   1.709   1.878   7.124 -0.4514  0.0044  0.3546
  119OSM    C8F12566   1.879   1.773   7.211 -0.0314  0.2732 -0.0403
  119OSM    H8F12567   1.960   1.797   7.140  0.6237  1.8845  1.1817
  119OSM    H8G12568   1.914   1.670   7.233 -0.8898 -0.0518 -0.1487
  119OSM    C9F12569   1.883   1.858   7.334 -0.1013  0.0357 -0.0784
  119OSM    H9F12570   1.968   1.929   7.333  1.7458 -2.0679 -0.4921
  119OSM   C10F12571   1.806   1.849   7.442 -0.0101 -0.0548  0.1779
  119OSM   H10F12572   1.841   1.917   7.521  1.1076 -0.3018 -0.0819
  119OSM   C11F12573   1.691   1.758   7.472  0.0439  0.0203 -0.2053
  119OSM   H11F12574   1.713   1.660   7.424  0.7571  0.1049 -0.0616
  119OSM   H11G12575   1.591   1.791   7.436 -1.5618 -2.6208  1.4609
  119OSM   C12F12576   1.667   1.723   7.624 -0.9091  0.3040 -0.0516
  119OSM   H12F12577   1.568   1.674   7.638 -1.5332  1.6114  0.2451
  119OSM   H12G12578   1.660   1.816   7.684  0.1670  0.5853 -0.3448
  119OSM   C13F12579   1.777   1.631   7.684  0.6934 -0.8753 -0.2279
  119OSM   H13F12580   1.878   1.668   7.657  1.2727 -2.7745 -0.8357
  119OSM   H13G12581   1.766   1.527   7.647 -3.5157 -0.8529  0.4460
  119OSM   C14F12582   1.758   1.645   7.835 -0.3887  0.0504  0.5654
  119OSM   H14F12583   1.658   1.602   7.857 -1.8287  2.1819 -1.3376
  119OSM   H14G12584   1.763   1.753   7.861  0.5391  0.3168 -0.6625
  119OSM   C15F12585   1.860   1.572   7.906 -0.2831 -0.4126  0.0495
  119OSM   H15F12586   1.950   1.627   7.871  0.6050 -2.6098 -1.3495
  119OSM   H15G12587   1.858   1.470   7.861 -0.5546 -0.1676 -0.4945
  119OSM   C16F12588   1.847   1.551   8.055  0.1785 -0.5723 -0.3646
  119OSM   H16F12589   1.948   1.553   8.101 -0.3557 -2.2041  1.0054
  119OSM   H16G12590   1.810   1.447   8.070  1.6741 -0.9437  0.9964
  119OSM   C17F12591   1.768   1.646   8.132 -0.1482  0.3001 -0.4327
  119OSM   H17F12592   1.661   1.647   8.101 -0.0966 -1.5707 -0.7765
  119OSM   H17G12593   1.808   1.749   8.122 -1.9088  0.9021 -1.6892
  119OSM   C18F12594   1.766   1.615   8.287 -0.0753 -0.5229 -0.1411
  119OSM   H18F12595   1.678   1.676   8.317  0.3439  2.0515 -3.5857
  119OSM   H18G12596   1.850   1.664   8.339 -1.1618  1.1270  0.1336
  119OSM   H18H12597   1.771   1.511   8.326 -1.2501 -0.2283  0.8412
  120OSM      N12598   4.138   5.162   6.317 -0.9194 -0.9260 -0.2897
  120OSM    C1512599   4.217   5.145   6.445  0.2613 -0.6662 -0.5366
  120OSM   H15A12600   4.320   5.166   6.422  0.2349 -0.6681 -0.6585
  120OSM   H15B12601   4.209   5.041   6.472 -2.1411 -0.3429  0.2369
  120OSM   H15C12602   4.184   5.210   6.525 -1.3560 -1.8640 -0.1884
  120OSM    C1412603   4.148   5.314   6.283 -0.1854  0.0071 -1.0825
  120OSM   H14A12604   4.102   5.338   6.188 -2.9707 -0.0047  0.1723
  120OSM   H14B12605   4.252   5.344   6.278  0.2344 -1.3430 -0.7917
  120OSM   H14C12606   4.107   5.376   6.361  1.9118  2.8576 -2.0662
  120OSM    C1312607   4.207   5.083   6.204  0.0684  0.9811 -0.5381
  120OSM   H13A12608   4.296   5.136   6.174  1.5835 -0.7579  0.6555
  120OSM   H13B12609   4.143   5.072   6.118  1.0878  2.9711 -1.6123
  120OSM   H13C12610   4.242   4.984   6.232 -1.0447  0.6177 -0.3976
  120OSM    C1212611   4.000   5.117   6.335 -0.1246 -0.5613  0.1158
  120OSM   H12A12612   4.009   5.010   6.346  1.7933 -0.4311  0.1405
  120OSM   H12B12613   3.940   5.145   6.249  0.5314  0.0010 -0.1679
  120OSM    C1112614   3.929   5.164   6.459 -0.3433 -0.5072 -0.2740
  120OSM   H11A12615   3.984   5.138   6.552 -0.3286  0.8673  0.1271
  120OSM   H11B12616   3.840   5.097   6.469  0.1098 -1.1053 -0.1988
  120OSM      P12617   3.919   5.402   6.566 -0.2011  0.1859  0.4743
  120OSM    O1312618   3.952   5.539   6.507 -0.0309  0.3583  0.0462
  120OSM    O1412619   3.812   5.397   6.666 -0.4725  0.1703  0.3890
  120OSM    O1112620   4.054   5.340   6.625  0.0779  0.0159  0.3603
  120OSM    O1212621   3.881   5.300   6.452  0.3277 -0.4921  0.4162
  120OSM    C1S12622   4.167   5.421   6.658  0.1935 -0.0132  0.1398
  120OSM    H1S12623   4.165   5.517   6.601 -0.8640 -0.4581 -0.6055
  120OSM    H1T12624   4.254   5.369   6.613 -1.4543 -1.6801 -1.2856
  120OSM     NF12625   4.285   5.532   6.835  0.0376  0.7590  0.1051
  120OSM    HNF12626   4.382   5.510   6.831 -0.1502 -0.9312  2.5504
  120OSM    C2S12627   4.192   5.421   6.807  1.0476 -0.1464  0.2528
  120OSM    H2S12628   4.091   5.447   6.845  1.1778 -1.3351  1.5082
  120OSM    C3S12629   4.223   5.281   6.859 -0.1544 -0.5773  0.3162
  120OSM    H3S12630   4.322   5.261   6.813 -0.6907  0.0156 -1.1611
  120OSM     O312631   4.124   5.182   6.819 -0.1357  0.1239 -0.5124
  120OSM    HO312632   4.064   5.228   6.760  1.6283 -0.1304 -2.6544
  120OSM    C4S12633   4.245   5.286   7.010 -0.5661 -0.7253 -0.1740
  120OSM    H4S12634   4.348   5.300   7.045 -1.0430  2.6994  0.2924
  120OSM    C5S12635   4.145   5.272   7.106 -0.1809 -0.0382 -0.1347
  120OSM    H5S12636   4.043   5.251   7.070 -0.0642 -1.4489  0.3129
  120OSM    C6S12637   4.170   5.287   7.252 -0.7449 -0.1306 -0.4233
  120OSM    H6S12638   4.076   5.275   7.310  0.0621 -2.3075  0.5670
  120OSM    H6T12639   4.211   5.389   7.272 -0.8967 -0.1181 -0.1675
  120OSM    C7S12640   4.284   5.191   7.303 -0.2678  0.8414 -0.0695
  120OSM    H7S12641   4.377   5.194   7.243  0.9991 -2.3880  1.4592
  120OSM    H7T12642   4.239   5.093   7.277  0.6252  0.0331  1.2969
  120OSM    C8S12643   4.306   5.208   7.456  0.3502  0.1529 -0.1288
  120OSM    H8S12644   4.203   5.231   7.490  1.1036  1.3864  1.4831
  120OSM    H8T12645   4.379   5.286   7.485 -0.4711  0.2623  1.8255
  120OSM    C9S12646   4.360   5.083   7.531 -0.0294 -0.2515 -0.0411
  120OSM    H9S12647   4.471   5.093   7.525 -0.1314  1.2178  0.1746
  120OSM    H9T12648   4.317   4.991   7.486 -1.1415  0.2147  0.0328
  120OSM   C10S12649   4.327   5.104   7.686 -0.0806 -0.0381 -0.6101
  120OSM   H10S12650   4.217   5.092   7.683  0.1682 -3.1588 -1.5206
  120OSM   H10T12651   4.362   5.204   7.718  0.3025 -0.2679 -0.3031
  120OSM   C11S12652   4.380   4.983   7.769  0.1878 -0.0006 -0.4826
  120OSM   H11S12653   4.491   4.974   7.769  0.1456 -0.6008  0.1435
  120OSM   H11T12654   4.334   4.891   7.726  1.9197 -0.5549 -1.2524
  120OSM   C12S12655   4.344   5.000   7.918  0.5540  0.0070  0.2767
  120OSM   H12S12656   4.234   5.016   7.922  0.1799 -1.2683 -2.4452
  120OSM   H12T12657   4.390   5.089   7.966  0.8373 -0.6742  1.3099
  120OSM   C13S12658   4.369   4.880   8.009 -0.0841 -0.4308 -0.6579
  120OSM   H13S12659   4.480   4.873   8.014  0.0105  0.2984 -1.5293
  120OSM   H13T12660   4.318   4.790   7.968  0.3462 -0.7934 -0.4141
  120OSM   C14S12661   4.314   4.908   8.152 -0.5790 -0.6261 -0.0200
  120OSM   H14S12662   4.204   4.898   8.156 -0.6060 -0.2839  0.0705
  120OSM   H14T12663   4.339   5.012   8.181 -4.0942  0.2918  0.1333
  120OSM   C15S12664   4.368   4.802   8.252  0.3020 -0.5580  0.2075
  120OSM   H15S12665   4.478   4.815   8.253  0.3158 -0.5970  1.7932
  120OSM   H15T12666   4.338   4.704   8.208 -1.0014  0.6623 -1.7542
  120OSM   C16S12667   4.300   4.806   8.394 -0.3289 -0.3041 -0.0542
  120OSM   H16S12668   4.329   4.906   8.432  0.2278 -0.4735 -0.0205
  120OSM   H16T12669   4.355   4.726   8.448 -0.8196 -1.3501 -1.0619
  120OSM   C17S12670   4.148   4.790   8.400  0.0454 -0.1799  0.3953
  120OSM   H17S12671   4.129   4.690   8.355  1.9086 -1.4890  2.3122
  120OSM   H17T12672   4.104   4.872   8.340  0.7620  1.4400  1.9986
  120OSM   C18S12673   4.101   4.798   8.546  0.2385  0.2663  0.2564
  120OSM   H18S12674   4.139   4.712   8.605  0.2277  1.2106  1.6939
  120OSM   H18T12675   3.990   4.794   8.552  0.1664  0.8488 -0.5062
  120OSM   H18U12676   4.142   4.893   8.587  0.3386  0.3050  0.0691
  120OSM    C1F12677   4.246   5.660   6.834 -0.8598 -0.3449  0.1536
  120OSM     OF12678   4.127   5.684   6.815  0.5732 -0.1948  0.1596
  120OSM    C2F12679   4.348   5.768   6.858 -0.5141  0.4099  0.1461
  120OSM    H2F12680   4.400   5.780   6.760  1.7629  2.8933  1.5312
  120OSM    H2G12681   4.424   5.730   6.929  0.4004 -1.5972 -1.7823
  120OSM    C3F12682   4.282   5.897   6.887 -0.6487  0.3735  0.5334
  120OSM    H3F12683   4.238   5.890   6.989  0.0891  0.4704  0.8728
  120OSM    H3G12684   4.209   5.936   6.813  1.8603  0.5859 -1.9847
  120OSM    C4F12685   4.389   6.005   6.898  0.4898 -0.5499  0.0504
  120OSM    H4F12686   4.350   6.105   6.871  1.1208 -0.6307 -1.2749
  120OSM    H4G12687   4.472   5.987   6.826  1.6331 -1.1527  1.4765
  120OSM    C5F12688   4.458   6.013   7.032  0.0239  0.4858 -0.0275
  120OSM    H5F12689   4.552   6.066   7.003 -0.0507  1.2315  0.9975
  120OSM    H5G12690   4.489   5.913   7.070 -0.8064  0.1682 -0.1639
  120OSM    C6F12691   4.392   6.094   7.147  0.4756 -0.2897 -0.2019
  120OSM    H6F12692   4.295   6.045   7.171  0.9853 -2.1468 -1.6704
  120OSM    H6G12693   4.363   6.192   7.105  1.2735  0.9659  2.0411
  120OSM    C7F12694   4.483   6.110   7.271  0.3238 -0.2212 -0.3401
  120OSM    H7F12695   4.573   6.165   7.234  0.6073 -1.9894 -2.5481
  120OSM    H7G12696   4.513   6.008   7.301 -1.7731 -0.4009  1.2942
  120OSM    C8F12697   4.409   6.184   7.386  0.1963 -0.3866  0.3188
  120OSM    H8F12698   4.322   6.121   7.414 -0.0483  0.0392  0.5341
  120OSM    H8G12699   4.369   6.279   7.344  2.3144 -0.3719 -1.8551
  120OSM    C9F12700   4.495   6.193   7.508  0.2071  0.2841 -0.1144
  120OSM    H9F12701   4.571   6.272   7.511 -0.1630  0.6043  2.4354
  120OSM   C10F12702   4.498   6.117   7.616 -0.2102 -0.4991 -0.2011
  120OSM   H10F12703   4.570   6.130   7.698 -0.5305 -0.2466  0.0458
  120OSM   C11F12704   4.414   5.994   7.637  0.3097  0.2786 -0.3377
  120OSM   H11F12705   4.440   5.914   7.564  2.7595  1.8111 -1.2530
  120OSM   H11G12706   4.306   6.012   7.616 -0.0352 -0.9160  0.3227
  120OSM   C12F12707   4.434   5.951   7.781  0.3394  0.8028  0.7282
  120OSM   H12F12708   4.543   5.956   7.800  0.3799  1.4330  0.3421
  120OSM   H12G12709   4.403   5.845   7.798 -1.1790  1.3137  1.4015
  120OSM   C13F12710   4.365   6.057   7.876  0.0646  0.2031  0.4553
  120OSM   H13F12711   4.259   6.046   7.843 -0.0597 -0.8327  1.1529
  120OSM   H13G12712   4.389   6.164   7.862 -0.1754  0.1889 -0.0708
  120OSM   C14F12713   4.380   6.006   8.022 -0.2835  0.0295  0.9638
  120OSM   H14F12714   4.385   5.898   8.044  1.7486 -0.1065  0.0293
  120OSM   H14G12715   4.302   6.046   8.090 -0.6629 -1.0691  1.1956
  120OSM   C15F12716   4.519   6.045   8.085  0.1575 -0.4348  0.0850
  120OSM   H15F12717   4.529   6.156   8.084  0.9963 -0.4978  0.6359
  120OSM   H15G12718   4.598   6.001   8.020  0.8690 -0.8191  1.1902
  120OSM   C16F12719   4.525   6.005   8.231 -0.1368 -0.3280  0.3247
  120OSM   H16F12720   4.463   5.913   8.236 -1.9362  0.8137 -0.3387
  120OSM   H16G12721   4.478   6.087   8.289  2.3781  0.0850  1.9699
  120OSM   C17F12722   4.671   5.982   8.286 -0.8179 -0.4994 -0.6187
  120OSM   H17F12723   4.740   6.017   8.206 -0.5034  0.3171 -0.0055
  120OSM   H17G12724   4.687   5.874   8.307 -2.1945 -1.1759 -2.7328
  120OSM   C18F12725   4.701   6.064   8.412  0.2197 -0.0636 -0.0547
  120OSM   H18F12726   4.806   6.043   8.443  0.5583 -1.6662 -2.0531
  120OSM   H18G12727   4.650   6.020   8.500 -1.1917  1.9349  0.1949
  120OSM   H18H12728   4.683   6.173   8.399 -2.4381 -0.3783  0.4999
  121OSM      N12729   0.261   0.984   6.012 -0.1944 -0.4602  0.1450
  121OSM    C1512730   0.327   0.891   5.909  0.5781  0.2791  0.2705
  121OSM   H15A12731   0.390   0.819   5.959 -1.7039 -2.4954 -0.5752
  121OSM   H15B12732   0.377   0.941   5.828 -1.8294  2.2285 -0.1477
  121OSM   H15C12733   0.247   0.829   5.871  0.3520  0.0525  1.0941
  121OSM    C1412734   0.365   1.066   6.088 -0.0871 -0.3137 -0.2421
  121OSM   H14A12735   0.446   1.010   6.133  0.8015  0.6406 -0.6256
  121OSM   H14B12736   0.322   1.118   6.172  1.1704 -1.8392  1.4198
  121OSM   H14C12737   0.415   1.132   6.018 -2.8360 -0.1927 -2.2320
  121OSM    C1312738   0.173   1.081   5.940 -0.3018  0.0409 -0.2846
  121OSM   H13A12739   0.087   1.035   5.894 -0.9007  0.4927  0.3526
  121OSM   H13B12740   0.227   1.144   5.870  0.9807  1.2930  1.7151
  121OSM   H13C12741   0.127   1.150   6.010 -1.7803 -0.9536 -0.2483
  121OSM    C1212742   0.182   0.899   6.105 -0.5662  1.2854 -0.2086
  121OSM   H12A12743   0.127   0.828   6.046 -1.7162 -0.9271  3.2248
  121OSM   H12B12744   0.108   0.964   6.149 -0.6190 -0.0562  1.8306
  121OSM    C1112745   0.252   0.828   6.228  0.5931 -0.3369  0.3103
  121OSM   H11A12746   0.177   0.778   6.293  0.6813  1.1260  1.5848
  121OSM   H11B12747   0.296   0.906   6.294  1.4465  1.4304 -2.1656
  121OSM      P12748   0.302   0.593   6.137 -0.1334 -0.1679 -0.1641
  121OSM    O1312749   0.158   0.611   6.104 -0.8836 -0.3548 -0.5028
  121OSM    O1412750   0.399   0.548   6.029  0.0527 -0.5043 -0.4364
  121OSM    O1112751   0.325   0.512   6.272 -0.8573 -0.0498 -0.1015
  121OSM    O1212752   0.354   0.732   6.192  0.4522  0.4556  0.6364
  121OSM    C1S12753   0.449   0.533   6.348  0.0442 -0.1315  0.1677
  121OSM    H1S12754   0.531   0.581   6.290  1.7738 -2.5264  0.4786
  121OSM    H1T12755   0.488   0.436   6.385  1.6622  0.2384 -0.4811
  121OSM     NF12756   0.540   0.619   6.544  0.1107 -0.0879 -0.3033
  121OSM    HNF12757   0.560   0.567   6.626  0.5109 -1.6439 -1.3332
  121OSM    C2S12758   0.416   0.612   6.476  0.1937  0.0510 -0.0323
  121OSM    H2S12759   0.380   0.713   6.447 -0.4439 -0.3478 -0.6618
  121OSM    C3S12760   0.306   0.545   6.558 -0.2751  0.1689 -0.2015
  121OSM    H3S12761   0.341   0.445   6.591 -0.1343  0.6235  1.0843
  121OSM     O312762   0.188   0.503   6.491  0.4159 -0.3249  0.1474
  121OSM    HO312763   0.210   0.525   6.401 -0.6238 -2.0335 -0.5827
  121OSM    C4S12764   0.271   0.629   6.677  0.2894 -0.2641  1.4107
  121OSM    H4S12765   0.330   0.588   6.760  0.2894 -2.2519  0.4684
  121OSM    C5S12766   0.175   0.730   6.692 -0.5967 -0.0257  0.0040
  121OSM    H5S12767   0.114   0.759   6.605 -2.1507 -3.2001 -0.1365
  121OSM    C6S12768   0.141   0.802   6.819 -0.9222  0.2660 -0.2786
  121OSM    H6S12769   0.035   0.779   6.846 -0.6789 -0.2252  0.2703
  121OSM    H6T12770   0.164   0.910   6.803  1.7974 -0.4309 -1.5478
  121OSM    C7S12771   0.221   0.756   6.942  0.1063 -0.6429 -0.0443
  121OSM    H7S12772   0.330   0.762   6.925  0.3560  0.0376  1.6316
  121OSM    H7T12773   0.183   0.660   6.983 -2.2755  1.1445  2.2538
  121OSM    C8S12774   0.192   0.851   7.060  0.7126 -0.1475  0.1654
  121OSM    H8S12775   0.082   0.867   7.058  0.7147  0.5095 -4.2067
  121OSM    H8T12776   0.227   0.956   7.057 -0.6364  0.3190 -0.2300
  121OSM    C9S12777   0.246   0.791   7.191 -0.5990 -0.0308 -0.3620
  121OSM    H9S12778   0.353   0.767   7.175 -0.5953 -0.5905  0.4218
  121OSM    H9T12779   0.197   0.694   7.214 -1.3359  0.7754  1.7815
  121OSM   C10S12780   0.231   0.878   7.316  0.2658  0.0781 -0.4717
  121OSM   H10S12781   0.127   0.906   7.342 -0.7216 -2.0674 -1.8877
  121OSM   H10T12782   0.296   0.968   7.310 -0.3342  0.4924 -0.9481
  121OSM   C11S12783   0.278   0.799   7.439 -0.5068  0.8823 -0.0925
  121OSM   H11S12784   0.388   0.785   7.438 -0.8221 -2.8485  1.7512
  121OSM   H11T12785   0.231   0.700   7.451 -1.8011  1.5939  0.9607
  121OSM   C12S12786   0.239   0.882   7.570 -0.1386 -0.4004 -0.3590
  121OSM   H12S12787   0.130   0.902   7.581  0.1209  0.3515  1.1344
  121OSM   H12T12788   0.286   0.983   7.572  0.1485 -0.4695 -2.1246
  121OSM   C13S12789   0.289   0.808   7.692 -0.1338 -0.3521  1.1385
  121OSM   H13S12790   0.399   0.810   7.677 -0.4080 -1.6597 -1.5225
  121OSM   H13T12791   0.280   0.698   7.686  3.2041 -0.6786 -0.4904
  121OSM   C14S12792   0.252   0.859   7.833 -0.4469  0.3027 -0.6178
  121OSM   H14S12793   0.142   0.856   7.848 -0.2673  1.3158  1.1482
  121OSM   H14T12794   0.285   0.964   7.849 -0.8706  0.3035  0.3107
  121OSM   C15S12795   0.303   0.766   7.943 -0.6317 -0.3126 -0.1587
  121OSM   H15S12796   0.410   0.752   7.920 -1.0351  0.7641 -3.0431
  121OSM   H15T12797   0.242   0.674   7.932 -0.1171 -0.6767 -0.0056
  121OSM   C16S12798   0.297   0.837   8.083  0.0178 -0.3243  0.2029
  121OSM   H16S12799   0.187   0.834   8.102 -0.0363 -1.8198 -0.2192
  121OSM   H16T12800   0.337   0.940   8.073  2.0886 -1.2531 -2.1288
  121OSM   C17S12801   0.375   0.772   8.203 -0.6766 -0.2519  0.0378
  121OSM   H17S12802   0.361   0.826   8.299 -1.0950  0.3565 -0.3610
  121OSM   H17T12803   0.484   0.783   8.190 -0.4301 -0.2576  1.7951
  121OSM   C18S12804   0.337   0.633   8.221 -0.5968  0.4529  0.0890
  121OSM   H18S12805   0.227   0.619   8.212 -0.4006 -3.1212  1.5025
  121OSM   H18T12806   0.370   0.592   8.319 -0.7246  3.8318  1.6721
  121OSM   H18U12807   0.394   0.576   8.145  0.2503 -2.0187  2.4100
  121OSM    C1F12808   0.644   0.694   6.497 -0.0021 -0.3935  0.8305
  121OSM     OF12809   0.622   0.775   6.403 -0.2821  0.6648  0.1385
  121OSM    C2F12810   0.774   0.661   6.549  0.1485  0.8948 -0.1281
  121OSM    H2F12811   0.797   0.564   6.499  1.4418  0.7086  0.7653
  121OSM    H2G12812   0.754   0.657   6.658 -0.1132 -0.6417 -0.2004
  121OSM    C3F12813   0.889   0.762   6.510  0.2927 -0.6070  0.7262
  121OSM    H3F12814   0.886   0.804   6.408 -0.6042 -0.7192  0.6980
  121OSM    H3G12815   0.973   0.691   6.493  0.1135 -0.3004 -1.7407
  121OSM    C4F12816   0.922   0.879   6.603 -0.2995  0.0858  0.3286
  121OSM    H4F12817   0.824   0.931   6.614 -1.1608 -1.4907  0.2843
  121OSM    H4G12818   0.998   0.943   6.552 -0.9258 -0.0919 -0.8594
  121OSM    C5F12819   0.973   0.827   6.737 -0.6749  0.1514 -0.2145
  121OSM    H5F12820   1.058   0.760   6.710 -1.7038 -0.2275 -2.8171
  121OSM    H5G12821   0.909   0.758   6.795  1.9672 -1.3268  1.1698
  121OSM    C6F12822   1.044   0.924   6.824  0.2997 -0.4174 -0.3227
  121OSM    H6F12823   0.985   1.018   6.828 -1.1830 -1.3131 -0.2873
  121OSM    H6G12824   1.151   0.937   6.801  0.5556 -1.0708  0.4190
  121OSM    C7F12825   1.048   0.869   6.970  0.4632  0.2484 -0.3121
  121OSM    H7F12826   1.079   0.763   6.984  0.1770  0.2623  0.4427
  121OSM    H7G12827   0.952   0.890   7.020 -0.9397  0.0417 -2.7437
  121OSM    C8F12828   1.142   0.953   7.061 -0.9404 -0.9627 -0.4793
  121OSM    H8F12829   1.248   0.946   7.030  0.1894  1.7702  2.2129
  121OSM    H8G12830   1.138   0.908   7.163 -0.0935 -0.4382 -0.2082
  121OSM    C9F12831   1.113   1.100   7.064  0.2800 -1.0563  0.1957
  121OSM    H9F12832   1.146   1.157   6.976  1.6119  0.1950  1.4531
  121OSM   C10F12833   1.052   1.154   7.168 -0.4509 -0.0172 -0.0583
  121OSM   H10F12834   1.048   1.263   7.163  0.3043  0.0067 -0.1619
  121OSM   C11F12835   1.011   1.084   7.306 -0.1829  0.1759  0.1669
  121OSM   H11F12836   1.013   0.973   7.306 -0.1456  0.1749  0.5570
  121OSM   H11G12837   0.907   1.113   7.331 -0.0837 -0.0884  0.9149
  121OSM   C12F12838   1.078   1.152   7.423 -0.4735  0.1117  0.6342
  121OSM   H12F12839   1.079   1.263   7.424 -0.8865  0.1526 -0.9069
  121OSM   H12G12840   1.182   1.115   7.430 -1.2817 -2.1084  2.6695
  121OSM   C13F12841   1.020   1.116   7.558  0.1078  0.1060 -0.1418
  121OSM   H13F12842   1.024   1.006   7.572 -1.9551 -0.3059 -2.2653
  121OSM   H13G12843   0.915   1.149   7.572 -0.7677 -0.8087 -3.7031
  121OSM   C14F12844   1.105   1.177   7.671 -0.2000 -0.4450  0.0705
  121OSM   H14F12845   1.106   1.288   7.683 -3.7399 -0.4206  1.2965
  121OSM   H14G12846   1.210   1.141   7.666  0.3830  0.6265  2.9774
  121OSM   C15F12847   1.066   1.108   7.806  0.1824  0.2253  0.5647
  121OSM   H15F12848   1.120   1.012   7.791 -2.1432 -1.0808  0.1515
  121OSM   H15G12849   0.955   1.107   7.800  0.2373 -2.0500 -1.1490
  121OSM   C16F12850   1.113   1.187   7.925 -0.1756 -0.5049 -0.9550
  121OSM   H16F12851   1.067   1.287   7.912  0.2881 -0.2846 -0.8970
  121OSM   H16G12852   1.224   1.187   7.928 -0.1834 -1.8708  0.4551
  121OSM   C17F12853   1.066   1.122   8.056  0.2710 -0.0766 -0.1917
  121OSM   H17F12854   1.124   1.027   8.064 -0.9384 -0.8931 -0.8300
  121OSM   H17G12855   0.959   1.099   8.073 -0.1923  2.8904  1.5999
  121OSM   C18F12856   1.097   1.207   8.175  0.1125 -0.3231  0.2111
  121OSM   H18F12857   1.075   1.143   8.263 -0.4670  1.0160  1.0630
  121OSM   H18G12858   1.050   1.307   8.178  0.3724 -0.2072  0.5437
  121OSM   H18H12859   1.207   1.204   8.191  0.2784 -3.8887 -0.7333
  122OSM      N12860   6.001   2.782   6.008 -0.0671  0.1652  0.0406
  122OSM    C1512861   5.967   2.644   6.060  0.4150  0.1823  0.3910
  122OSM   H15A12862   6.052   2.579   6.078  1.5216  1.9249  1.7778
  122OSM   H15B12863   5.890   2.600   5.998  0.0065  2.2067 -0.6394
  122OSM   H15C12864   5.911   2.664   6.150 -0.7593  2.3308 -0.7341
  122OSM    C1412865   6.060   2.769   5.865  0.2776  0.4119 -0.2208
  122OSM   H14A12866   6.008   2.693   5.809 -1.0146  0.9671  0.1709
  122OSM   H14B12867   6.163   2.738   5.871  0.1270  0.1462  1.6504
  122OSM   H14C12868   6.059   2.865   5.815 -1.0333  0.8205  0.5412
  122OSM    C1312869   5.881   2.860   5.993  0.8696 -0.0929  0.2245
  122OSM   H13A12870   5.807   2.807   5.933  0.2189 -0.0631  0.9768
  122OSM   H13B12871   5.901   2.948   5.935  2.0042 -0.7291 -0.3933
  122OSM   H13C12872   5.832   2.878   6.088  1.4163  1.2455  0.2674
  122OSM    C1212873   6.096   2.847   6.104 -0.5706 -0.2050 -0.0852
  122OSM   H12A12874   6.042   2.870   6.195  1.4582 -1.0739  1.4037
  122OSM   H12B12875   6.133   2.945   6.078  2.2815 -0.8401  1.1645
  122OSM    C1112876   6.210   2.756   6.153 -0.9885  0.6427 -0.1069
  122OSM   H11A12877   6.165   2.671   6.208 -0.0477  1.7730  2.5723
  122OSM   H11B12878   6.278   2.812   6.220 -1.9723 -0.2952  1.7538
  122OSM      P12879   6.329   2.562   6.022  0.3273  0.2947  0.3148
  122OSM    O1312880   6.215   2.474   5.998  0.6631  0.3318  0.0664
  122OSM    O1412881   6.434   2.550   5.923  0.0689 -0.0781  0.7605
  122OSM    O1112882   6.385   2.531   6.157 -0.5603 -0.0241 -0.1495
  122OSM    O1212883   6.285   2.712   6.041  0.4698  0.1552 -0.0973
  122OSM    C1S12884   6.497   2.605   6.212 -0.0501 -0.2173 -0.3628
  122OSM    H1S12885   6.477   2.714   6.208  0.9128  0.0013  0.4815
  122OSM    H1T12886   6.593   2.579   6.163  1.3918  0.0923  2.1049
  122OSM     NF12887   6.590   2.676   6.439  0.2941  0.1809  0.6297
  122OSM    HNF12888   6.674   2.641   6.478  0.3180 -0.3901  0.0868
  122OSM    C2S12889   6.502   2.581   6.360  0.3743 -0.4258 -0.1609
  122OSM    H2S12890   6.398   2.604   6.389  0.0357 -0.4383 -1.3463
  122OSM    C3S12891   6.525   2.432   6.399  0.5832  0.3661 -0.1660
  122OSM    H3S12892   6.633   2.412   6.384  1.2944  2.8908  0.9864
  122OSM     O312893   6.441   2.340   6.328  0.8467  0.2191 -0.1487
  122OSM    HO312894   6.406   2.402   6.264  2.0482  1.4200  0.3118
  122OSM    C4S12895   6.511   2.412   6.549 -0.1529  0.2265 -0.2369
  122OSM    H4S12896   6.583   2.468   6.610  0.9781 -0.0788 -1.2499
  122OSM    C5S12897   6.409   2.352   6.617  1.4982  0.6466 -0.2086
  122OSM    H5S12898   6.314   2.326   6.567  1.6498  1.2411 -0.8265
  122OSM    C6S12899   6.395   2.345   6.770  0.2013  0.1545  0.0396
  122OSM    H6S12900   6.424   2.243   6.804  2.0042  0.4999 -0.3576
  122OSM    H6T12901   6.287   2.348   6.794 -0.2134 -2.4536 -1.1931
  122OSM    C7S12902   6.466   2.442   6.867 -0.2400 -0.0341  0.3645
  122OSM    H7S12903   6.446   2.546   6.835 -1.8083 -0.7838 -1.2404
  122OSM    H7T12904   6.574   2.425   6.848 -0.3658 -2.8234  1.5374
  122OSM    C8S12905   6.427   2.433   7.017  0.4513  0.4853  1.4535
  122OSM    H8S12906   6.331   2.377   7.022 -1.0508  2.2135 -3.1818
  122OSM    H8T12907   6.418   2.534   7.061  2.2001  0.3611  2.1747
  122OSM    C9S12908   6.531   2.365   7.106 -0.0333  0.8604 -0.3173
  122OSM    H9S12909   6.634   2.389   7.073  0.4340 -0.9855 -0.3305
  122OSM    H9T12910   6.527   2.256   7.083  2.5267  0.4863  0.6655
  122OSM   C10S12911   6.519   2.382   7.259  0.6599  0.2125 -0.2510
  122OSM   H10S12912   6.412   2.372   7.288  0.4890 -0.8691 -1.1484
  122OSM   H10T12913   6.547   2.485   7.289  2.6482  0.0720 -1.4405
  122OSM   C11S12914   6.606   2.268   7.324  0.1666 -1.2126  0.6673
  122OSM   H11S12915   6.706   2.284   7.280  0.3067 -2.2969  0.5714
  122OSM   H11T12916   6.566   2.171   7.286  0.2344  0.2525 -3.6234
  122OSM   C12S12917   6.615   2.266   7.477 -0.5991  0.0990 -0.0615
  122OSM   H12S12918   6.515   2.271   7.526 -0.5498  0.3298  0.0171
  122OSM   H12T12919   6.655   2.366   7.503 -2.3414  0.6345  0.7282
  122OSM   C13S12920   6.694   2.143   7.535  0.1741 -1.2826 -0.1102
  122OSM   H13S12921   6.786   2.123   7.476  0.6907 -1.0997  0.6177
  122OSM   H13T12922   6.633   2.050   7.529  1.6880 -2.2758 -0.4475
  122OSM   C14S12923   6.728   2.167   7.678  0.7721 -0.2687 -0.6157
  122OSM   H14S12924   6.631   2.182   7.730  1.4336  1.9734  0.0572
  122OSM   H14T12925   6.773   2.268   7.683  0.8037 -0.2714  4.2202
  122OSM   C15S12926   6.828   2.077   7.744 -0.0581  0.7871 -0.3226
  122OSM   H15S12927   6.911   2.052   7.674 -0.3566  2.4212 -1.3153
  122OSM   H15T12928   6.780   1.982   7.776 -1.0610  0.7464 -1.8584
  122OSM   C16S12929   6.889   2.126   7.877  0.3108  0.6721 -0.4362
  122OSM   H16S12930   6.825   2.189   7.943  0.3196 -0.6902  0.9222
  122OSM   H16T12931   6.969   2.194   7.841 -0.4795  0.8110 -2.0311
  122OSM   C17S12932   6.959   2.014   7.968  0.4966 -0.2542 -0.7581
  122OSM   H17S12933   7.046   2.054   8.024 -1.2617  0.6538  1.4913
  122OSM   H17T12934   6.984   1.935   7.894 -0.8157 -1.9192  0.4888
  122OSM   C18S12935   6.859   1.952   8.074  0.8368 -0.0896  0.7770
  122OSM   H18S12936   6.870   1.847   8.107 -1.3847 -0.1920  1.3328
  122OSM   H18T12937   6.753   1.965   8.043  0.6374 -0.5577  1.2542
  122OSM   H18U12938   6.866   2.013   8.166 -2.0526  1.1497  0.2911
  122OSM    C1F12939   6.550   2.796   6.470  0.0564  0.1573  0.8336
  122OSM     OF12940   6.460   2.846   6.408  0.3033 -0.2077 -0.3967
  122OSM    C2F12941   6.642   2.869   6.561  0.0584  0.7654  0.0338
  122OSM    H2F12942   6.656   2.975   6.531  0.5043  0.6771 -0.0829
  122OSM    H2G12943   6.747   2.832   6.555 -0.3496 -0.3401 -0.6178
  122OSM    C3F12944   6.577   2.871   6.703  0.0434 -0.0143  0.0371
  122OSM    H3F12945   6.666   2.906   6.760  2.1108 -1.6269 -2.0633
  122OSM    H3G12946   6.553   2.766   6.732 -2.1714  0.7939  1.3641
  122OSM    C4F12947   6.454   2.957   6.718  0.4005  0.3912  0.5255
  122OSM    H4F12948   6.379   2.916   6.647  1.9354  0.8731 -1.4748
  122OSM    H4G12949   6.454   3.066   6.699 -1.2902  0.4194  0.5028
  122OSM    C5F12950   6.379   2.945   6.859  0.4988 -1.1120  0.2547
  122OSM    H5F12951   6.285   3.003   6.849 -0.1758 -1.7772  2.2077
  122OSM    H5G12952   6.440   2.998   6.935 -2.6973  0.5643  1.8334
  122OSM    C6F12953   6.349   2.805   6.903 -0.0558 -0.3503 -0.1164
  122OSM    H6F12954   6.437   2.742   6.927  0.0285  0.1781  1.0283
  122OSM    H6G12955   6.305   2.762   6.810 -0.8281 -1.7064  0.8353
  122OSM    C7F12956   6.255   2.796   7.023  0.6975 -0.5411 -0.2020
  122OSM    H7F12957   6.189   2.708   7.015 -3.0153  1.9959 -0.1345
  122OSM    H7G12958   6.186   2.883   7.027  1.1324 -0.2353  2.9537
  122OSM    C8F12959   6.322   2.794   7.160  0.3088  0.6439 -0.6990
  122OSM    H8F12960   6.398   2.713   7.167 -0.0033  0.2669 -1.4852
  122OSM    H8G12961   6.244   2.758   7.230  0.9150 -1.0142 -0.8391
  122OSM    C9F12962   6.390   2.921   7.210 -0.3799  0.1791  0.6672
  122OSM    H9F12963   6.369   3.009   7.148  0.4974 -1.6172 -2.3855
  122OSM   C10F12964   6.489   2.925   7.302  0.0082 -0.0106 -0.0911
  122OSM   H10F12965   6.536   3.018   7.337 -3.2324  0.9699  2.1461
  122OSM   C11F12966   6.550   2.805   7.374  0.3281  1.2127 -0.6764
  122OSM   H11F12967   6.627   2.843   7.445  0.2278  0.6869 -0.2813
  122OSM   H11G12968   6.602   2.736   7.305  0.3787  2.7501 -2.2281
  122OSM   C12F12969   6.450   2.738   7.466 -0.5708  0.7178 -0.0147
  122OSM   H12F12970   6.362   2.710   7.404 -1.0752 -1.4478  1.5917
  122OSM   H12G12971   6.403   2.814   7.533  0.7486  0.2290  1.5260
  122OSM   C13F12972   6.512   2.627   7.544  0.1777  0.7318 -0.1818
  122OSM   H13F12973   6.608   2.596   7.498  0.0750  0.9063 -0.5230
  122OSM   H13G12974   6.454   2.532   7.544  2.3587 -0.7191 -2.3246
  122OSM   C14F12975   6.560   2.674   7.682  0.5266 -0.8463  0.5656
  122OSM   H14F12976   6.471   2.691   7.746  0.2864 -1.9516  0.5503
  122OSM   H14G12977   6.620   2.766   7.668 -0.8376  0.0524  0.4381
  122OSM   C15F12978   6.641   2.569   7.756  0.4734  0.4414  0.2951
  122OSM   H15F12979   6.741   2.554   7.710  1.7456  2.0247  2.3370
  122OSM   H15G12980   6.591   2.470   7.750  1.1091  0.2100 -2.1069
  122OSM   C16F12981   6.662   2.593   7.904 -0.5010 -0.5202 -0.5494
  122OSM   H16F12982   6.691   2.698   7.927 -0.6017 -1.0996  2.7448
  122OSM   H16G12983   6.752   2.534   7.933 -0.1004 -0.4914 -1.6796
  122OSM   C17F12984   6.554   2.549   8.007  0.5599  0.7538 -0.0845
  122OSM   H17F12985   6.591   2.569   8.110  0.0509 -0.7266  0.4043
  122OSM   H17G12986   6.552   2.439   7.995  0.6454  0.9557 -2.4156
  122OSM   C18F12987   6.411   2.609   7.991 -0.2473 -0.4167  0.3932
  122OSM   H18F12988   6.363   2.578   7.895 -0.2720  1.1793 -0.1265
  122OSM   H18G12989   6.403   2.719   7.997 -0.9433 -0.2706 -2.0582
  122OSM   H18H12990   6.359   2.554   8.073  2.4083 -1.4540  1.4858
  123OSM      N12991   4.322   4.040   6.288 -0.4114  0.4181 -0.0041
  123OSM    C1512992   4.431   4.032   6.188  0.5485  0.0909 -0.0990
  123OSM   H15A12993   4.436   4.134   6.152 -0.7932  1.1711  2.5195
  123OSM   H15B12994   4.412   3.969   6.102  0.6922 -0.5620  0.3385
  123OSM   H15C12995   4.527   4.005   6.230  1.4579 -0.4701 -2.3649
  123OSM    C1412996   4.194   4.066   6.214  0.2128  0.6613 -0.0014
  123OSM   H14A12997   4.157   3.979   6.162  2.5384  0.1384 -0.9030
  123OSM   H14B12998   4.195   4.143   6.138 -0.7746 -0.5173 -1.2485
  123OSM   H14C12999   4.113   4.084   6.283 -2.3500 -2.1551 -2.0397
  123OSM    C1313000   4.317   3.905   6.345  0.0421  0.5994 -0.1098
  123OSM   H13A13001   4.293   3.828   6.273 -0.1644 -0.3584  0.9572
  123OSM   H13B13002   4.231   3.916   6.409  0.0594 -0.7516  0.1752
  123OSM   H13C13003   4.409   3.872   6.391  0.5153 -1.4716 -2.3433
  123OSM    C1213004   4.354   4.136   6.397  0.1894  0.0314  0.2755
  123OSM   H12A13005   4.365   4.237   6.360  2.3351 -0.6383 -1.0868
  123OSM   H12B13006   4.453   4.115   6.433  0.2930  1.7591  1.0960
  123OSM    C1113007   4.265   4.161   6.522 -0.3893 -0.1354 -0.1553
  123OSM   H11A13008   4.309   4.246   6.579  1.0294 -0.6650 -0.4304
  123OSM   H11B13009   4.272   4.074   6.591  1.6611 -0.4818 -0.7419
  123OSM      P13010   4.066   4.324   6.464  0.2899  0.0628  0.0759
  123OSM    O1313011   4.148   4.399   6.369 -0.4756  0.0088 -0.7403
  123OSM    O1413012   3.923   4.299   6.418 -0.3472  0.0195 -0.1797
  123OSM    O1113013   4.076   4.382   6.609 -0.2761 -0.1764  0.5132
  123OSM    O1213014   4.129   4.178   6.485 -0.4323 -0.4604 -0.2130
  123OSM    C1S13015   4.007   4.503   6.636  0.1330 -0.0012  0.4567
  123OSM    H1S13016   3.911   4.520   6.583 -0.8391  0.3523  2.2303
  123OSM    H1T13017   4.068   4.590   6.607 -0.1271 -0.4968 -1.7628
  123OSM     NF13018   3.904   4.641   6.814  0.2254  0.1087 -0.3348
  123OSM    HNF13019   3.946   4.731   6.826 -0.6998  0.7048 -1.3578
  123OSM    C2S13020   4.003   4.534   6.794 -0.3233  0.4563 -0.4017
  123OSM    H2S13021   3.970   4.433   6.829  1.0908 -0.6444 -2.0592
  123OSM    C3S13022   4.145   4.562   6.852  0.2037  0.1432 -0.6547
  123OSM    H3S13023   4.170   4.669   6.834  1.7296 -0.0911 -0.0093
  123OSM     O313024   4.246   4.481   6.795 -0.2518 -0.1251  0.0971
  123OSM    HO313025   4.205   4.422   6.732 -2.1846  0.6134  0.5964
  123OSM    C4S13026   4.151   4.543   7.005 -0.5114 -0.3748  0.2251
  123OSM    H4S13027   4.166   4.435   7.022  2.5077 -0.3577 -1.5879
  123OSM    C5S13028   4.162   4.634   7.105 -0.8105  0.9444 -0.8358
  123OSM    H5S13029   4.164   4.743   7.092  0.6530  1.1044  0.3702
  123OSM    C6S13030   4.178   4.589   7.254  0.1865 -0.7355  0.4637
  123OSM    H6S13031   4.285   4.594   7.285  0.7071 -2.2293 -0.9583
  123OSM    H6T13032   4.141   4.485   7.269  0.6247 -0.5976  2.8135
  123OSM    C7S13033   4.122   4.676   7.368  0.4424  0.4386 -0.4060
  123OSM    H7S13034   4.011   4.687   7.368  0.4022  0.0413 -0.0344
  123OSM    H7T13035   4.167   4.777   7.359  0.8320  0.5410  1.9819
  123OSM    C8S13036   4.173   4.634   7.510  0.6182 -0.0362  0.0412
  123OSM    H8S13037   4.284   4.627   7.506  0.5468 -0.7299 -3.3322
  123OSM    H8T13038   4.145   4.529   7.534  2.7171 -0.8164 -0.7379
  123OSM    C9S13039   4.108   4.727   7.615  0.0150  0.5817  0.3802
  123OSM    H9S13040   4.000   4.738   7.591 -0.3207  3.0056  2.4799
  123OSM    H9T13041   4.153   4.829   7.617 -2.8504  1.9474  0.5112
  123OSM   C10S13042   4.133   4.659   7.742  0.4662 -0.1764  0.1814
  123OSM   H10S13043   4.240   4.673   7.768  0.0177  0.3304  1.8899
  123OSM   H10T13044   4.118   4.549   7.735  1.7523 -0.3015 -1.0038
  123OSM   C11S13045   4.051   4.712   7.855  0.1433 -0.0161 -0.6699
  123OSM   H11S13046   3.946   4.692   7.827 -0.0761  0.2845 -0.0841
  123OSM   H11T13047   4.067   4.821   7.865  1.1366 -0.3379  2.1243
  123OSM   C12S13048   4.056   4.636   7.989  0.3644  0.2477  0.4187
  123OSM   H12S13049   4.144   4.664   8.051  0.0463  0.6567  0.6901
  123OSM   H12T13050   4.053   4.527   7.971 -1.7104  0.6102 -2.0335
  123OSM   C13S13051   3.929   4.660   8.068  0.2717 -0.3670 -0.6118
  123OSM   H13S13052   3.847   4.619   8.005  1.3327 -1.8600 -1.0956
  123OSM   H13T13053   3.899   4.761   8.103  3.4343  1.4393 -2.5881
  123OSM   C14S13054   3.943   4.562   8.187  0.3730 -0.0834  0.1864
  123OSM   H14S13055   4.043   4.574   8.234  0.2342 -0.0310  0.4728
  123OSM   H14T13056   3.934   4.458   8.149  0.0432 -0.0221  0.0918
  123OSM   C15S13057   3.841   4.579   8.302  0.9975 -0.0450 -0.3051
  123OSM   H15S13058   3.741   4.590   8.255  0.3025  1.2715  1.3615
  123OSM   H15T13059   3.857   4.680   8.344  0.3048  0.0979 -0.3731
  123OSM   C16S13060   3.837   4.471   8.404  0.3430  0.0479 -0.2888
  123OSM   H16S13061   3.942   4.448   8.434 -0.3947  0.7322  3.2646
  123OSM   H16T13062   3.789   4.380   8.362  0.8720  0.1789 -1.2054
  123OSM   C17S13063   3.765   4.513   8.536  0.0284 -0.8491  0.3657
  123OSM   H17S13064   3.820   4.603   8.570  1.1150 -0.4288 -2.2344
  123OSM   H17T13065   3.768   4.432   8.612 -2.9412 -0.1582  1.3097
  123OSM   C18S13066   3.622   4.558   8.508  0.2928  0.3726  0.5608
  123OSM   H18S13067   3.604   4.655   8.459 -0.8541  0.1217  0.4651
  123OSM   H18T13068   3.566   4.551   8.604 -1.0446 -0.4684 -0.2595
  123OSM   H18U13069   3.579   4.474   8.449  0.9098  0.7026 -0.3744
  123OSM    C1F13070   3.774   4.626   6.785 -0.1912 -0.0528  0.2803
  123OSM     OF13071   3.741   4.512   6.756  0.6218 -0.3853 -0.5579
  123OSM    C2F13072   3.675   4.742   6.779 -0.1587  0.1127  0.1740
  123OSM    H2F13073   3.683   4.782   6.676 -0.4584 -1.9578 -0.6942
  123OSM    H2G13074   3.710   4.816   6.854 -1.7216  2.3726 -1.1855
  123OSM    C3F13075   3.534   4.690   6.813 -0.0045  0.5107 -0.1371
  123OSM    H3F13076   3.535   4.653   6.918  1.1122  0.9457  0.0168
  123OSM    H3G13077   3.497   4.598   6.763  0.5635  1.0431 -1.5929
  123OSM    C4F13078   3.413   4.789   6.806 -0.9551  0.3180  0.7387
  123OSM    H4F13079   3.309   4.751   6.817 -1.0919  0.2966 -0.5055
  123OSM    H4G13080   3.419   4.834   6.705  1.1803 -0.9460  0.2404
  123OSM    C5F13081   3.437   4.900   6.904 -0.7371  0.6166 -0.1202
  123OSM    H5F13082   3.536   4.944   6.881 -0.8114  0.7847 -0.1254
  123OSM    H5G13083   3.445   4.835   6.994  4.5882 -2.7298 -2.5769
  123OSM    C6F13084   3.337   5.019   6.903  0.7043  0.0016  0.1261
  123OSM    H6F13085   3.261   4.997   6.826  0.7865  5.1560 -1.7800
  123OSM    H6G13086   3.396   5.096   6.850  0.3948  1.0460  1.2566
  123OSM    C7F13087   3.280   5.056   7.045  0.1222  0.0090  0.6414
  123OSM    H7F13088   3.229   4.970   7.093 -0.4238  0.2471  0.4979
  123OSM    H7G13089   3.207   5.139   7.041 -0.2185 -0.3333 -1.6599
  123OSM    C8F13090   3.390   5.095   7.139 -0.0056  0.2776  0.1568
  123OSM    H8F13091   3.471   5.019   7.137  0.2263  0.5326 -1.0844
  123OSM    H8G13092   3.349   5.105   7.242  1.8243  2.3851  0.7578
  123OSM    C9F13093   3.457   5.221   7.116 -0.6535  0.3029 -0.0863
  123OSM    H9F13094   3.453   5.259   7.012 -1.5820 -0.1947 -0.2457
  123OSM   C10F13095   3.538   5.291   7.201  0.1670  0.5161 -0.0127
  123OSM   H10F13096   3.593   5.380   7.168 -0.7103  0.3389 -2.0898
  123OSM   C11F13097   3.570   5.238   7.338 -0.7376  0.2603  0.4439
  123OSM   H11F13098   3.671   5.267   7.373  0.0280 -2.2817  0.5151
  123OSM   H11G13099   3.565   5.127   7.341  2.2183  0.0745  0.9884
  123OSM   C12F13100   3.469   5.313   7.421  0.8742 -0.0814  0.6218
  123OSM   H12F13101   3.372   5.270   7.388  0.3591  1.3707  0.1768
  123OSM   H12G13102   3.475   5.423   7.415 -1.2985  0.0250 -0.2852
  123OSM   C13F13103   3.481   5.278   7.577  1.0863 -0.8331  0.2912
  123OSM   H13F13104   3.555   5.344   7.626 -0.7776 -0.4706  2.8117
  123OSM   H13G13105   3.505   5.172   7.599  3.6934  0.0945  2.4557
  123OSM   C14F13106   3.357   5.324   7.659  0.2601  0.0861  0.0609
  123OSM   H14F13107   3.270   5.261   7.631 -2.6133  3.6924  0.2534
  123OSM   H14G13108   3.324   5.429   7.650  2.3993  0.8121  0.1655
  123OSM   C15F13109   3.386   5.298   7.811 -0.3170  0.0493  0.2777
  123OSM   H15F13110   3.454   5.379   7.845  1.2072 -0.9551 -0.3203
  123OSM   H15G13111   3.434   5.199   7.825  1.9924  0.9266 -0.9002
  123OSM   C16F13112   3.255   5.314   7.888  0.4998 -0.0211 -0.1051
  123OSM   H16F13113   3.175   5.255   7.839 -0.5505  0.3999  1.0678
  123OSM   H16G13114   3.220   5.419   7.894 -2.1910 -0.8726  0.1697
  123OSM   C17F13115   3.259   5.269   8.042 -0.0181  0.5301 -0.1291
  123OSM   H17F13116   3.270   5.159   8.054 -0.7898  0.6427  2.0894
  123OSM   H17G13117   3.163   5.304   8.085 -0.2097  0.2628 -0.3317
  123OSM   C18F13118   3.371   5.335   8.121 -0.1479 -0.3974  0.2596
  123OSM   H18F13119   3.367   5.280   8.218 -3.8875  0.8502  0.9858
  123OSM   H18G13120   3.340   5.437   8.152  2.5296  0.2467  1.1070
  123OSM   H18H13121   3.466   5.346   8.065  0.2484 -1.7290  0.6405
  124OSM      N13122   4.632   1.193   6.087 -0.0194  0.4977 -0.3991
  124OSM    C1513123   4.531   1.091   6.146  0.1740 -0.1688  0.2078
  124OSM   H15A13124   4.473   1.127   6.229 -1.3813 -0.1613 -0.8297
  124OSM   H15B13125   4.566   0.993   6.175 -1.2783 -0.8397 -0.1873
  124OSM   H15C13126   4.456   1.080   6.069 -0.5810 -0.0533  0.9049
  124OSM    C1413127   4.724   1.134   5.991 -0.7609  0.4311  0.0207
  124OSM   H14A13128   4.811   1.100   6.044  1.7704  2.9294 -2.2305
  124OSM   H14B13129   4.759   1.203   5.917  0.4506 -1.2824 -1.0833
  124OSM   H14C13130   4.679   1.047   5.944  2.4190 -1.4577  0.1853
  124OSM    C1313131   4.556   1.307   6.023 -0.6771 -0.0112  0.0112
  124OSM   H13A13132   4.469   1.332   6.081 -1.8286 -0.1724 -1.5797
  124OSM   H13B13133   4.520   1.279   5.925 -0.8106 -2.8932  0.7962
  124OSM   H13C13134   4.617   1.395   6.009 -1.8242  0.5686 -1.5493
  124OSM    C1213135   4.710   1.250   6.200 -1.0665 -0.3024 -0.6831
  124OSM   H12A13136   4.645   1.298   6.272  0.6824 -1.2978  1.6853
  124OSM   H12B13137   4.775   1.329   6.165  0.5189 -0.7916  1.0052
  124OSM    C1113138   4.803   1.163   6.282  0.2803  0.4718  0.1382
  124OSM   H11A13139   4.751   1.073   6.322 -0.0868  1.5223  2.1224
  124OSM   H11B13140   4.829   1.216   6.376  1.3462 -2.2253  1.4654
  124OSM      P13141   5.036   1.215   6.187  0.1393  0.1050 -0.1466
  124OSM    O1313142   5.113   1.163   6.068  0.0605 -0.0023  0.3387
  124OSM    O1413143   4.990   1.356   6.189  0.2394 -0.0510 -0.0294
  124OSM    O1113144   5.122   1.193   6.318  0.0657 -0.3676 -0.1023
  124OSM    O1213145   4.913   1.122   6.207 -0.3457 -0.2175 -0.1068
  124OSM    C1S13146   5.105   1.271   6.435  0.6201 -0.1775  0.1648
  124OSM    H1S13147   5.006   1.263   6.483  1.3499  0.3704  1.8147
  124OSM    H1T13148   5.116   1.378   6.407 -0.0243 -0.0189  0.5185
  124OSM     NF13149   5.171   1.288   6.672  0.1083 -0.1897 -0.0209
  124OSM    HNF13150   5.230   1.356   6.716  0.5378  0.1819 -1.1428
  124OSM    C2S13151   5.205   1.231   6.539 -0.0077 -0.2862  0.2811
  124OSM    H2S13152   5.199   1.123   6.564  1.2578 -0.4623 -0.1409
  124OSM    C3S13153   5.349   1.259   6.491  0.2092 -0.1440 -0.4769
  124OSM    H3S13154   5.371   1.368   6.491  3.3324 -0.6492 -1.4343
  124OSM     O313155   5.378   1.215   6.354  0.0846 -0.0646 -0.3462
  124OSM    HO313156   5.296   1.170   6.330  0.7533 -1.0335 -0.9443
  124OSM    C4S13157   5.459   1.202   6.584  0.2042 -0.4782 -0.6167
  124OSM    H4S13158   5.471   1.266   6.672  0.6006 -0.6144 -0.5710
  124OSM    C5S13159   5.544   1.101   6.570  0.4917 -0.3169  0.3891
  124OSM    H5S13160   5.542   1.046   6.475 -1.8711 -1.3527  0.9766
  124OSM    C6S13161   5.644   1.054   6.668 -0.3060  0.7308 -0.2474
  124OSM    H6S13162   5.732   1.014   6.614  0.1796  0.7994  0.4927
  124OSM    H6T13163   5.614   0.961   6.721  4.8231 -0.8194  0.4271
  124OSM    C7S13164   5.677   1.152   6.781  0.3646  0.5508  0.2699
  124OSM    H7S13165   5.581   1.179   6.832  0.0058 -1.1989  0.5724
  124OSM    H7T13166   5.739   1.238   6.747  0.6200  0.5916  0.8281
  124OSM    C8S13167   5.750   1.082   6.900  0.1624 -0.5873 -0.2501
  124OSM    H8S13168   5.704   0.987   6.933  0.7739  0.1427  3.0053
  124OSM    H8T13169   5.728   1.152   6.984  2.9353 -0.7006  0.6750
  124OSM    C9S13170   5.908   1.086   6.905 -0.0313 -0.1657  0.2807
  124OSM    H9S13171   5.936   1.189   6.875  0.3612 -0.8269 -1.7694
  124OSM    H9T13172   5.934   1.020   6.820 -0.9325  1.8389 -1.6573
  124OSM   C10S13173   5.970   1.031   7.037 -0.2207  0.2506  0.4022
  124OSM   H10S13174   5.944   1.093   7.126  0.5709 -0.2805  1.0179
  124OSM   H10T13175   6.080   1.020   7.025 -0.5923 -1.8764 -1.6850
  124OSM   C11S13176   5.936   0.888   7.079 -0.3219 -0.9427  0.0983
  124OSM   H11S13177   5.974   0.809   7.010  0.4458 -0.5009  0.0116
  124OSM   H11T13178   5.827   0.870   7.069 -1.4271  2.3562  3.5874
  124OSM   C12S13179   5.992   0.859   7.217  0.7047  0.1207  0.3980
  124OSM   H12S13180   6.094   0.898   7.237  1.0714  0.2699 -1.5211
  124OSM   H12T13181   6.008   0.750   7.230  1.0274  0.1970  0.6493
  124OSM   C13S13182   5.886   0.902   7.315 -0.2919  0.0112  0.2791
  124OSM   H13S13183   5.807   0.825   7.304 -0.6488  0.5905 -1.4956
  124OSM   H13T13184   5.847   0.997   7.271  1.9121  0.1894 -1.4793
  124OSM   C14S13185   5.948   0.915   7.451  0.5108 -0.3514 -0.3183
  124OSM   H14S13186   6.026   0.838   7.467  0.1261 -0.5970  0.4291
  124OSM   H14T13187   5.875   0.907   7.535 -0.2819 -0.7956 -1.0389
  124OSM   C15S13188   6.008   1.064   7.472  0.0168  0.1876  0.2017
  124OSM   H15S13189   5.949   1.146   7.427 -0.3477 -0.6201 -0.8407
  124OSM   H15T13190   6.096   1.058   7.404 -0.5062 -1.9864 -0.3847
  124OSM   C16S13191   6.039   1.095   7.616 -0.2863 -0.5097  0.5529
  124OSM   H16S13192   6.111   1.179   7.613  2.4383 -2.7101 -1.6605
  124OSM   H16T13193   6.100   1.010   7.656 -1.0336 -1.4645 -0.2933
  124OSM   C17S13194   5.927   1.102   7.716 -0.1490  0.0600 -0.1869
  124OSM   H17S13195   5.850   1.024   7.710  0.4454 -0.5668  0.1827
  124OSM   H17T13196   5.867   1.192   7.690 -0.2080  0.4324  1.1441
  124OSM   C18S13197   5.979   1.118   7.856  0.2467  0.4623  0.1727
  124OSM   H18S13198   5.892   1.131   7.923 -1.3493  0.3691 -1.8003
  124OSM   H18T13199   6.042   1.210   7.854  0.9092  0.0344 -1.7905
  124OSM   H18U13200   6.034   1.024   7.881 -1.2782 -1.1812 -2.2608
  124OSM    C1F13201   5.062   1.256   6.749  0.8606 -0.2068  0.0152
  124OSM     OF13202   4.979   1.170   6.714  0.2134  0.0490  0.8567
  124OSM    C2F13203   5.028   1.327   6.883  0.1589  0.0566  0.1262
  124OSM    H2F13204   4.918   1.330   6.893 -0.0684  2.2651 -2.0114
  124OSM    H2G13205   5.055   1.434   6.871  0.7318 -0.1186 -0.2009
  124OSM    C3F13206   5.097   1.259   7.001  0.7264  0.4785  0.4412
  124OSM    H3F13207   5.207   1.262   6.995  0.6877 -0.2484 -1.4868
  124OSM    H3G13208   5.066   1.153   7.018 -0.1602  0.9217  1.6938
  124OSM    C4F13209   5.049   1.324   7.132  0.7736  0.0652  0.3558
  124OSM    H4F13210   4.940   1.304   7.135  0.7030  0.5769  1.5939
  124OSM    H4G13211   5.062   1.434   7.121  2.7784 -0.2620 -1.0995
  124OSM    C5F13212   5.114   1.272   7.261  0.0324  0.0533 -0.5001
  124OSM    H5F13213   5.108   1.352   7.338  0.0755 -1.0529  0.6996
  124OSM    H5G13214   5.220   1.250   7.238  0.0755  0.5407 -0.7624
  124OSM    C6F13215   5.036   1.144   7.309 -0.6314  0.2409  0.2148
  124OSM    H6F13216   5.055   1.068   7.230 -1.5663  1.1350 -0.9107
  124OSM    H6G13217   4.928   1.169   7.313 -0.3675  1.6475 -0.6476
  124OSM    C7F13218   5.090   1.084   7.439 -0.5801  0.3764  0.2092
  124OSM    H7F13219   5.080   1.150   7.528 -1.2659  0.8190 -0.1832
  124OSM    H7G13220   5.196   1.056   7.419 -0.3433  2.0544 -1.1576
  124OSM    C8F13221   5.017   0.955   7.476  0.7549 -0.6663  0.5266
  124OSM    H8F13222   5.020   0.877   7.397 -1.6941 -0.4438  0.1554
  124OSM    H8G13223   4.913   0.989   7.494  0.8291 -1.8303  3.8857
  124OSM    C9F13224   5.075   0.902   7.605 -0.2486 -0.1318 -1.0077
  124OSM    H9F13225   5.174   0.858   7.584  0.7799  1.0220  1.1082
  124OSM   C10F13226   5.032   0.899   7.731  1.0090  0.1671  0.4450
  124OSM   H10F13227   5.090   0.861   7.816  0.1370  0.3944  1.1663
  124OSM   C11F13228   4.903   0.954   7.773 -0.4611 -0.6166  0.0091
  124OSM   H11F13229   4.834   0.981   7.691 -0.9356  1.8085  1.1121
  124OSM   H11G13230   4.936   1.049   7.821  0.3184 -1.0952  0.4609
  124OSM   C12F13231   4.823   0.875   7.875 -0.0514 -0.2595 -0.2576
  124OSM   H12F13232   4.795   0.778   7.829  1.4827 -0.7306 -0.2372
  124OSM   H12G13233   4.727   0.928   7.895  0.2864  0.6708 -1.0245
  124OSM   C13F13234   4.901   0.862   8.012  0.0872  0.2327  0.3312
  124OSM   H13F13235   4.943   0.964   8.023  0.3502  0.2120 -0.4018
  124OSM   H13G13236   4.987   0.794   7.998 -1.0877 -2.4282  4.2478
  124OSM   C14F13237   4.811   0.823   8.130 -0.0502 -0.2359  0.3555
  124OSM   H14F13238   4.879   0.831   8.218 -1.5016  0.5829  1.4519
  124OSM   H14G13239   4.764   0.725   8.111 -1.4546  0.7778 -1.7998
  124OSM   C15F13240   4.696   0.915   8.164 -0.3170  0.2640 -0.1239
  124OSM   H15F13241   4.641   0.939   8.071 -0.5460  0.6402  0.1099
  124OSM   H15G13242   4.743   1.009   8.200 -0.4069  0.9267 -1.6814
  124OSM   C16F13243   4.596   0.856   8.269  0.2049  0.0112  0.4102
  124OSM   H16F13244   4.669   0.815   8.342  0.1718 -1.3159 -0.2773
  124OSM   H16G13245   4.532   0.771   8.235  1.0044 -0.5082  0.1818
  124OSM   C17F13246   4.516   0.978   8.319 -0.2610  0.2516 -0.8555
  124OSM   H17F13247   4.578   1.068   8.337  0.9091 -0.5028 -1.0322
  124OSM   H17G13248   4.467   0.955   8.416  1.7649 -0.6050  0.0192
  124OSM   C18F13249   4.410   1.025   8.233  0.9482  0.5050  0.4209
  124OSM   H18F13250   4.343   1.098   8.282 -0.3245 -0.8549  0.7532
  124OSM   H18G13251   4.345   0.939   8.207 -1.1059  2.1786 -0.2869
  124OSM   H18H13252   4.446   1.072   8.138 -0.4442  2.0967  0.6455
  125OSM      N13253   0.142   0.013   6.067  0.5114  0.3796  0.2512
  125OSM    C1513254   0.226  -0.104   6.052  0.5369 -0.9150 -0.6790
  125OSM   H15A13255   0.202  -0.175   6.131  0.7883 -0.3770 -0.1115
  125OSM   H15B13256   0.329  -0.077   6.073  0.5252 -0.9578 -0.5612
  125OSM   H15C13257   0.214  -0.148   5.954  0.2622 -3.0484  0.2494
  125OSM    C1413258   0.129   0.088   5.934 -0.0187 -0.1226 -0.3561
  125OSM   H14A13259   0.105   0.189   5.962  1.2797  0.1864 -0.2784
  125OSM   H14B13260   0.060   0.041   5.865 -0.9233  0.1717  0.3286
  125OSM   H14C13261   0.227   0.093   5.888  0.4612 -1.1288  0.5261
  125OSM    C1313262   0.010  -0.042   6.096 -0.0576  0.3700 -0.2976
  125OSM   H13A13263  -0.027  -0.117   6.028 -0.4994 -1.1285  1.5079
  125OSM   H13B13264  -0.067   0.034   6.091  0.0414  0.4106 -1.5042
  125OSM   H13C13265   0.010  -0.081   6.197 -0.2246 -0.4362 -0.6040
  125OSM    C1213266   0.189   0.118   6.168 -0.0033  0.1450 -0.0239
  125OSM   H12A13267   0.195   0.063   6.261  1.0252  0.1432 -0.0891
  125OSM   H12B13268   0.116   0.198   6.170  0.6964  0.8668 -1.6210
  125OSM    C1113269   0.323   0.180   6.141 -0.0546  0.1820  0.2412
  125OSM   H11A13270   0.347   0.247   6.226  2.3424  2.9781 -2.3753
  125OSM   H11B13271   0.330   0.247   6.052 -1.2366 -1.1252 -0.8807
  125OSM      P13272   0.508   0.014   6.244  0.7326  0.2839  0.0670
  125OSM    O1313273   0.442  -0.120   6.272  0.3442  0.3045 -0.0891
  125OSM    O1413274   0.656   0.016   6.225 -0.0124 -0.3861 -0.4188
  125OSM    O1113275   0.481   0.110   6.368  0.4107  0.2530 -0.1226
  125OSM    O1213276   0.434   0.087   6.123 -0.0944 -0.3834  0.3221
  125OSM    C1S13277   0.523   0.071   6.493 -0.2325  0.4748 -0.0523
  125OSM    H1S13278   0.625   0.114   6.495 -0.5331  1.1918  0.7958
  125OSM    H1T13279   0.512  -0.038   6.513 -3.9678  0.7115  0.0258
  125OSM     NF13280   0.499   0.109   6.744  0.5393  0.0985  0.2193
  125OSM    HNF13281   0.453   0.043   6.803  3.0455 -0.3008  1.8726
  125OSM    C2S13282   0.443   0.140   6.613  0.6572 -0.2674 -0.1569
  125OSM    H2S13283   0.445   0.249   6.590 -2.7634 -0.3884 -1.7145
  125OSM    C3S13284   0.291   0.089   6.607  0.4590 -0.4882  0.5574
  125OSM    H3S13285   0.276  -0.017   6.635 -1.4866 -0.1729  0.8538
  125OSM     O313286   0.241   0.097   6.473 -0.0394  0.2801  0.2900
  125OSM    HO313287   0.324   0.091   6.424  1.1170  1.2603  2.0349
  125OSM    C4S13288   0.199   0.172   6.693  0.3330  0.3897  0.7308
  125OSM    H4S13289   0.207   0.276   6.659  0.1874 -0.1520 -1.0377
  125OSM    C5S13290   0.119   0.137   6.793  0.5314 -0.3023  0.0742
  125OSM    H5S13291   0.106   0.033   6.827  0.5051 -0.1779  0.4464
  125OSM    C6S13292   0.037   0.235   6.866 -0.3910  0.0002  0.6608
  125OSM    H6S13293   0.041   0.198   6.970 -0.1822  1.8276  1.3396
  125OSM    H6T13294  -0.070   0.225   6.838 -0.2673  0.2337  0.0740
  125OSM    C7S13295   0.074   0.377   6.870  0.0168  0.3174 -0.0091
  125OSM    H7S13296   0.069   0.427   6.770  1.3875 -0.3566 -0.4320
  125OSM    H7T13297   0.176   0.393   6.911  0.0888 -2.0677  0.8728
  125OSM    C8S13298  -0.032   0.452   6.955 -0.2428  0.4803 -0.1246
  125OSM    H8S13299  -0.133   0.431   6.913 -0.9136  0.4786  1.4270
  125OSM    H8T13300  -0.006   0.558   6.937  2.1857 -0.1758 -0.9138
  125OSM    C9S13301  -0.027   0.439   7.105 -0.3217  0.1021  0.6385
  125OSM    H9S13302   0.076   0.474   7.127  0.0617  0.4141 -1.4323
  125OSM    H9T13303  -0.054   0.338   7.143  1.2812 -0.0590  1.4100
  125OSM   C10S13304  -0.120   0.541   7.163  0.2981  0.8428  0.1117
  125OSM   H10S13305  -0.222   0.518   7.125  0.7653  0.3222 -0.8838
  125OSM   H10T13306  -0.093   0.642   7.125  1.4895  0.3841 -0.3178
  125OSM   C11S13307  -0.129   0.512   7.318  0.3722 -1.0152  0.1196
  125OSM   H11S13308  -0.140   0.402   7.333  0.0321 -0.8770  0.9608
  125OSM   H11T13309  -0.215   0.575   7.351  0.2911 -0.8805 -0.3466
  125OSM   C12S13310   0.002   0.550   7.376 -0.3338 -0.2749 -0.5956
  125OSM   H12S13311   0.020   0.658   7.363 -1.3379  0.1596  1.1786
  125OSM   H12T13312   0.090   0.496   7.336  1.9397 -0.1498  3.6556
  125OSM   C13S13313   0.010   0.513   7.522 -0.2542 -0.1477  0.2527
  125OSM   H13S13314   0.110   0.542   7.559 -0.7096 -0.3662  1.7180
  125OSM   H13T13315   0.006   0.404   7.542 -0.5213  0.0158  1.1468
  125OSM   C14S13316  -0.083   0.608   7.606 -0.4295 -0.1663  0.2715
  125OSM   H14S13317  -0.191   0.588   7.590  0.1166 -2.9132 -0.5876
  125OSM   H14T13318  -0.067   0.714   7.579 -1.2116  0.2140  1.2333
  125OSM   C15S13319  -0.051   0.590   7.749  0.5639  0.4891  0.0706
  125OSM   H15S13320  -0.098   0.673   7.806  0.9048  0.7702 -0.0558
  125OSM   H15T13321   0.058   0.599   7.764  0.2783  2.0408  1.3945
  125OSM   C16S13322  -0.094   0.453   7.798 -0.3870 -0.2754 -0.0226
  125OSM   H16S13323  -0.024   0.379   7.754  0.9603  0.3982  0.8904
  125OSM   H16T13324  -0.192   0.421   7.756 -0.8483  0.2679  0.6133
  125OSM   C17S13325  -0.127   0.447   7.953  0.4225 -0.1672 -0.6228
  125OSM   H17S13326  -0.032   0.456   8.011 -0.0853 -3.0405  0.8178
  125OSM   H17T13327  -0.163   0.346   7.980 -1.0288  0.3615 -0.5131
  125OSM   C18S13328  -0.237   0.549   7.992  0.5610  0.1820 -0.0520
  125OSM   H18S13329  -0.199   0.654   7.999 -3.7277  1.8541  1.5653
  125OSM   H18T13330  -0.268   0.525   8.096 -2.1231 -0.0425 -0.8361
  125OSM   H18U13331  -0.323   0.532   7.924  0.3686  0.7448  0.0467
  125OSM    C1F13332   0.616   0.152   6.788 -0.1811  0.5102 -0.1995
  125OSM     OF13333   0.658   0.265   6.763 -0.3603  0.5989 -0.1070
  125OSM    C2F13334   0.693   0.059   6.883  0.4410 -0.6281  0.2068
  125OSM    H2F13335   0.654  -0.045   6.886  2.6188 -1.5214 -0.9601
  125OSM    H2G13336   0.686   0.106   6.984 -0.9051 -0.0051 -0.1454
  125OSM    C3F13337   0.837   0.040   6.844  0.2042  0.4200 -0.7424
  125OSM    H3F13338   0.882   0.141   6.834 -0.9454  1.1960  1.3953
  125OSM    H3G13339   0.835  -0.017   6.748 -0.1606  2.2791 -1.8877
  125OSM    C4F13340   0.909  -0.041   6.950  0.3362 -0.3421 -0.7329
  125OSM    H4F13341   1.018  -0.049   6.932  0.3652 -1.0761 -0.3141
  125OSM    H4G13342   0.861  -0.141   6.942 -2.6913  0.9684 -0.1692
  125OSM    C5F13343   0.889   0.011   7.092 -0.1541 -0.1458 -1.0042
  125OSM    H5F13344   0.794  -0.030   7.132 -0.3105  0.0039 -1.2178
  125OSM    H5G13345   0.888   0.122   7.088 -1.0111 -0.0298  1.3165
  125OSM    C6F13346   1.009  -0.027   7.183  0.7023  0.1747  0.4956
  125OSM    H6F13347   1.094   0.018   7.127 -0.2749 -0.2631 -1.4448
  125OSM    H6G13348   1.031  -0.136   7.189 -2.2536 -0.4550  1.3783
  125OSM    C7F13349   0.986   0.028   7.322  0.2570  0.2479 -0.1276
  125OSM    H7F13350   0.937   0.127   7.328 -1.2603 -0.5499  1.4080
  125OSM    H7G13351   1.087   0.050   7.363  0.0556 -0.8568  0.9917
  125OSM    C8F13352   0.923  -0.072   7.427  0.9281  0.1748  0.0261
  125OSM    H8F13353   0.993  -0.158   7.424  1.0360  0.2824 -1.7683
  125OSM    H8G13354   0.824  -0.112   7.399  1.9541 -2.2631 -0.3675
  125OSM    C9F13355   0.905  -0.023   7.565  0.3688  0.8080  0.3951
  125OSM    H9F13356   0.804   0.015   7.589 -0.5231 -1.4117  0.3846
  125OSM   C10F13357   1.006  -0.012   7.655  0.1922  0.8556 -0.1990
  125OSM   H10F13358   0.990   0.023   7.758  0.3097  0.1118  0.0805
  125OSM   C11F13359   1.142  -0.067   7.634 -0.2803 -0.0991 -0.1133
  125OSM   H11F13360   1.211  -0.003   7.692 -0.4231 -1.7524  1.9789
  125OSM   H11G13361   1.181  -0.062   7.530  0.1923  0.2147  0.0729
  125OSM   C12F13362   1.160  -0.211   7.692 -0.4546 -0.5868  1.4687
  125OSM   H12F13363   1.256  -0.241   7.646  1.1937  4.2751  1.2149
  125OSM   H12G13364   1.093  -0.286   7.645  1.5869 -0.4452 -1.9998
  125OSM   C13F13365   1.160  -0.222   7.845  0.5751  0.5893  0.6331
  125OSM   H13F13366   1.054  -0.210   7.877 -0.1191 -0.5009 -1.1450
  125OSM   H13G13367   1.195  -0.124   7.884  0.0145  1.9501 -2.0154
  125OSM   C14F13368   1.214  -0.356   7.889 -0.6156 -0.0486 -0.3711
  125OSM   H14F13369   1.319  -0.361   7.853  0.2087  3.0771  1.2197
  125OSM   H14G13370   1.155  -0.437   7.841 -0.7348 -0.5047  0.5252
  125OSM   C15F13371   1.221  -0.366   8.042  0.6867  0.2271  0.0264
  125OSM   H15F13372   1.117  -0.359   8.080  0.5246  0.9732 -0.5538
  125OSM   H15G13373   1.286  -0.284   8.079  0.1062  1.1032 -0.8524
  125OSM   C16F13374   1.290  -0.493   8.102  0.1601  0.4390 -0.0691
  125OSM   H16F13375   1.398  -0.470   8.117  0.4181 -1.0256  0.5231
  125OSM   H16G13376   1.284  -0.576   8.029 -3.1510  2.9161 -2.9167
  125OSM   C17F13377   1.227  -0.538   8.235  0.4812 -0.3316 -0.1835
  125OSM   H17F13378   1.118  -0.541   8.210  1.1750  0.9267 -3.8240
  125OSM   H17G13379   1.242  -0.461   8.314  1.0523 -0.5249 -0.1008
  125OSM   C18F13380   1.265  -0.672   8.290  0.1354 -0.3700 -0.4619
  125OSM   H18F13381   1.375  -0.681   8.306  0.1206 -0.4788 -0.4212
  125OSM   H18G13382   1.244  -0.752   8.216 -0.2365  0.0122 -0.7710
  125OSM   H18H13383   1.204  -0.690   8.381 -0.6550  0.4864 -0.8133
  126OSM      N13384   5.984   3.968   6.501 -0.1662  0.1130  0.1285
  126OSM    C1513385   6.044   4.079   6.432  0.2683 -0.5701 -0.0345
  126OSM   H15A13386   5.991   4.173   6.437  0.7434 -0.3682  2.6814
  126OSM   H15B13387   6.046   4.051   6.327  1.7480 -3.6690  0.7120
  126OSM   H15C13388   6.146   4.106   6.456 -0.6414  2.0076  1.3393
  126OSM    C1413389   6.065   3.845   6.456  0.4200 -0.2662 -0.4223
  126OSM   H14A13390   6.166   3.840   6.494 -0.2225 -1.1880  1.3127
  126OSM   H14B13391   6.067   3.836   6.349  1.2863  0.2191 -0.4511
  126OSM   H14C13392   6.021   3.759   6.505  1.1175 -0.2724  0.2180
  126OSM    C1313393   5.994   3.992   6.651  0.5459 -0.1102 -0.8630
  126OSM   H13A13394   5.946   3.915   6.710  0.9642  0.4146  0.1810
  126OSM   H13B13395   5.945   4.083   6.683  0.4853 -0.6246  0.5600
  126OSM   H13C13396   6.094   4.017   6.681  0.4753  2.1692 -2.2752
  126OSM    C1213397   5.841   3.955   6.453  0.1332  0.8045 -0.4749
  126OSM   H12A13398   5.806   3.856   6.477 -0.2311  1.1756  0.6170
  126OSM   H12B13399   5.826   3.977   6.349 -0.2807 -1.9482 -1.0670
  126OSM    C1113400   5.732   4.052   6.524 -0.3683  0.5104  0.2046
  126OSM   H11A13401   5.749   4.153   6.480 -1.6206  1.0422  0.8886
  126OSM   H11B13402   5.754   4.044   6.633  1.3508 -1.1182 -0.1950
  126OSM      P13403   5.542   3.867   6.461  0.3112 -0.1388 -0.0936
  126OSM    O1313404   5.395   3.884   6.446 -0.3109  0.3120 -0.6443
  126OSM    O1413405   5.616   3.802   6.348  0.0915  0.1844  0.4634
  126OSM    O1113406   5.581   3.789   6.590  0.0499 -0.0889 -0.4927
  126OSM    O1213407   5.600   4.014   6.490 -0.9052  0.0982  0.5148
  126OSM    C1S13408   5.536   3.843   6.718 -0.0057  0.4440  0.6275
  126OSM    H1S13409   5.426   3.846   6.730 -0.0178  1.1318  0.4371
  126OSM    H1T13410   5.575   3.944   6.747 -0.1422  1.3344 -2.0271
  126OSM     NF13411   5.535   3.805   6.959  0.8048  1.0370  0.1951
  126OSM    HNF13412   5.594   3.851   7.025  0.1709 -0.9721  2.3100
  126OSM    C2S13413   5.598   3.759   6.832  0.4909  0.2880  0.5962
  126OSM    H2S13414   5.565   3.654   6.817 -0.0868  0.5134  0.2458
  126OSM    C3S13415   5.752   3.763   6.835  0.3019  0.5102  0.9647
  126OSM    H3S13416   5.775   3.871   6.851  0.3708  0.8503 -1.1090
  126OSM     O313417   5.835   3.738   6.713  0.4467 -0.3013  0.5955
  126OSM    HO313418   5.768   3.751   6.646 -1.7297 -2.4215  2.1872
  126OSM    C4S13419   5.805   3.669   6.935  0.5226  0.1936  0.0409
  126OSM    H4S13420   5.748   3.576   6.942  1.2644 -0.2145  0.8893
  126OSM    C5S13421   5.897   3.682   7.026 -0.8185  0.4399 -0.2763
  126OSM    H5S13422   5.947   3.780   7.028  2.5659 -1.1276  2.1610
  126OSM    C6S13423   5.935   3.579   7.134  0.9737 -0.7260 -0.4180
  126OSM    H6S13424   6.044   3.558   7.129  0.8038 -1.5166 -0.9268
  126OSM    H6T13425   5.883   3.482   7.118  0.5057 -0.6715  0.6909
  126OSM    C7S13426   5.907   3.633   7.281  0.0613  0.5681  0.2417
  126OSM    H7S13427   5.799   3.649   7.302  0.2369  1.7064  0.3818
  126OSM    H7T13428   5.956   3.733   7.282  0.1170  0.5656  2.7935
  126OSM    C8S13429   5.966   3.539   7.383 -0.2201  0.4368 -0.1480
  126OSM    H8S13430   6.075   3.523   7.371 -0.3063  0.0490 -0.4401
  126OSM    H8T13431   5.923   3.437   7.377  0.8587 -0.0885  0.7115
  126OSM    C9S13432   5.936   3.598   7.520 -0.2645  0.1204 -0.2496
  126OSM    H9S13433   5.825   3.606   7.523 -0.2791 -0.1392 -0.0476
  126OSM    H9T13434   5.974   3.701   7.507 -1.6067  0.7988  0.9101
  126OSM   C10S13435   6.008   3.524   7.637 -0.0770 -1.1404  0.2398
  126OSM   H10S13436   6.115   3.548   7.621 -0.3150  1.8145  2.2745
  126OSM   H10T13437   5.988   3.415   7.643 -3.0699 -0.6954 -0.1535
  126OSM   C11S13438   5.979   3.603   7.768  0.6058  0.0207 -0.2318
  126OSM   H11S13439   5.873   3.595   7.802  0.8093  1.5047  0.8783
  126OSM   H11T13440   5.992   3.713   7.756 -0.4215  0.3549  1.3964
  126OSM   C12S13441   6.073   3.554   7.876 -0.4099 -0.0450 -0.5770
  126OSM   H12S13442   6.167   3.612   7.863 -0.0524 -0.0952  1.4924
  126OSM   H12T13443   6.109   3.454   7.845  3.0128  0.1791  2.0968
  126OSM   C13S13444   6.008   3.571   8.020 -0.9307  0.1456 -0.0192
  126OSM   H13S13445   5.909   3.524   8.007 -0.6804 -0.2819 -0.3900
  126OSM   H13T13446   5.981   3.678   8.033  0.3490  0.5030 -0.1745
  126OSM   C14S13447   6.094   3.509   8.135 -0.4113  0.1249  0.2569
  126OSM   H14S13448   6.132   3.414   8.092 -0.1401  0.6643 -0.7129
  126OSM   H14T13449   6.027   3.489   8.221 -0.8335 -1.1433 -0.3329
  126OSM   C15S13450   6.220   3.594   8.169 -0.2366  0.0494  0.2813
  126OSM   H15S13451   6.188   3.681   8.230 -1.8105  0.0398 -0.4869
  126OSM   H15T13452   6.251   3.626   8.067 -0.7297 -2.6478 -0.8085
  126OSM   C16S13453   6.337   3.521   8.242  0.3638 -0.3939 -0.5751
  126OSM   H16S13454   6.394   3.459   8.170  2.3027  1.7808 -1.0341
  126OSM   H16T13455   6.295   3.448   8.314  0.1835 -1.0349 -1.3228
  126OSM   C17S13456   6.437   3.624   8.300  0.1172  0.0802  0.6495
  126OSM   H17S13457   6.378   3.681   8.375 -0.0908 -2.3443  2.4664
  126OSM   H17T13458   6.470   3.693   8.220  0.0697  1.4057  1.7485
  126OSM   C18S13459   6.567   3.562   8.359 -0.0367 -0.3731 -0.6360
  126OSM   H18S13460   6.538   3.487   8.435  2.0869 -1.1569 -0.5496
  126OSM   H18T13461   6.631   3.642   8.403  0.4855 -0.7407 -0.7271
  126OSM   H18U13462   6.611   3.508   8.273  0.8240 -0.8687  0.0921
  126OSM    C1F13463   5.408   3.778   6.988  0.3701 -0.9886  0.0976
  126OSM     OF13464   5.334   3.731   6.905 -0.1999 -0.3879  0.5071
  126OSM    C2F13465   5.365   3.823   7.126  0.7803  0.2585  1.4835
  126OSM    H2F13466   5.385   3.929   7.149 -0.0423  0.4733  1.2354
  126OSM    H2G13467   5.425   3.762   7.197  1.1667 -0.0085  0.9367
  126OSM    C3F13468   5.217   3.787   7.150  0.0297  0.1388  0.5372
  126OSM    H3F13469   5.183   3.684   7.127  0.8247  0.4265 -2.2077
  126OSM    H3G13470   5.159   3.843   7.074 -0.8645 -1.3454  0.0886
  126OSM    C4F13471   5.181   3.824   7.289 -0.4007  0.0956  0.1743
  126OSM    H4F13472   5.071   3.806   7.300 -0.0551 -2.0429  0.6384
  126OSM    H4G13473   5.198   3.932   7.310 -2.3710  0.4067  0.3639
  126OSM    C5F13474   5.250   3.732   7.396  0.2174  0.1561 -0.0547
  126OSM    H5F13475   5.359   3.756   7.391 -0.0549  1.1795 -1.6803
  126OSM    H5G13476   5.251   3.623   7.374  1.1172  0.3170 -0.9182
  126OSM    C6F13477   5.208   3.742   7.540  0.5886 -0.9862  0.2210
  126OSM    H6F13478   5.230   3.644   7.587  1.1774 -1.2142 -0.5169
  126OSM    H6G13479   5.098   3.758   7.545  0.8060  1.0736 -0.4784
  126OSM    C7F13480   5.276   3.854   7.631  0.5054 -0.5660  0.7271
  126OSM    H7F13481   5.247   3.960   7.618 -0.7282 -0.6810  2.3213
  126OSM    H7G13482   5.383   3.834   7.608  0.3259 -1.7203  0.8052
  126OSM    C8F13483   5.256   3.822   7.778 -0.9270 -0.5625  0.0419
  126OSM    H8F13484   5.316   3.907   7.819 -2.2712  1.0667 -1.2102
  126OSM    H8G13485   5.313   3.727   7.781  2.1512  0.9752 -2.9110
  126OSM    C9F13486   5.125   3.840   7.841  0.7341  0.4411  0.1837
  126OSM    H9F13487   5.084   3.942   7.831 -1.7419 -0.6446 -1.7065
  126OSM   C10F13488   5.061   3.744   7.905  0.0841 -0.7211 -0.0910
  126OSM   H10F13489   4.962   3.767   7.947  1.0362  1.5721  1.0446
  126OSM   C11F13490   5.115   3.604   7.923 -0.0871 -0.0713 -0.3060
  126OSM   H11F13491   5.195   3.576   7.852  0.6326  0.1018  0.4263
  126OSM   H11G13492   5.043   3.530   7.881  0.3193 -0.7486  0.1744
  126OSM   C12F13493   5.167   3.574   8.060  0.1089 -0.7453  0.0932
  126OSM   H12F13494   5.176   3.463   8.069 -0.3483 -0.8266 -0.4016
  126OSM   H12G13495   5.090   3.609   8.131 -1.1361  1.0095 -2.0042
  126OSM   C13F13496   5.307   3.639   8.087 -0.0935  0.2080 -0.0538
  126OSM   H13F13497   5.303   3.748   8.066  0.3110 -0.0845 -1.8569
  126OSM   H13G13498   5.380   3.592   8.018  0.5711  0.5944  0.3827
  126OSM   C14F13499   5.354   3.621   8.233  0.1557 -0.3208 -0.4396
  126OSM   H14F13500   5.263   3.638   8.295 -0.4134 -1.6048 -0.8765
  126OSM   H14G13501   5.427   3.703   8.248  1.0824 -1.4044  1.3718
  126OSM   C15F13502   5.416   3.481   8.265  0.4117  0.2180  0.4466
  126OSM   H15F13503   5.512   3.467   8.210 -0.1799 -0.5153 -0.4245
  126OSM   H15G13504   5.350   3.394   8.244  1.2030 -0.2976  0.0447
  126OSM   C16F13505   5.439   3.470   8.416 -0.7620 -0.3724  0.0637
  126OSM   H16F13506   5.455   3.363   8.439 -0.0592 -0.4218 -0.6093
  126OSM   H16G13507   5.348   3.509   8.466  1.2653  2.0233  2.1892
  126OSM   C17F13508   5.564   3.554   8.457 -0.0708  0.1097  0.5955
  126OSM   H17F13509   5.566   3.543   8.568 -0.0291  0.6321  0.6490
  126OSM   H17G13510   5.556   3.663   8.435  1.4538 -0.2821 -2.4000
  126OSM   C18F13511   5.695   3.488   8.410  0.6928 -0.3007  0.7788
  126OSM   H18F13512   5.716   3.504   8.302 -2.0025 -2.6292 -0.2216
  126OSM   H18G13513   5.689   3.379   8.428  0.0835 -0.9367 -2.5783
  126OSM   H18H13514   5.786   3.524   8.464  0.1529 -0.1623  1.6073
  127OSM      N13515   2.895   4.863   5.689 -0.3916  0.5983 -0.8235
  127OSM    C1513516   2.994   4.753   5.678 -0.0299 -0.0962 -0.0524
  127OSM   H15A13517   2.956   4.654   5.696 -0.5969  0.4099  1.7557
  127OSM   H15B13518   3.072   4.758   5.753 -0.4950 -1.0898  0.5262
  127OSM   H15C13519   3.053   4.766   5.589 -0.2340 -0.5537 -0.2579
  127OSM    C1413520   2.978   4.992   5.653 -0.1577  0.7902  0.0616
  127OSM   H14A13521   2.915   5.080   5.652 -2.5313 -0.7848  1.2140
  127OSM   H14B13522   3.037   4.983   5.563  2.4561  0.6025  1.6922
  127OSM   H14C13523   3.040   5.014   5.738 -2.8028 -1.3882  2.8005
  127OSM    C1313524   2.788   4.843   5.590 -0.0339 -0.2549 -0.3962
  127OSM   H13A13525   2.715   4.768   5.619 -1.9066  1.0291 -1.5799
  127OSM   H13B13526   2.833   4.832   5.492  0.8276 -0.9139  0.0580
  127OSM   H13C13527   2.726   4.931   5.588  0.8876  0.4065 -0.3579
  127OSM    C1213528   2.846   4.873   5.833  0.0542 -0.2305  0.5056
  127OSM   H12A13529   2.767   4.947   5.843 -1.0328 -1.5148  1.9117
  127OSM   H12B13530   2.925   4.914   5.895 -2.3530  4.1624  1.1120
  127OSM    C1113531   2.798   4.734   5.890 -0.2547 -0.8964 -0.0353
  127OSM   H11A13532   2.874   4.655   5.878  0.3042 -0.6016  1.3652
  127OSM   H11B13533   2.706   4.702   5.836  0.3475 -0.2526 -1.4760
  127OSM      P13534   2.880   4.731   6.138 -0.2851 -0.1476 -0.1443
  127OSM    O1313535   2.932   4.596   6.154  0.0109  0.2249  0.6778
  127OSM    O1413536   2.985   4.831   6.110 -0.2476 -0.1100  0.2946
  127OSM    O1113537   2.808   4.780   6.260 -0.8098 -0.0627 -0.2939
  127OSM    O1213538   2.774   4.748   6.028 -0.2787  0.2368  0.0275
  127OSM    C1S13539   2.676   4.747   6.310  0.2586 -0.1833 -0.6309
  127OSM    H1S13540   2.651   4.639   6.299  0.1987 -0.1532 -0.7976
  127OSM    H1T13541   2.594   4.809   6.267 -1.0439 -0.9723  0.5813
  127OSM     NF13542   2.540   4.708   6.518  0.7549 -0.0293 -0.2464
  127OSM    HNF13543   2.450   4.751   6.513 -0.1332 -1.3619  2.5381
  127OSM    C2S13544   2.653   4.785   6.465 -0.4940 -0.2826 -0.2634
  127OSM    H2S13545   2.744   4.757   6.522  0.4235 -1.4673 -2.2094
  127OSM    C3S13546   2.639   4.945   6.481  0.1171  0.0174 -0.2228
  127OSM    H3S13547   2.542   4.978   6.439 -0.6470 -0.8220  0.8472
  127OSM     O313548   2.734   5.018   6.406  0.0430  0.1615 -0.3675
  127OSM    HO313549   2.761   4.961   6.333  1.9033  2.2772 -1.4478
  127OSM    C4S13550   2.653   4.987   6.620 -0.8548  0.2949 -0.1601
  127OSM    H4S13551   2.753   4.979   6.665 -1.4072 -3.4119  0.6931
  127OSM    C5S13552   2.552   5.039   6.691  0.0041 -0.0535  0.3558
  127OSM    H5S13553   2.456   5.048   6.639  0.4549  2.3136 -0.1978
  127OSM    C6S13554   2.557   5.087   6.828 -1.0946 -0.5597 -0.9861
  127OSM    H6S13555   2.473   5.050   6.890 -1.2953 -1.0883 -1.5622
  127OSM    H6T13556   2.541   5.196   6.817 -0.5300 -0.2682  0.7419
  127OSM    C7S13557   2.695   5.086   6.898 -0.1269  0.2725  0.6549
  127OSM    H7S13558   2.760   5.149   6.834  0.4328  0.3726  1.3018
  127OSM    H7T13559   2.734   4.982   6.902 -0.3662  0.0301 -1.9996
  127OSM    C8S13560   2.686   5.138   7.045  1.0249 -0.2879  0.2880
  127OSM    H8S13561   2.602   5.081   7.090 -0.1638  1.7618  0.7619
  127OSM    H8T13562   2.664   5.247   7.052 -2.0943 -0.2973 -4.5798
  127OSM    C9S13563   2.825   5.112   7.112 -0.3536 -0.7923 -0.5446
  127OSM    H9S13564   2.895   5.172   7.050 -0.4696 -0.2133 -0.1284
  127OSM    H9T13565   2.850   5.004   7.109 -0.6305 -0.8616 -0.4140
  127OSM   C10S13566   2.837   5.178   7.255  0.5741  0.1353  0.1822
  127OSM   H10S13567   2.798   5.282   7.247  2.2012  0.6367 -4.0578
  127OSM   H10T13568   2.947   5.180   7.274  0.8058 -0.0395 -1.0622
  127OSM   C11S13569   2.774   5.090   7.368  0.2333  0.0654  0.1035
  127OSM   H11S13570   2.848   5.014   7.401  1.2241  2.1919  3.3214
  127OSM   H11T13571   2.683   5.033   7.341  0.8505 -0.7994 -0.1971
  127OSM   C12S13572   2.731   5.177   7.487  0.4695  0.3489 -0.5223
  127OSM   H12S13573   2.625   5.209   7.477 -0.4348 -1.6297  1.7340
  127OSM   H12T13574   2.806   5.255   7.512  1.5541 -1.2471  1.5708
  127OSM   C13S13575   2.735   5.085   7.605  0.4364  0.6746 -0.2628
  127OSM   H13S13576   2.709   4.982   7.574 -0.8008  1.5519 -2.4060
  127OSM   H13T13577   2.659   5.109   7.683  1.1056 -0.0140  0.6272
  127OSM   C14S13578   2.877   5.090   7.670 -0.8064 -0.6645 -0.8254
  127OSM   H14S13579   2.866   5.182   7.731 -2.3791 -0.9980 -0.5713
  127OSM   H14T13580   2.959   5.082   7.596 -0.7562 -0.1587 -0.8239
  127OSM   C15S13581   2.898   4.991   7.779 -0.1288 -0.1073 -0.5942
  127OSM   H15S13582   2.799   4.970   7.825  0.0507 -0.2016 -0.2463
  127OSM   H15T13583   2.966   5.039   7.853 -0.3916  0.8358 -0.9420
  127OSM   C16S13584   2.944   4.859   7.740 -0.4379  0.3929 -0.0557
  127OSM   H16S13585   3.026   4.874   7.666  0.3270  1.4119  0.9574
  127OSM   H16T13586   2.865   4.797   7.693 -3.3146  0.9448  3.5945
  127OSM   C17S13587   2.983   4.772   7.860 -0.4978  0.5586  0.6889
  127OSM   H17S13588   2.888   4.756   7.916  0.7116 -0.9560  2.3930
  127OSM   H17T13589   3.055   4.831   7.921 -0.5713 -0.6752  2.0237
  127OSM   C18S13590   3.048   4.641   7.804 -0.6853  0.2283 -0.2893
  127OSM   H18S13591   3.151   4.648   7.763 -1.5024 -1.0007 -2.7251
  127OSM   H18T13592   2.982   4.589   7.732  0.5777 -1.2307 -0.4412
  127OSM   H18U13593   3.059   4.568   7.887  0.7171 -0.7650 -1.3174
  127OSM    C1F13594   2.552   4.587   6.553 -0.0064  0.8215 -0.2762
  127OSM     OF13595   2.651   4.525   6.516  0.8538  0.6271  0.1972
  127OSM    C2F13596   2.448   4.518   6.632  0.0552  0.1592 -0.3938
  127OSM    H2F13597   2.394   4.447   6.566  0.6597  0.2793 -1.0372
  127OSM    H2G13598   2.382   4.605   6.651  1.7997  1.2335  0.9696
  127OSM    C3F13599   2.504   4.462   6.757 -0.1149  0.2098  0.0549
  127OSM    H3F13600   2.588   4.394   6.733  2.1863  2.4244  1.3157
  127OSM    H3G13601   2.415   4.406   6.794 -0.3757  0.7630  0.2784
  127OSM    C4F13602   2.547   4.562   6.869  0.2760 -0.6929  0.1394
  127OSM    H4F13603   2.472   4.644   6.871  0.1867 -0.7772  0.2668
  127OSM    H4G13604   2.632   4.623   6.830 -1.5890  1.5578 -0.6874
  127OSM    C5F13605   2.572   4.509   7.008 -0.2480  0.3794 -0.5579
  127OSM    H5F13606   2.666   4.450   6.998  0.4076  1.3187 -0.1061
  127OSM    H5G13607   2.493   4.436   7.036 -2.5130  1.9639 -2.4508
  127OSM    C6F13608   2.583   4.613   7.120 -0.3230 -0.2547  0.3644
  127OSM    H6F13609   2.487   4.666   7.135  0.1054  0.5442  0.3507
  127OSM    H6G13610   2.646   4.689   7.069  0.4827  0.7587  2.7197
  127OSM    C7F13611   2.640   4.579   7.254 -0.5582 -0.2544  0.5104
  127OSM    H7F13612   2.744   4.542   7.237 -0.7601 -0.6771  0.1785
  127OSM    H7G13613   2.581   4.490   7.286 -1.2051 -0.8015 -1.9663
  127OSM    C8F13614   2.640   4.701   7.349  0.2134  0.3379  0.3947
  127OSM    H8F13615   2.538   4.736   7.377  0.2236 -0.1715  1.0916
  127OSM    H8G13616   2.684   4.787   7.294  0.8729 -1.5918 -2.3507
  127OSM    C9F13617   2.724   4.686   7.469  0.2233  0.3100 -0.0884
  127OSM    H9F13618   2.829   4.718   7.458  0.6861 -0.8981  0.6686
  127OSM   C10F13619   2.686   4.617   7.580  0.4438  0.1925  0.6997
  127OSM   H10F13620   2.759   4.601   7.660  0.1375  0.4175  1.0277
  127OSM   C11F13621   2.549   4.556   7.602 -0.1493 -0.1198  0.0190
  127OSM   H11F13622   2.556   4.455   7.647  0.6705 -0.1446 -0.1533
  127OSM   H11G13623   2.494   4.535   7.508  1.3041 -3.5751 -0.2004
  127OSM   C12F13624   2.462   4.635   7.707  0.2663 -1.1165 -0.4178
  127OSM   H12F13625   2.355   4.606   7.700  0.3117 -1.3657 -0.1011
  127OSM   H12G13626   2.467   4.742   7.678  0.9308 -1.3137 -1.0794
  127OSM   C13F13627   2.508   4.621   7.857  0.0919  0.1970  0.3397
  127OSM   H13F13628   2.600   4.682   7.874  0.3813 -0.4848  1.3211
  127OSM   H13G13629   2.525   4.513   7.878 -0.0228 -0.1384 -1.2083
  127OSM   C14F13630   2.403   4.682   7.956  1.0848 -0.1267 -0.3614
  127OSM   H14F13631   2.316   4.613   7.958  0.4392  0.6508 -0.8581
  127OSM   H14G13632   2.368   4.782   7.922 -0.6682  0.3394  2.4962
  127OSM   C15F13633   2.457   4.680   8.093  0.2846 -0.4803  0.7184
  127OSM   H15F13634   2.549   4.739   8.111 -0.2503  0.2429  1.1724
  127OSM   H15G13635   2.487   4.575   8.113  0.8774 -0.6028 -0.7123
  127OSM   C16F13636   2.342   4.711   8.191 -0.3904 -0.0964  0.5056
  127OSM   H16F13637   2.253   4.645   8.184  0.5736 -1.5213  1.2690
  127OSM   H16G13638   2.294   4.805   8.157 -0.5409 -0.9845 -1.9019
  127OSM   C17F13639   2.390   4.702   8.334  0.0016  0.6655 -0.2933
  127OSM   H17F13640   2.457   4.785   8.366  0.7487  0.7824 -2.0841
  127OSM   H17G13641   2.466   4.621   8.327  1.1503  1.8149 -1.5491
  127OSM   C18F13642   2.282   4.671   8.438  0.3991  0.5073 -0.1024
  127OSM   H18F13643   2.231   4.574   8.419 -1.3503  0.7977  2.5510
  127OSM   H18G13644   2.208   4.753   8.453  1.2302  0.5949  5.8290
  127OSM   H18H13645   2.331   4.659   8.537  0.4785  1.4895 -0.0150
  128OSM      N13646   3.581   1.987   5.824 -0.1754  0.3928  0.6003
  128OSM    C1513647   3.463   2.068   5.789  0.6290  0.4445 -0.5105
  128OSM   H15A13648   3.486   2.150   5.723 -1.8141  1.3504 -0.3415
  128OSM   H15B13649   3.419   2.112   5.877  0.1175  1.6309 -1.3385
  128OSM   H15C13650   3.386   2.002   5.751 -0.5314 -0.1604  2.6099
  128OSM    C1413651   3.688   1.986   5.713 -0.2667  0.5018 -0.5405
  128OSM   H14A13652   3.649   1.939   5.624  2.3637  0.5385 -1.8072
  128OSM   H14B13653   3.775   1.933   5.750 -2.0383 -0.6732  2.3194
  128OSM   H14C13654   3.711   2.089   5.691  1.0478  0.2820 -0.2791
  128OSM    C1313655   3.641   2.065   5.938 -0.2129  0.6652 -0.5351
  128OSM   H13A13656   3.567   2.096   6.011  1.3971 -1.2611  2.1183
  128OSM   H13B13657   3.691   2.154   5.903  0.9422 -0.0020 -0.6595
  128OSM   H13C13658   3.721   2.005   5.980 -2.2768 -0.8451  1.5680
  128OSM    C1213659   3.532   1.844   5.867 -0.0478  0.6000  0.0309
  128OSM   H12A13660   3.614   1.773   5.863 -0.2016  0.2516  1.8781
  128OSM   H12B13661   3.458   1.807   5.798  0.3323  0.0266 -0.0769
  128OSM    C1113662   3.459   1.830   6.010 -1.0444  0.0349  0.2910
  128OSM   H11A13663   3.529   1.863   6.089  2.3167 -2.0170 -1.5849
  128OSM   H11B13664   3.446   1.721   6.029 -2.0026 -0.0098 -0.5255
  128OSM      P13665   3.280   2.012   6.101  0.4608 -0.2768 -0.0750
  128OSM    O1313666   3.360   2.138   6.083  0.1104  0.7832  0.0972
  128OSM    O1413667   3.136   2.021   6.084 -0.0184  0.1012 -0.0378
  128OSM    O1113668   3.304   1.947   6.246  0.4764 -0.0533 -0.2146
  128OSM    O1213669   3.335   1.902   6.005  0.0431 -0.1275  0.4546
  128OSM    C1S13670   3.359   2.030   6.347 -0.0088 -0.9250 -0.8890
  128OSM    H1S13671   3.321   2.134   6.354  0.3360 -0.9003  1.3632
  128OSM    H1T13672   3.467   2.040   6.323  0.0065 -1.4916 -1.0651
  128OSM     NF13673   3.331   2.073   6.588 -0.9388 -0.1930  0.4743
  128OSM    HNF13674   3.418   2.084   6.637  0.1444  0.8432 -1.5473
  128OSM    C2S13675   3.333   1.967   6.483 -0.2718 -0.8360 -0.1404
  128OSM    H2S13676   3.228   1.931   6.476 -0.8653  0.6674  0.5024
  128OSM    C3S13677   3.427   1.844   6.512  0.3794 -0.1091 -0.3730
  128OSM    H3S13678   3.532   1.878   6.506  0.0758  1.4120  1.7722
  128OSM     O313679   3.420   1.732   6.425  0.1557 -0.2053 -0.0777
  128OSM    HO313680   3.372   1.780   6.356  0.3068  1.0006  0.6346
  128OSM    C4S13681   3.412   1.795   6.651  0.2843  0.6139 -0.3769
  128OSM    H4S13682   3.476   1.859   6.714  1.2080 -2.3785  1.9611
  128OSM    C5S13683   3.335   1.697   6.704  0.2679 -0.3591  0.8072
  128OSM    H5S13684   3.265   1.637   6.644 -1.9026  1.6254  1.1865
  128OSM    C6S13685   3.313   1.646   6.844 -0.5983  0.7848  0.0410
  128OSM    H6S13686   3.355   1.543   6.840  1.6125  1.5158  2.1236
  128OSM    H6T13687   3.206   1.646   6.872 -0.7196  0.5677 -0.4020
  128OSM    C7S13688   3.390   1.724   6.944  0.2466  0.4784 -0.5609
  128OSM    H7S13689   3.366   1.833   6.947 -0.4687  0.3075  0.9015
  128OSM    H7T13690   3.499   1.712   6.931  0.5147  1.1048  0.8308
  128OSM    C8S13691   3.365   1.676   7.092 -0.1191  0.3825  0.8027
  128OSM    H8S13692   3.421   1.580   7.091 -1.9039 -0.7298 -1.3976
  128OSM    H8T13693   3.260   1.653   7.119 -0.3862  0.1805 -0.3374
  128OSM    C9S13694   3.424   1.778   7.187  1.0441  0.4227  0.1723
  128OSM    H9S13695   3.382   1.881   7.186  0.2905  0.1618 -2.4409
  128OSM    H9T13696   3.533   1.785   7.166  1.0902 -0.5337  0.0310
  128OSM   C10S13697   3.409   1.740   7.333 -0.7044  0.5619 -0.3378
  128OSM   H10S13698   3.456   1.640   7.340  0.5686  1.2501  2.3419
  128OSM   H10T13699   3.301   1.724   7.355 -1.0382  0.9689 -1.5779
  128OSM   C11S13700   3.477   1.834   7.435  0.4245 -0.7004  0.0325
  128OSM   H11S13701   3.451   1.942   7.425 -0.0205 -0.8293 -0.2483
  128OSM   H11T13702   3.586   1.822   7.420  0.0722 -1.8670 -1.9876
  128OSM   C12S13703   3.446   1.787   7.570  1.6871  0.3438 -0.1744
  128OSM   H12S13704   3.490   1.685   7.571  0.6867 -0.1320 -1.8776
  128OSM   H12T13705   3.337   1.786   7.591  1.5382  0.6644 -0.9261
  128OSM   C13S13706   3.518   1.864   7.680  0.4452  0.3340  0.2311
  128OSM   H13S13707   3.489   1.970   7.666 -0.5008  0.0619  0.0841
  128OSM   H13T13708   3.623   1.859   7.644 -0.5444 -2.0461 -2.7265
  128OSM   C14S13709   3.496   1.821   7.824 -0.6734  0.4109 -0.7279
  128OSM   H14S13710   3.570   1.876   7.886  1.7124 -1.2543 -1.9332
  128OSM   H14T13711   3.524   1.715   7.812  2.1615  1.0234 -0.3119
  128OSM   C15S13712   3.357   1.835   7.872 -0.2677  0.2243 -0.7602
  128OSM   H15S13713   3.284   1.810   7.792 -1.3810  1.5642 -0.1972
  128OSM   H15T13714   3.344   1.943   7.895  0.2348  0.1917 -0.3061
  128OSM   C16S13715   3.322   1.765   8.003 -0.0263  0.4308  0.1516
  128OSM   H16S13716   3.351   1.658   7.994 -2.4720 -0.1905 -1.4736
  128OSM   H16T13717   3.211   1.760   8.007  0.0198  0.1297  1.6716
  128OSM   C17S13718   3.381   1.835   8.131  0.7764  0.4017  0.3300
  128OSM   H17S13719   3.332   1.935   8.126 -1.5608 -0.7080 -1.0594
  128OSM   H17T13720   3.491   1.846   8.119  0.6512  2.2529  0.5890
  128OSM   C18S13721   3.355   1.756   8.262 -0.1799  0.1882  0.5196
  128OSM   H18S13722   3.253   1.734   8.300  0.7413 -0.5249  2.7538
  128OSM   H18T13723   3.399   1.815   8.346 -1.6981  0.9336  0.8386
  128OSM   H18U13724   3.399   1.655   8.251  2.6727  1.3839  0.0336
  128OSM    C1F13725   3.232   2.162   6.599  0.1146  0.0752 -0.3601
  128OSM     OF13726   3.133   2.164   6.530 -0.0258 -0.2958  0.3044
  128OSM    C2F13727   3.245   2.271   6.699 -0.3484 -0.7261  0.0418
  128OSM    H2F13728   3.214   2.369   6.658 -0.7537  0.2589  2.5348
  128OSM    H2G13729   3.351   2.268   6.733 -0.7872 -0.9380  1.4874
  128OSM    C3F13730   3.145   2.243   6.820 -0.0406  0.1848 -0.2357
  128OSM    H3F13731   3.041   2.228   6.783 -0.0287  2.6306 -1.4154
  128OSM    H3G13732   3.157   2.327   6.891  2.2595 -0.5053  0.3064
  128OSM    C4F13733   3.196   2.126   6.908 -0.6882 -0.2448 -0.5910
  128OSM    H4F13734   3.291   2.151   6.960  0.0687 -1.7005 -1.2321
  128OSM    H4G13735   3.218   2.031   6.855  1.1961 -0.6884  0.8763
  128OSM    C5F13736   3.079   2.079   7.006  0.0263  0.6904 -0.5116
  128OSM    H5F13737   3.096   1.974   7.039 -0.9037 -0.0603 -2.2633
  128OSM    H5G13738   2.983   2.083   6.950  0.3094  2.5304 -0.9399
  128OSM    C6F13739   3.063   2.159   7.134 -0.5271 -0.1570 -0.1717
  128OSM    H6F13740   2.955   2.154   7.158 -0.0308  0.4560  2.5222
  128OSM    H6G13741   3.072   2.268   7.117  0.3434 -0.4170 -1.4973
  128OSM    C7F13742   3.165   2.112   7.239  0.2033 -0.8579 -0.3037
  128OSM    H7F13743   3.265   2.128   7.195  1.3506 -0.4852  2.2658
  128OSM    H7G13744   3.151   2.007   7.274 -1.1974 -1.4261 -2.3541
  128OSM    C8F13745   3.153   2.195   7.367 -0.3494 -0.0470  0.6175
  128OSM    H8F13746   3.049   2.188   7.407  0.1027 -2.0756  1.5531
  128OSM    H8G13747   3.170   2.302   7.341 -0.1222 -0.2176  0.0407
  128OSM    C9F13748   3.238   2.139   7.475 -0.6319 -0.0800  0.8279
  128OSM    H9F13749   3.333   2.099   7.437 -0.9752  1.0241 -1.3583
  128OSM   C10F13750   3.220   2.115   7.607  0.6213  0.9558 -0.5861
  128OSM   H10F13751   3.301   2.066   7.663 -0.3062 -0.0337 -0.0742
  128OSM   C11F13752   3.096   2.136   7.684 -0.4499 -0.0882  0.2459
  128OSM   H11F13753   3.016   2.152   7.609  0.4544  1.1623 -0.4916
  128OSM   H11G13754   3.119   2.223   7.749  0.8884  1.1226 -1.7726
  128OSM   C12F13755   3.052   2.023   7.786  0.6699  0.4063 -0.8585
  128OSM   H12F13756   3.145   2.001   7.844 -0.6467 -0.0756  1.1992
  128OSM   H12G13757   3.027   1.931   7.729  0.9332 -1.4026  1.7706
  128OSM   C13F13758   2.937   2.073   7.875  0.7508  0.2990 -0.3797
  128OSM   H13F13759   2.837   2.076   7.828  1.4098 -0.4282 -1.8712
  128OSM   H13G13760   2.956   2.178   7.908  0.6486  0.7657 -1.7372
  128OSM   C14F13761   2.926   1.987   8.004 -0.0906  0.0188 -0.3539
  128OSM   H14F13762   3.020   1.993   8.064  1.1074 -0.5726 -2.1089
  128OSM   H14G13763   2.922   1.880   7.977  0.6607 -0.1623  0.1986
  128OSM   C15F13764   2.801   2.001   8.087 -0.0232 -0.3293 -0.4231
  128OSM   H15F13765   2.762   1.902   8.118 -2.8453  1.0182  0.6931
  128OSM   H15G13766   2.723   2.054   8.028  0.8458  1.6952  0.1492
  128OSM   C16F13767   2.821   2.089   8.212  0.1951 -0.3047 -0.1496
  128OSM   H16F13768   2.864   2.187   8.182 -1.8074  1.3511  2.0821
  128OSM   H16G13769   2.900   2.059   8.284  0.0194  0.7268  0.4882
  128OSM   C17F13770   2.702   2.098   8.308 -0.4117 -0.0812  0.9810
  128OSM   H17F13771   2.623   2.158   8.258  0.4031  0.7690  0.6554
  128OSM   H17G13772   2.722   2.150   8.404 -0.2570 -0.5233  1.1911
  128OSM   C18F13773   2.636   1.962   8.353  0.0624  0.2138 -0.5128
  128OSM   H18F13774   2.558   1.942   8.277  0.3622 -0.6399 -0.6000
  128OSM   H18G13775   2.576   1.983   8.444 -2.0866  0.0474 -1.8239
  128OSM   H18H13776   2.707   1.877   8.356  0.2221  0.3573 -0.1442
  129OSM      N13777   1.187   3.338   6.152  1.1517 -0.4378  1.0037
  129OSM    C1513778   1.095   3.459   6.148  0.1149 -0.2723 -0.4259
  129OSM   H15A13779   0.999   3.430   6.108 -0.7451  1.0420  0.6215
  129OSM   H15B13780   1.132   3.544   6.092  1.2363  0.5222  1.4481
  129OSM   H15C13781   1.078   3.502   6.245  0.2716  1.0331 -0.9564
  129OSM    C1413782   1.108   3.234   6.222  0.7494  0.2389  0.0764
  129OSM   H14A13783   1.165   3.142   6.216 -2.8559 -2.2288  0.3960
  129OSM   H14B13784   1.011   3.214   6.178  0.5550  2.1481 -0.4646
  129OSM   H14C13785   1.086   3.264   6.323 -0.3396  2.8633 -0.8320
  129OSM    C1313786   1.221   3.302   6.013  0.1809  0.2086  0.0481
  129OSM   H13A13787   1.277   3.209   6.016  0.1320  0.1430 -0.8016
  129OSM   H13B13788   1.271   3.386   5.967  0.7849 -0.3987 -0.4216
  129OSM   H13C13789   1.138   3.277   5.948 -0.3919 -0.1279  0.8844
  129OSM    C1213790   1.310   3.373   6.227 -0.2109 -0.5511  0.0227
  129OSM   H12A13791   1.367   3.449   6.175 -1.4765  1.2361  1.1047
  129OSM   H12B13792   1.374   3.286   6.226  1.3019  0.5334 -0.7594
  129OSM    C1113793   1.289   3.437   6.374 -0.1702  0.2027  0.4437
  129OSM   H11A13794   1.390   3.446   6.419 -0.7330 -0.3340  1.8522
  129OSM   H11B13795   1.228   3.362   6.430 -2.0492  1.0005 -0.4494
  129OSM      P13796   1.280   3.696   6.329  0.2219  0.0877 -0.1635
  129OSM    O1313797   1.415   3.673   6.284 -0.4155 -0.5009 -0.2247
  129OSM    O1413798   1.194   3.760   6.230  0.1506  0.4083  0.7835
  129OSM    O1113799   1.280   3.785   6.457 -0.1950  0.1261  0.1183
  129OSM    O1213800   1.219   3.558   6.373 -0.2954 -0.1266  0.3970
  129OSM    C1S13801   1.159   3.788   6.540  0.1769 -0.6279  0.0521
  129OSM    H1S13802   1.100   3.693   6.540 -0.5026 -0.2444 -2.0039
  129OSM    H1T13803   1.091   3.865   6.497  1.1411 -0.0697 -0.4837
  129OSM     NF13804   1.080   3.856   6.758 -0.2248  0.0559 -0.3326
  129OSM    HNF13805   1.056   3.950   6.778  1.6694  0.1635  1.7789
  129OSM    C2S13806   1.200   3.831   6.682  0.3690  0.3582  0.0520
  129OSM    H2S13807   1.253   3.744   6.725 -0.8879 -0.3177  0.2830
  129OSM    C3S13808   1.305   3.943   6.679  0.3897 -0.1383 -0.0010
  129OSM    H3S13809   1.267   4.031   6.621  1.6131 -0.8995 -2.0606
  129OSM     O313810   1.435   3.913   6.631  0.2710  0.2829 -0.6185
  129OSM    HO313811   1.421   3.822   6.603 -2.1680  0.1601  0.7987
  129OSM    C4S13812   1.318   4.003   6.822 -0.1133 -0.2948  0.8876
  129OSM    H4S13813   1.242   4.079   6.847 -1.9986 -1.6728 -0.4101
  129OSM    C5S13814   1.411   3.984   6.915 -0.6955 -0.4797 -1.0467
  129OSM    H5S13815   1.494   3.920   6.884 -0.7361 -0.0040 -2.1761
  129OSM    C6S13816   1.425   4.054   7.051 -0.0453  0.3609  0.0438
  129OSM    H6S13817   1.354   4.139   7.047 -1.7124 -1.0330 -1.9415
  129OSM    H6T13818   1.530   4.081   7.075 -0.9204  2.3632  1.9353
  129OSM    C7S13819   1.376   3.969   7.177 -0.1844  0.0827  0.8573
  129OSM    H7S13820   1.424   3.870   7.193  0.7772  0.5864  1.1819
  129OSM    H7T13821   1.269   3.945   7.155 -0.4048  2.0945 -0.5804
  129OSM    C8S13822   1.380   4.039   7.305  0.1681 -0.6249  0.1272
  129OSM    H8S13823   1.339   4.142   7.293 -1.4939 -1.1402  1.0555
  129OSM    H8T13824   1.483   4.057   7.343  0.5437 -0.1223 -1.0893
  129OSM    C9S13825   1.301   3.977   7.422 -0.3325  0.0247  0.0318
  129OSM    H9S13826   1.328   3.870   7.437 -3.3462 -0.9261 -0.5817
  129OSM    H9T13827   1.194   3.977   7.392 -0.0653 -1.3476 -1.0218
  129OSM   C10S13828   1.322   4.047   7.555  0.1624 -0.4819  0.0831
  129OSM   H10S13829   1.305   4.156   7.548  1.3387 -0.3322 -0.5123
  129OSM   H10T13830   1.430   4.034   7.579  0.5997  0.0664 -1.4716
  129OSM   C11S13831   1.246   3.990   7.673  0.1066  0.0217 -0.1299
  129OSM   H11S13832   1.298   3.895   7.698 -0.1799  0.0046  0.4248
  129OSM   H11T13833   1.140   3.974   7.644 -0.6914  0.6477  2.2149
  129OSM   C12S13834   1.256   4.081   7.798 -0.4864 -0.3644  0.4966
  129OSM   H12S13835   1.211   4.181   7.781  0.6168  0.1577  0.5568
  129OSM   H12T13836   1.365   4.095   7.814 -0.2622 -0.0545 -1.0926
  129OSM   C13S13837   1.196   4.020   7.923 -0.6317  0.6342  0.4264
  129OSM   H13S13838   1.252   3.929   7.952  0.1540  1.5475  1.8552
  129OSM   H13T13839   1.094   3.985   7.898 -0.4135 -0.1964  0.6807
  129OSM   C14S13840   1.214   4.112   8.040 -0.7168 -0.1668 -0.0975
  129OSM   H14S13841   1.177   4.210   8.002  1.5916 -0.4041 -3.4285
  129OSM   H14T13842   1.321   4.136   8.053 -0.9375  0.7319  0.1585
  129OSM   C15S13843   1.162   4.063   8.170  0.1278  0.1444  0.1331
  129OSM   H15S13844   1.206   4.131   8.246 -0.7505  1.1690 -0.2558
  129OSM   H15T13845   1.211   3.968   8.199  0.7634  0.5613  0.4550
  129OSM   C16S13846   1.011   4.061   8.193 -0.1021  0.2521 -0.2136
  129OSM   H16S13847   0.965   3.960   8.187  0.6832 -0.1920  0.9450
  129OSM   H16T13848   0.966   4.119   8.110  0.5446 -1.0177 -1.5069
  129OSM   C17S13849   0.974   4.118   8.329  0.3873 -0.5654 -0.4633
  129OSM   H17S13850   1.033   4.209   8.350  0.0997  0.3273 -3.1918
  129OSM   H17T13851   1.014   4.035   8.392 -2.2055 -1.1071  0.6028
  129OSM   C18S13852   0.822   4.123   8.347  0.1699 -1.1335  0.6840
  129OSM   H18S13853   0.795   4.133   8.454 -0.5132  1.0774  0.3566
  129OSM   H18T13854   0.782   4.027   8.309  0.4916 -0.4849 -1.4127
  129OSM   H18U13855   0.764   4.195   8.286  0.1632  0.5493  2.5723
  129OSM    C1F13856   0.988   3.760   6.786 -0.5211 -0.4640  0.1674
  129OSM     OF13857   1.014   3.644   6.773 -0.7778  0.8094 -0.1903
  129OSM    C2F13858   0.854   3.798   6.832 -0.6058 -0.0102 -0.2216
  129OSM    H2F13859   0.795   3.704   6.826 -0.1206 -0.6262  2.9822
  129OSM    H2G13860   0.813   3.884   6.775 -0.8310 -0.2094 -0.3613
  129OSM    C3F13861   0.857   3.840   6.983 -0.2649 -0.1933 -0.6984
  129OSM    H3F13862   0.869   3.756   7.055 -0.2901  2.0065  2.0666
  129OSM    H3G13863   0.751   3.869   6.998 -0.5793 -2.1451  1.5396
  129OSM    C4F13864   0.951   3.956   7.024  0.6915  0.0843  0.1858
  129OSM    H4F13865   0.947   4.017   6.932 -1.4742  0.7258  0.6342
  129OSM    H4G13866   1.055   3.920   7.036  1.1167  1.5326  1.0684
  129OSM    C5F13867   0.909   4.037   7.146 -0.1056 -0.0554 -0.3203
  129OSM    H5F13868   0.820   4.097   7.117 -0.7033 -0.9495 -0.3785
  129OSM    H5G13869   0.991   4.109   7.166 -0.8038  1.5793 -2.9072
  129OSM    C6F13870   0.874   3.955   7.274 -0.3042  1.0196  0.7362
  129OSM    H6F13871   0.969   3.904   7.300  0.4200  0.6987 -2.2020
  129OSM    H6G13872   0.794   3.880   7.255 -1.6759  3.1515 -3.2954
  129OSM    C7F13873   0.823   4.054   7.375  0.2720  0.5377 -0.5015
  129OSM    H7F13874   0.764   4.132   7.322  0.4220  0.1649 -1.2309
  129OSM    H7G13875   0.907   4.110   7.422  0.1398 -0.4746  0.9942
  129OSM    C8F13876   0.732   4.000   7.481 -0.1481 -0.3374 -0.5462
  129OSM    H8F13877   0.640   3.952   7.441  0.0840  0.4977 -2.1757
  129OSM    H8G13878   0.699   4.096   7.527 -0.1428 -0.4759 -0.2499
  129OSM    C9F13879   0.808   3.905   7.577  0.2706  0.3438  0.2392
  129OSM    H9F13880   0.866   3.820   7.539 -3.2691 -2.0248 -0.3481
  129OSM   C10F13881   0.806   3.917   7.712  0.0993  0.1491  0.2199
  129OSM   H10F13882   0.852   3.841   7.778 -0.6136 -0.1303  0.4030
  129OSM   C11F13883   0.731   4.022   7.791 -0.1307  0.3797  0.7807
  129OSM   H11F13884   0.683   4.096   7.724 -0.0976 -1.1271 -0.9787
  129OSM   H11G13885   0.802   4.083   7.851 -0.2770  1.2107  0.1412
  129OSM   C12F13886   0.633   3.955   7.896  0.6299  0.3863  0.8451
  129OSM   H12F13887   0.576   3.878   7.840 -2.5589  2.5365  0.8908
  129OSM   H12G13888   0.549   4.025   7.916  1.2637  2.0046 -1.6453
  129OSM   C13F13889   0.705   3.912   8.027  0.3346 -0.4082  0.2829
  129OSM   H13F13890   0.756   3.995   8.080  1.5116 -1.4703  0.8553
  129OSM   H13G13891   0.783   3.836   8.006  1.5337  0.7989  0.2013
  129OSM   C14F13892   0.598   3.857   8.123 -0.2244  0.4003  0.1645
  129OSM   H14F13893   0.662   3.803   8.196  0.6423  1.8665  0.5369
  129OSM   H14G13894   0.528   3.782   8.081  0.0924 -0.4110  1.0458
  129OSM   C15F13895   0.512   3.961   8.195  0.6096 -0.1689  0.3023
  129OSM   H15F13896   0.447   4.013   8.121  1.8205  0.1077 -0.5944
  129OSM   H15G13897   0.578   4.042   8.233 -1.2195  1.6879 -0.2803
  129OSM   C16F13898   0.427   3.904   8.307 -0.1215 -0.1838  0.0739
  129OSM   H16F13899   0.504   3.859   8.373 -0.1438  2.2496  1.9472
  129OSM   H16G13900   0.360   3.823   8.272 -0.9663  1.2218 -1.7418
  129OSM   C17F13901   0.348   4.000   8.395 -0.1879 -0.4086 -0.4208
  129OSM   H17F13902   0.277   4.053   8.328 -0.9863 -1.2859 -0.2814
  129OSM   H17G13903   0.420   4.075   8.433  0.7847 -0.4464 -2.0836
  129OSM   C18F13904   0.276   3.928   8.511 -0.0085  0.3720 -0.1249
  129OSM   H18F13905   0.220   3.992   8.583 -1.1835 -1.9031  1.0971
  129OSM   H18G13906   0.355   3.877   8.571 -1.0302  0.1648  1.1083
  129OSM   H18H13907   0.194   3.865   8.471 -2.4858  1.3873  2.9036
  130OSM      N13908   2.630   1.660   6.123 -0.4458 -0.0775  0.3083
  130OSM    C1513909   2.587   1.539   6.049 -0.1213  0.8856 -0.5916
  130OSM   H15A13910   2.666   1.498   5.987 -0.2549 -0.3694  0.0458
  130OSM   H15B13911   2.506   1.559   5.981 -1.4228 -0.3060  0.5498
  130OSM   H15C13912   2.546   1.457   6.105  1.5819  0.5480  0.2465
  130OSM    C1413913   2.725   1.620   6.233 -0.0665 -0.7148 -0.4361
  130OSM   H14A13914   2.813   1.568   6.199 -0.2338 -2.9033  2.1704
  130OSM   H14B13915   2.665   1.560   6.300 -1.7455 -0.0578 -1.2698
  130OSM   H14C13916   2.758   1.713   6.276 -0.8754 -0.0052 -1.2763
  130OSM    C1313917   2.711   1.760   6.047  0.2255 -0.1595 -0.2192
  130OSM   H13A13918   2.678   1.771   5.945 -0.8656 -2.3767 -0.1671
  130OSM   H13B13919   2.811   1.719   6.040  0.0458 -0.5135 -0.7803
  130OSM   H13C13920   2.711   1.854   6.101  0.0063  1.0029 -2.1829
  130OSM    C1213921   2.510   1.734   6.185 -0.4895 -0.1383  0.2223
  130OSM   H12A13922   2.449   1.766   6.101 -1.0186  0.3699  0.7932
  130OSM   H12B13923   2.546   1.819   6.239  0.8899 -0.9070  0.5476
  130OSM    C1113924   2.420   1.652   6.278  1.2810  0.3240  0.3880
  130OSM   H11A13925   2.356   1.720   6.339 -0.7521  0.5873 -1.8784
  130OSM   H11B13926   2.478   1.599   6.357 -1.5744 -1.2139  1.6067
  130OSM      P13927   2.218   1.590   6.116  0.6960 -0.3361  0.1892
  130OSM    O1313928   2.261   1.661   5.992  0.2634  0.0610 -0.5000
  130OSM    O1413929   2.121   1.484   6.091  0.2128  0.2345 -0.4104
  130OSM    O1113930   2.146   1.699   6.199 -0.1182 -0.2473 -0.1959
  130OSM    O1213931   2.341   1.548   6.209  0.0573 -0.4342 -0.1011
  130OSM    C1S13932   2.086   1.651   6.325  0.7483  0.2524 -0.0327
  130OSM    H1S13933   2.140   1.571   6.380  2.2706  2.3021  1.6341
  130OSM    H1T13934   1.982   1.615   6.314  0.1211  1.5821  1.1277
  130OSM     NF13935   2.004   1.703   6.555 -0.4504 -0.6404 -0.3543
  130OSM    HNF13936   1.907   1.680   6.547 -0.2057 -1.1643 -2.2007
  130OSM    C2S13937   2.052   1.767   6.429  0.8235 -0.2240 -0.2146
  130OSM    H2S13938   2.147   1.822   6.446  1.5008 -1.6272  0.6829
  130OSM    C3S13939   1.950   1.868   6.373  0.3897  0.0061 -0.1712
  130OSM    H3S13940   1.852   1.821   6.352  0.6984 -0.6857 -0.0902
  130OSM     O313941   1.975   1.915   6.235 -0.0596  0.0610  0.0527
  130OSM    HO313942   2.038   1.847   6.212  1.6392  1.7727 -0.6542
  130OSM    C4S13943   1.937   1.977   6.469 -0.0092 -0.1087  0.3358
  130OSM    H4S13944   2.027   2.041   6.472 -1.2919  1.7381  0.9384
  130OSM    C5S13945   1.834   1.998   6.552 -0.2239  0.3874 -0.2891
  130OSM    H5S13946   1.741   1.938   6.550 -1.0670  1.6894 -2.1580
  130OSM    C6S13947   1.834   2.104   6.653  0.1194  0.6107  0.0569
  130OSM    H6S13948   1.737   2.156   6.636 -0.0777  0.4441  0.6207
  130OSM    H6T13949   1.916   2.178   6.643 -0.1950  0.9284 -0.1787
  130OSM    C7S13950   1.822   2.049   6.793  0.8301  0.2009 -0.2556
  130OSM    H7S13951   1.893   1.964   6.804  0.4541  0.1937  2.9033
  130OSM    H7T13952   1.715   2.024   6.809  0.6443  0.9930 -0.2326
  130OSM    C8S13953   1.851   2.163   6.897  0.2128  0.1995 -0.1730
  130OSM    H8S13954   1.780   2.247   6.883 -0.4659 -0.7325 -2.8497
  130OSM    H8T13955   1.946   2.210   6.863 -0.2143  0.3964 -1.1221
  130OSM    C9S13956   1.869   2.123   7.044  0.8023 -0.4837  0.1555
  130OSM    H9S13957   1.932   2.031   7.043  1.5354 -0.0179  1.2661
  130OSM    H9T13958   1.780   2.083   7.097  0.9486 -0.5301  0.3700
  130OSM   C10S13959   1.944   2.226   7.126  0.5267 -0.0559 -0.2323
  130OSM   H10S13960   1.891   2.323   7.135  0.5969  0.0390 -0.8230
  130OSM   H10T13961   2.045   2.250   7.085  0.7307 -2.2916 -1.1555
  130OSM   C11S13962   1.967   2.194   7.274  0.4551 -0.2327  0.1287
  130OSM   H11S13963   2.055   2.126   7.279  0.3069 -0.4779 -0.5706
  130OSM   H11T13964   1.878   2.145   7.320 -1.2899  0.3514 -2.4447
  130OSM   C12S13965   2.014   2.304   7.362 -0.2126 -0.4475 -0.2849
  130OSM   H12S13966   1.929   2.375   7.365  0.1138 -0.0764  0.8080
  130OSM   H12T13967   2.106   2.347   7.315  0.6015 -0.3500  1.3210
  130OSM   C13S13968   2.060   2.287   7.507 -0.1650 -0.1117 -0.2358
  130OSM   H13S13969   2.070   2.389   7.550 -0.6327  0.3500 -1.2126
  130OSM   H13T13970   2.161   2.240   7.502  0.7918  1.9349 -4.3332
  130OSM   C14S13971   1.954   2.206   7.589 -0.1018 -1.0250 -0.0130
  130OSM   H14S13972   1.961   2.100   7.556 -0.9617 -0.8956 -0.6380
  130OSM   H14T13973   1.855   2.223   7.542  1.6793  1.9470 -3.2032
  130OSM   C15S13974   1.958   2.215   7.744  0.9505 -0.4545  0.3328
  130OSM   H15S13975   2.062   2.176   7.758  1.6168  0.9538 -0.4408
  130OSM   H15T13976   1.882   2.142   7.778 -1.3499  1.1951 -0.9878
  130OSM   C16S13977   1.936   2.354   7.796  0.1868  0.1196 -0.2046
  130OSM   H16S13978   1.861   2.414   7.740  0.1725  0.1178 -0.1873
  130OSM   H16T13979   2.021   2.423   7.776  0.9789 -0.7412  0.1282
  130OSM   C17S13980   1.902   2.356   7.943  0.3760  0.1569 -0.0154
  130OSM   H17S13981   1.993   2.318   7.993  0.9604  0.6232 -0.7039
  130OSM   H17T13982   1.817   2.288   7.966 -0.2663  1.1097  0.4781
  130OSM   C18S13983   1.859   2.493   8.005 -0.6751 -0.3698  1.0976
  130OSM   H18S13984   1.772   2.528   7.946  0.2961 -0.4144 -0.4110
  130OSM   H18T13985   1.938   2.571   8.006  0.1216 -1.1188 -0.4269
  130OSM   H18U13986   1.824   2.477   8.110  2.3228 -2.0887  1.9541
  130OSM    C1F13987   2.084   1.642   6.641 -0.7858  0.6667 -0.2015
  130OSM     OF13988   2.203   1.674   6.653  0.0336 -0.2578 -0.9229
  130OSM    C2F13989   2.026   1.542   6.730  0.2288 -0.4383 -0.0773
  130OSM    H2F13990   1.984   1.462   6.665 -1.1250 -0.6770  1.0547
  130OSM    H2G13991   1.936   1.588   6.776 -1.6422 -2.9821 -1.0008
  130OSM    C3F13992   2.130   1.474   6.821 -0.3718 -0.0498 -0.8470
  130OSM    H3F13993   2.221   1.444   6.765  0.0777 -0.0431 -0.1319
  130OSM    H3G13994   2.075   1.380   6.846 -2.7352  1.3953 -0.3541
  130OSM    C4F13995   2.159   1.559   6.947  0.3362  0.4118  0.2626
  130OSM    H4F13996   2.076   1.568   7.021 -1.0825 -0.0897 -1.2181
  130OSM    H4G13997   2.183   1.663   6.914  2.8446 -0.8454 -2.2244
  130OSM    C5F13998   2.285   1.512   7.025  0.0214  0.0964 -0.0903
  130OSM    H5F13999   2.310   1.590   7.100 -0.1749 -1.6604  1.8875
  130OSM    H5G14000   2.375   1.500   6.961 -0.0456  1.6360 -0.5099
  130OSM    C6F14001   2.262   1.381   7.101  0.7235  0.0841  0.1146
  130OSM    H6F14002   2.354   1.359   7.159  0.6444 -1.0837 -0.1788
  130OSM    H6G14003   2.278   1.292   7.036 -1.2117 -0.5753  0.4762
  130OSM    C7F14004   2.138   1.370   7.197  0.4294 -0.4505 -0.3501
  130OSM    H7F14005   2.145   1.271   7.249  0.8078  0.4325  1.3534
  130OSM    H7G14006   2.043   1.371   7.140 -0.5522 -0.5933  1.2184
  130OSM    C8F14007   2.147   1.475   7.319  1.0230 -0.0067  1.0661
  130OSM    H8F14008   2.135   1.581   7.285 -3.6491 -1.2186 -2.1315
  130OSM    H8G14009   2.252   1.468   7.352  1.1905  0.4179  0.6379
  130OSM    C9F14010   2.045   1.446   7.429  0.1975  0.1316 -0.7303
  130OSM    H9F14011   1.944   1.489   7.423 -0.6647 -1.7052  0.0314
  130OSM   C10F14012   2.064   1.358   7.531 -0.2898 -0.3042  0.6340
  130OSM   H10F14013   1.988   1.338   7.609 -1.1217  1.6061  0.3815
  130OSM   C11F14014   2.194   1.286   7.549  0.4922 -0.8089  0.0646
  130OSM   H11F14015   2.250   1.277   7.454 -1.1928 -0.5396 -1.0074
  130OSM   H11G14016   2.169   1.182   7.578 -1.9521 -0.4394 -0.5072
  130OSM   C12F14017   2.295   1.347   7.653 -0.3711  0.3772  0.2803
  130OSM   H12F14018   2.328   1.437   7.598  2.1763 -0.3578  0.4529
  130OSM   H12G14019   2.384   1.281   7.670 -0.4352  0.8192  2.6034
  130OSM   C13F14020   2.247   1.389   7.784 -0.0480  0.1430  0.2438
  130OSM   H13F14021   2.160   1.454   7.762 -0.9019 -0.5950  1.3265
  130OSM   H13G14022   2.324   1.458   7.825 -0.3243 -0.0763  1.1583
  130OSM   C14F14023   2.206   1.277   7.875  0.2354  0.9739 -1.0009
  130OSM   H14F14024   2.165   1.190   7.820  0.1620  1.4058 -1.6356
  130OSM   H14G14025   2.124   1.312   7.942 -0.4977  0.3481 -1.5542
  130OSM   C15F14026   2.314   1.231   7.977  0.0717  0.0902 -0.2998
  130OSM   H15F14027   2.258   1.162   8.044 -1.1510 -0.5658 -1.9258
  130OSM   H15G14028   2.336   1.323   8.034 -0.5364  0.8558 -1.2746
  130OSM   C16F14029   2.449   1.189   7.907  0.3467 -0.2635  0.1120
  130OSM   H16F14030   2.477   1.286   7.859 -0.3024  0.7846  1.7387
  130OSM   H16G14031   2.432   1.110   7.831 -0.7165  0.7841 -0.7820
  130OSM   C17F14032   2.562   1.134   7.999 -0.2970 -0.0165 -0.2561
  130OSM   H17F14033   2.651   1.120   7.934 -0.9237 -1.0677 -0.9046
  130OSM   H17G14034   2.532   1.041   8.052  2.9613 -1.1707 -0.2226
  130OSM   C18F14035   2.596   1.240   8.105  0.2405 -0.0931 -0.2746
  130OSM   H18F14036   2.602   1.345   8.069  1.2692  0.0968  0.3986
  130OSM   H18G14037   2.696   1.219   8.150  0.7232 -1.2814 -1.8311
  130OSM   H18H14038   2.521   1.240   8.187  0.7188 -0.1372  0.1670
  131OSM      N14039   1.215   4.696   6.116 -0.0500 -0.6593 -0.0914
  131OSM    C1514040   1.233   4.588   6.218 -1.2215 -0.2523  0.1411
  131OSM   H15A14041   1.159   4.574   6.295 -1.6219  1.3878  0.0986
  131OSM   H15B14042   1.335   4.600   6.252 -1.4266  1.9784  0.1572
  131OSM   H15C14043   1.238   4.489   6.177  2.9193 -0.2805  0.3618
  131OSM    C1414044   1.331   4.701   6.016  0.0412 -0.1888  0.7674
  131OSM   H14A14045   1.317   4.784   5.948 -0.5825  0.1919  1.3526
  131OSM   H14B14046   1.327   4.616   5.949  0.7186  1.9694 -2.2424
  131OSM   H14C14047   1.430   4.703   6.059  0.5646 -0.8886 -0.3538
  131OSM    C1314048   1.080   4.671   6.048 -0.5106 -0.0515 -0.1487
  131OSM   H13A14049   1.082   4.572   6.005 -0.6877 -0.8172  1.5133
  131OSM   H13B14050   1.060   4.743   5.970 -0.3552  0.5384  0.3520
  131OSM   H13C14051   1.003   4.678   6.123  0.7165  1.6557  1.0101
  131OSM    C1214052   1.213   4.831   6.189 -0.7428  0.0710  0.0625
  131OSM   H12A14053   1.312   4.835   6.231 -0.7524 -2.9496  0.5408
  131OSM   H12B14054   1.144   4.822   6.272  0.9213 -2.8586  1.2710
  131OSM    C1114055   1.175   4.963   6.115  1.0058 -0.4305  0.0659
  131OSM   H11A14056   1.254   4.976   6.038  2.1064  0.5738  1.3278
  131OSM   H11B14057   1.187   5.051   6.181 -0.2208 -0.4396  0.3130
  131OSM      P14058   0.914   4.993   6.129 -0.1637  0.2212 -0.3528
  131OSM    O1314059   0.892   5.137   6.102 -0.2088  0.4820 -0.7963
  131OSM    O1414060   0.807   4.899   6.089 -0.2574 -0.0631 -0.2552
  131OSM    O1114061   0.945   4.958   6.287  0.0771 -0.2052 -0.0166
  131OSM    O1214062   1.044   4.955   6.054 -0.0430 -0.1445  0.7979
  131OSM    C1S14063   0.846   4.903   6.374  0.6451  0.0347  0.1741
  131OSM    H1S14064   0.881   4.803   6.408  0.9929 -0.3859 -1.3469
  131OSM    H1T14065   0.751   4.894   6.318 -0.4926  1.2439  1.8270
  131OSM     NF14066   0.750   4.911   6.603 -0.5789 -0.1997 -0.5323
  131OSM    HNF14067   0.655   4.935   6.620  0.5600  2.7903  2.7407
  131OSM    C2S14068   0.832   4.980   6.508 -0.1057  0.1593 -0.0098
  131OSM    H2S14069   0.934   4.994   6.551 -0.8189  0.6876  1.5579
  131OSM    C3S14070   0.775   5.123   6.483 -0.0968 -0.3778 -0.1388
  131OSM    H3S14071   0.687   5.125   6.414 -0.1725  0.5867 -0.0388
  131OSM     O314072   0.858   5.202   6.402 -0.1839 -0.2797 -0.5918
  131OSM    HO314073   0.914   5.128   6.379 -0.1943  0.7566 -4.7941
  131OSM    C4S14074   0.738   5.194   6.613 -0.0106 -0.3614  0.8041
  131OSM    H4S14075   0.630   5.210   6.626 -0.8154 -2.3863 -2.2796
  131OSM    C5S14076   0.825   5.246   6.697 -0.3085 -0.0789 -0.5739
  131OSM    H5S14077   0.934   5.233   6.683  0.1555  2.3716  0.2825
  131OSM    C6S14078   0.783   5.319   6.822 -0.3136  0.6342 -0.1358
  131OSM    H6S14079   0.677   5.352   6.823 -1.5141 -2.7797 -0.8875
  131OSM    H6T14080   0.842   5.413   6.813  0.0307  0.2246 -3.1791
  131OSM    C7S14081   0.821   5.242   6.951 -0.4879  0.0262  0.1951
  131OSM    H7S14082   0.928   5.216   6.935 -0.6961  0.1128 -1.6576
  131OSM    H7T14083   0.757   5.152   6.964 -1.0028  0.6077  1.8530
  131OSM    C8S14084   0.803   5.313   7.082 -0.4740  0.5946  0.5960
  131OSM    H8S14085   0.716   5.381   7.083  1.7058  3.8009 -2.5705
  131OSM    H8T14086   0.885   5.388   7.077 -0.4611  0.5037 -1.0063
  131OSM    C9S14087   0.790   5.218   7.198 -0.0114  0.0674  0.0940
  131OSM    H9S14088   0.876   5.148   7.189  0.5399  0.7072  0.3714
  131OSM    H9T14089   0.694   5.165   7.181  0.1730 -0.4794  0.7137
  131OSM   C10S14090   0.792   5.280   7.341 -0.1692 -0.3518  0.9264
  131OSM   H10S14091   0.684   5.304   7.351 -0.8532 -1.9759 -1.5493
  131OSM   H10T14092   0.844   5.378   7.333  0.3283 -0.6514  0.3957
  131OSM   C11S14093   0.851   5.180   7.436  0.6251  0.0508  0.4314
  131OSM   H11S14094   0.945   5.138   7.394  1.1861  0.6525  1.0486
  131OSM   H11T14095   0.771   5.104   7.450  0.2448  0.7494  2.3388
  131OSM   C12S14096   0.882   5.241   7.574 -0.0663 -0.2869 -0.5601
  131OSM   H12S14097   0.969   5.309   7.579 -1.2686  1.2220  2.1027
  131OSM   H12T14098   0.912   5.159   7.643 -2.3537  0.8168  1.9339
  131OSM   C13S14099   0.771   5.320   7.644  0.6141 -0.2946  0.1858
  131OSM   H13S14100   0.679   5.257   7.640  0.5530 -0.2949  1.2234
  131OSM   H13T14101   0.758   5.413   7.586  0.7747  0.2271  0.9757
  131OSM   C14S14102   0.800   5.340   7.798 -0.0037  0.7628 -0.1355
  131OSM   H14S14103   0.896   5.395   7.813 -0.0025  0.8289 -0.3810
  131OSM   H14T14104   0.812   5.234   7.830 -0.1616  1.0525  0.8921
  131OSM   C15S14105   0.692   5.420   7.872 -0.2243 -0.2523 -0.7436
  131OSM   H15S14106   0.603   5.357   7.894  0.8216 -1.2052  0.9669
  131OSM   H15T14107   0.650   5.500   7.807  0.3674  1.3840  0.8155
  131OSM   C16S14108   0.743   5.475   8.010  0.1044  0.0764  0.2021
  131OSM   H16S14109   0.674   5.542   8.064 -0.3554  0.7058 -1.1193
  131OSM   H16T14110   0.831   5.534   7.977 -0.9572  0.4040 -2.2771
  131OSM   C17S14111   0.787   5.366   8.111 -0.0212  0.0737  0.2007
  131OSM   H17S14112   0.816   5.415   8.207 -0.0021  0.4317  0.0124
  131OSM   H17T14113   0.874   5.303   8.085  2.8496  4.0617 -0.7041
  131OSM   C18S14114   0.673   5.270   8.133 -0.1381 -0.0334 -0.1431
  131OSM   H18S14115   0.585   5.330   8.165 -0.2315 -0.1480 -0.1870
  131OSM   H18T14116   0.710   5.196   8.207  2.5351  1.2402 -0.0689
  131OSM   H18U14117   0.646   5.210   8.044  1.8843 -0.3657 -0.5896
  131OSM    C1F14118   0.797   4.809   6.669 -0.2941  0.3623  0.8403
  131OSM     OF14119   0.907   4.753   6.653 -0.8589  0.3785 -0.8620
  131OSM    C2F14120   0.716   4.778   6.783  0.1228 -0.3494 -0.7679
  131OSM    H2F14121   0.680   4.673   6.773  0.2524 -0.4905  0.1483
  131OSM    H2G14122   0.623   4.837   6.778  1.4024  1.6910 -4.1254
  131OSM    C3F14123   0.789   4.813   6.914 -0.4773  0.7829  0.1522
  131OSM    H3F14124   0.794   4.924   6.920 -0.5001  0.7089  2.1595
  131OSM    H3G14125   0.890   4.769   6.924 -1.0345 -0.2278  1.5746
  131OSM    C4F14126   0.707   4.757   7.036 -0.1322 -0.5590  0.0350
  131OSM    H4F14127   0.681   4.649   7.032  0.0991 -0.6529  0.8549
  131OSM    H4G14128   0.609   4.809   7.042  0.6653  0.8404  1.9043
  131OSM    C5F14129   0.786   4.806   7.161  0.6610  0.1159 -1.4093
  131OSM    H5F14130   0.826   4.908   7.139 -0.7980  0.4596 -2.6188
  131OSM    H5G14131   0.870   4.737   7.182 -1.5505 -1.8927  1.8050
  131OSM    C6F14132   0.698   4.829   7.292 -0.2251 -0.3505  0.1974
  131OSM    H6F14133   0.607   4.766   7.284 -0.9567  0.8884 -2.2799
  131OSM    H6G14134   0.671   4.937   7.292  0.7668 -0.0885  1.3091
  131OSM    C7F14135   0.777   4.793   7.426 -0.0764 -0.4795  0.4998
  131OSM    H7F14136   0.848   4.878   7.433  1.5197 -1.4122 -2.2896
  131OSM    H7G14137   0.833   4.700   7.402 -1.0033 -0.5947 -1.4883
  131OSM    C8F14138   0.682   4.780   7.550 -0.1251  0.1927  0.1807
  131OSM    H8F14139   0.746   4.724   7.621  1.8385 -0.2496 -1.8434
  131OSM    H8G14140   0.588   4.727   7.525 -0.4956  1.6774 -1.7950
  131OSM    C9F14141   0.640   4.909   7.607 -1.0555 -0.6881  0.0340
  131OSM    H9F14142   0.589   4.974   7.533 -0.3020 -2.0816 -1.7791
  131OSM   C10F14143   0.667   4.957   7.729  0.3969 -0.5098  0.5664
  131OSM   H10F14144   0.631   5.058   7.755 -1.8433 -0.8368 -1.0283
  131OSM   C11F14145   0.746   4.891   7.838 -0.2144  0.3564  0.5968
  131OSM   H11F14146   0.808   4.970   7.886  1.7916 -1.4250  1.0835
  131OSM   H11G14147   0.815   4.813   7.800  0.9622  1.0106  1.3120
  131OSM   C12F14148   0.646   4.827   7.931 -0.3164  0.0047  0.6513
  131OSM   H12F14149   0.691   4.775   8.018 -1.7808  0.2672  1.5916
  131OSM   H12G14150   0.588   4.759   7.865 -0.2099  1.4469 -0.9970
  131OSM   C13F14151   0.544   4.920   8.010  0.5099  0.0951  0.0666
  131OSM   H13F14152   0.494   4.986   7.936  0.3624 -0.5228 -0.3876
  131OSM   H13G14153   0.593   4.996   8.074  0.3197  1.3997 -1.2639
  131OSM   C14F14154   0.444   4.845   8.095 -0.3015  0.7161  0.2183
  131OSM   H14F14155   0.467   4.736   8.105 -3.8274 -0.2191 -0.7493
  131OSM   H14G14156   0.342   4.849   8.053 -1.0005  0.9924  1.8617
  131OSM   C15F14157   0.435   4.907   8.233  0.9145 -0.7401 -0.1971
  131OSM   H15F14158   0.419   5.016   8.223 -1.8282 -0.9800  0.4987
  131OSM   H15G14159   0.530   4.888   8.288  2.6422  1.4040 -2.2734
  131OSM   C16F14160   0.331   4.845   8.328  0.0442 -0.1661 -0.2471
  131OSM   H16F14161   0.363   4.740   8.347  1.6752  0.2155 -0.6796
  131OSM   H16G14162   0.235   4.851   8.272  0.6165 -0.5547 -1.3132
  131OSM   C17F14163   0.325   4.917   8.466 -0.0566  0.1524 -0.1825
  131OSM   H17F14164   0.285   5.019   8.444  0.4061  0.0717 -1.4706
  131OSM   H17G14165   0.423   4.929   8.515 -0.8210  0.4662  1.3243
  131OSM   C18F14166   0.236   4.849   8.570 -0.1031 -0.2043 -0.4773
  131OSM   H18F14167   0.127   4.862   8.557 -0.3273 -3.6554 -3.5958
  131OSM   H18G14168   0.258   4.900   8.667  0.4696 -0.6278 -0.3755
  131OSM   H18H14169   0.249   4.739   8.569 -1.5281 -0.4079  0.7818
  132OSM      N14170   4.721   3.442   5.972 -0.2363  0.9528  0.1269
  132OSM    C1514171   4.720   3.328   5.875 -0.4751 -0.0844 -0.1744
  132OSM   H15A14172   4.621   3.289   5.860 -0.4967 -0.0952 -0.0121
  132OSM   H15B14173   4.791   3.251   5.900 -1.5209 -0.6081  1.3443
  132OSM   H15C14174   4.763   3.360   5.781  0.7301  2.4845  1.1222
  132OSM    C1414175   4.859   3.499   5.976 -0.2641  0.4440  0.0772
  132OSM   H14A14176   4.870   3.583   6.043  1.2175  1.1807 -1.0267
  132OSM   H14B14177   4.871   3.540   5.876 -2.2164 -0.6043 -0.6477
  132OSM   H14C14178   4.934   3.425   5.999 -2.3451 -1.3817  1.4171
  132OSM    C1314179   4.633   3.551   5.921  0.0760 -0.8718 -0.4527
  132OSM   H13A14180   4.623   3.620   6.004  1.3222 -1.0534 -0.1221
  132OSM   H13B14181   4.533   3.522   5.893 -0.0251 -0.7385 -0.2399
  132OSM   H13C14182   4.675   3.607   5.839  0.1185 -0.2754 -0.0308
  132OSM    C1214183   4.678   3.389   6.107 -1.1234 -0.6102  0.2406
  132OSM   H12A14184   4.751   3.320   6.146 -1.2187  0.0456  1.6386
  132OSM   H12B14185   4.586   3.333   6.104 -2.0718  0.6351  2.8929
  132OSM    C1114186   4.649   3.503   6.209  0.5032 -0.2405  0.1795
  132OSM   H11A14187   4.710   3.592   6.183 -3.0728  2.1474 -0.8106
  132OSM   H11B14188   4.680   3.452   6.302  0.8783 -2.0442 -0.8697
  132OSM      P14189   4.395   3.461   6.239  0.0213  0.2739  0.5373
  132OSM    O1314190   4.276   3.544   6.210 -1.2389  0.2948  0.5979
  132OSM    O1414191   4.400   3.338   6.164 -0.2416  0.2952  0.2194
  132OSM    O1114192   4.408   3.438   6.395 -0.0072 -0.3962 -0.1756
  132OSM    O1214193   4.515   3.550   6.207  0.1263  0.3113 -0.2107
  132OSM    C1S14194   4.370   3.530   6.499  0.1863 -0.0272 -0.3716
  132OSM    H1S14195   4.278   3.589   6.480  1.5022  2.5206  0.7021
  132OSM    H1T14196   4.448   3.604   6.521 -1.4914  1.7021 -0.0002
  132OSM     NF14197   4.297   3.567   6.746  0.5745 -0.2467  0.0810
  132OSM    HNF14198   4.364   3.591   6.816  1.8327  0.0557 -1.2088
  132OSM    C2S14199   4.347   3.467   6.645 -0.6790 -0.1735  0.3550
  132OSM    H2S14200   4.261   3.398   6.640  2.1110 -3.8160 -1.6926
  132OSM    C3S14201   4.475   3.391   6.690  0.1363  0.4417  0.2614
  132OSM    H3S14202   4.561   3.462   6.694  0.6946 -0.1889 -0.2946
  132OSM     O314203   4.514   3.298   6.591  0.0440 -0.2312  0.0139
  132OSM    HO314204   4.460   3.319   6.515 -0.9032  1.6874  1.1464
  132OSM    C4S14205   4.458   3.319   6.821  1.0348  0.3198  0.2020
  132OSM    H4S14206   4.408   3.222   6.820  0.4395  0.6129  0.7842
  132OSM    C5S14207   4.496   3.365   6.940 -1.0551  0.1804  0.0881
  132OSM    H5S14208   4.559   3.455   6.934 -1.6645  0.4927 -2.9314
  132OSM    C6S14209   4.469   3.292   7.069  0.7049  0.1709  1.0014
  132OSM    H6S14210   4.559   3.261   7.127  0.6819 -1.4841  0.1982
  132OSM    H6T14211   4.410   3.201   7.048 -0.9250  1.3693  0.1888
  132OSM    C7S14212   4.366   3.366   7.154 -0.5981  0.2462  0.4615
  132OSM    H7S14213   4.265   3.342   7.114 -1.6606  2.5560  1.6116
  132OSM    H7T14214   4.373   3.476   7.144  0.1262  0.3109  1.5502
  132OSM    C8S14215   4.365   3.318   7.293 -0.2807  1.1100 -0.9431
  132OSM    H8S14216   4.443   3.362   7.359 -0.0339  0.3910 -0.7399
  132OSM    H8T14217   4.390   3.210   7.291 -2.3999  0.5079  1.1049
  132OSM    C9S14218   4.228   3.336   7.370  0.6911  1.0209  0.2161
  132OSM    H9S14219   4.144   3.296   7.309 -0.1026  0.0999  1.8421
  132OSM    H9T14220   4.208   3.444   7.389 -1.2129  0.8695 -0.7089
  132OSM   C10S14221   4.227   3.266   7.503  0.3441  0.2370 -0.6697
  132OSM   H10S14222   4.309   3.312   7.562 -0.9475  1.1459  0.4767
  132OSM   H10T14223   4.245   3.157   7.489 -1.7115 -0.3575  0.7786
  132OSM   C11S14224   4.094   3.284   7.576 -0.1299 -0.3794 -0.3257
  132OSM   H11S14225   4.005   3.253   7.517  0.2285 -2.7293  0.2701
  132OSM   H11T14226   4.083   3.389   7.610  0.1924 -0.1966 -0.7791
  132OSM   C12S14227   4.090   3.186   7.701  0.1777  0.6707  0.6864
  132OSM   H12S14228   4.101   3.083   7.663 -0.2152  1.1050 -0.6679
  132OSM   H12T14229   3.984   3.197   7.735 -0.0784 -0.1704  0.1746
  132OSM   C13S14230   4.175   3.224   7.816  0.5613 -0.9126 -0.2850
  132OSM   H13S14231   4.280   3.225   7.781  0.1564  0.2899 -1.5367
  132OSM   H13T14232   4.165   3.146   7.895 -0.6591 -0.4405  0.0513
  132OSM   C14S14233   4.130   3.358   7.881  0.1140  0.3060  0.5221
  132OSM   H14S14234   4.117   3.439   7.806  1.1592 -0.1421 -0.1593
  132OSM   H14T14235   4.200   3.392   7.961 -0.0632  0.4983  0.5987
  132OSM   C15S14236   3.989   3.361   7.951 -0.5589  0.2173  0.0662
  132OSM   H15S14237   3.989   3.273   8.019  1.7753  0.1129 -0.0159
  132OSM   H15T14238   3.913   3.353   7.870  0.0923 -3.6015 -0.3375
  132OSM   C16S14239   3.959   3.481   8.042 -0.3949  1.0050 -0.5192
  132OSM   H16S14240   4.047   3.499   8.108  0.0876  2.7441 -1.5540
  132OSM   H16T14241   3.866   3.461   8.099 -0.0366 -1.2777 -0.6521
  132OSM   C17S14242   3.958   3.610   7.958  0.2328  0.8941 -0.4407
  132OSM   H17S14243   3.885   3.608   7.874 -0.0963  2.5516 -0.2131
  132OSM   H17T14244   4.060   3.616   7.913  0.5977  0.7203  0.3417
  132OSM   C18S14245   3.929   3.725   8.045  0.4265  0.1305  0.4838
  132OSM   H18S14246   3.823   3.704   8.074 -0.1561 -1.5633 -2.4726
  132OSM   H18T14247   3.937   3.820   7.989 -0.6483 -1.0565 -1.8367
  132OSM   H18U14248   3.996   3.718   8.134  1.4728  2.7129 -0.0159
  132OSM    C1F14249   4.173   3.627   6.733  0.1148 -0.0866 -0.5057
  132OSM     OF14250   4.105   3.607   6.635 -0.6776 -0.0513  0.3434
  132OSM    C2F14251   4.128   3.701   6.860 -0.9627  0.1336  0.3929
  132OSM    H2F14252   4.033   3.755   6.839 -2.2086 -1.5682  1.4256
  132OSM    H2G14253   4.213   3.768   6.885 -0.0301  0.0122 -2.1892
  132OSM    C3F14254   4.104   3.615   6.989 -0.1887  0.4063  0.5163
  132OSM    H3F14255   4.193   3.565   7.032  1.4153  2.3977 -0.3765
  132OSM    H3G14256   4.028   3.535   6.968 -0.5992  0.9244 -0.0223
  132OSM    C4F14257   4.050   3.702   7.098 -0.1714 -0.2002  0.1900
  132OSM    H4F14258   3.954   3.745   7.060 -0.1902 -1.6720 -1.5705
  132OSM    H4G14259   4.119   3.787   7.115  0.8815 -0.3954 -2.5439
  132OSM    C5F14260   4.013   3.640   7.229  0.5666  0.1128 -0.2665
  132OSM    H5F14261   4.108   3.617   7.282  0.4671  0.5105  0.0945
  132OSM    H5G14262   3.944   3.554   7.215  0.2469  0.4112 -0.5806
  132OSM    C6F14263   3.944   3.738   7.331  0.1751 -0.6300 -0.3280
  132OSM    H6F14264   3.852   3.772   7.279  0.6003  1.4649  0.1815
  132OSM    H6G14265   4.000   3.834   7.340 -1.5704  0.3943  0.1964
  132OSM    C7F14266   3.912   3.672   7.462  0.4866  0.2010  0.3485
  132OSM    H7F14267   4.002   3.653   7.524 -0.9862  0.8470  2.8410
  132OSM    H7G14268   3.846   3.585   7.438 -0.5750  1.1823 -0.3950
  132OSM    C8F14269   3.816   3.746   7.553 -0.0457  0.4391 -0.7851
  132OSM    H8F14270   3.795   3.677   7.638 -3.0244  0.1719 -1.6513
  132OSM    H8G14271   3.716   3.749   7.506 -0.9776 -0.1076  1.0614
  132OSM    C9F14272   3.859   3.870   7.624  0.4116 -0.0022 -0.2500
  132OSM    H9F14273   3.963   3.879   7.658  0.4155  0.8956 -0.4806
  132OSM   C10F14274   3.775   3.967   7.659  0.2019  0.2973 -0.0421
  132OSM   H10F14275   3.821   4.046   7.719 -0.3936  1.7547 -1.4372
  132OSM   C11F14276   3.629   3.998   7.636  0.7769 -0.8356  0.1020
  132OSM   H11F14277   3.573   3.945   7.557 -1.6037  0.0226  1.1263
  132OSM   H11G14278   3.627   4.099   7.589  0.2116 -1.4426 -1.2124
  132OSM   C12F14279   3.539   4.015   7.762  0.3176  0.5397 -0.1121
  132OSM   H12F14280   3.451   4.075   7.732  0.1532 -0.6060 -2.1079
  132OSM   H12G14281   3.594   4.067   7.843 -0.0416  2.4752 -1.0478
  132OSM   C13F14282   3.494   3.871   7.810 -0.2408 -0.0575  0.3662
  132OSM   H13F14283   3.582   3.805   7.829 -1.4331 -1.6109  0.6644
  132OSM   H13G14284   3.431   3.833   7.727  1.6472 -2.2385 -0.1798
  132OSM   C14F14285   3.408   3.871   7.942 -0.6540  0.2629 -0.3342
  132OSM   H14F14286   3.378   3.767   7.971  2.1633 -0.4083  0.4767
  132OSM   H14G14287   3.313   3.919   7.912  0.8327  1.9468 -2.6675
  132OSM   C15F14288   3.466   3.951   8.065 -0.0396  0.6832 -0.0203
  132OSM   H15F14289   3.465   4.055   8.026 -2.6458  0.6908 -0.0633
  132OSM   H15G14290   3.566   3.927   8.107  1.6248 -2.9942 -5.0923
  132OSM   C16F14291   3.363   3.946   8.177  0.2299  0.9712  0.1240
  132OSM   H16F14292   3.258   3.955   8.139 -0.1109 -0.8809  0.5419
  132OSM   H16G14293   3.376   4.016   8.262  3.2314  2.3085 -1.3002
  132OSM   C17F14294   3.355   3.803   8.241  0.0901 -0.4156  1.0096
  132OSM   H17F14295   3.351   3.729   8.157  0.5210  0.6150  0.0541
  132OSM   H17G14296   3.267   3.806   8.308 -1.0174 -0.0645 -0.4144
  132OSM   C18F14297   3.485   3.767   8.331  0.3375  0.5460 -0.4903
  132OSM   H18F14298   3.514   3.857   8.389  3.3438 -0.9213  0.4650
  132OSM   H18G14299   3.568   3.740   8.263  0.0002  1.1071 -1.1443
  132OSM   H18H14300   3.460   3.691   8.407  0.6339  1.0942  0.1615
  133SAPE     N14301   1.453   1.485  11.035  0.0085 -0.1433 -0.2331
  133SAPE   HN114302   1.426   1.562  11.101  0.1165 -0.3152  0.0126
  133SAPE   HN214303   1.550   1.494  10.998 -0.9399 -0.6445 -3.0220
  133SAPE   HN314304   1.393   1.488  10.950  2.1797 -2.9681 -2.0575
  133SAPE   C1214305   1.440   1.352  11.099 -1.4157  0.3124  0.7246
  133SAPE  H12A14306   1.342   1.336  11.148 -1.2045 -3.4963  0.1627
  133SAPE  H12B14307   1.512   1.356  11.183  0.8062  2.1243 -1.1013
  133SAPE   C1114308   1.466   1.235  10.999 -0.4196 -0.1348 -0.9128
  133SAPE  H11A14309   1.439   1.145  11.059  0.4263 -0.2092 -0.6308
  133SAPE  H11B14310   1.574   1.228  10.976 -1.1293 -1.3663 -4.4392
  133SAPE     P14311   1.407   1.126  10.771 -0.3154 -0.1742  0.3144
  133SAPE   O1314312   1.310   1.021  10.804  0.5890  0.4471 -0.0331
  133SAPE   O1414313   1.398   1.183  10.636  0.4222 -0.4740 -0.1588
  133SAPE   O1214314   1.388   1.241  10.877 -0.1515  0.4211  0.3321
  133SAPE   O1114315   1.549   1.059  10.798  0.5164 -0.4932 -0.0520
  133SAPE    C114316   1.667   1.087  10.725 -0.6352  1.0225 -0.9516
  133SAPE    HA14317   1.660   1.182  10.668  0.3885  2.6171  1.4374
  133SAPE    HB14318   1.747   1.092  10.801 -2.7340 -0.9842  1.5838
  133SAPE    C214319   1.704   0.962  10.632 -0.3572 -0.0508 -0.0793
  133SAPE    HS14320   1.795   0.990  10.573 -3.2849  2.5199 -3.8328
  133SAPE   O2114321   1.602   0.947  10.533  0.7203  0.2723  0.0758
  133SAPE   C2114322   1.596   1.036  10.432  0.7824  0.0336  0.6313
  133SAPE   O2214323   1.671   1.127  10.416  0.2179 -0.6917  0.4204
  133SAPE   C2214324   1.483   0.990  10.341  0.1217 -0.0802 -0.0104
  133SAPE   H2R14325   1.503   0.886  10.307 -0.1992  0.9452 -3.8457
  133SAPE   H2S14326   1.384   0.993  10.390  0.0605  0.1336 -0.1454
  133SAPE    C314327   1.729   0.823  10.706  0.4679  0.2788 -0.1612
  133SAPE    HX14328   1.632   0.786  10.744  1.3671 -0.2853  1.7192
  133SAPE    HY14329   1.787   0.849  10.797  1.2749 -0.2763 -0.5072
  133SAPE   O3114330   1.802   0.730  10.616 -0.0883 -0.3892  0.0826
  133SAPE   C3114331   1.725   0.638  10.559 -0.4960 -0.1607  0.5323
  133SAPE   O3214332   1.609   0.620  10.575  0.9579 -0.0705 -0.3646
  133SAPE   C3214333   1.796   0.547  10.460  0.2126  0.2553 -1.1493
  133SAPE   H2X14334   1.746   0.448  10.451  1.9943 -0.6549 -1.5777
  133SAPE   H2Y14335   1.900   0.531  10.497 -0.3701  1.8151  1.4210
  133SAPE   C2314336   1.482   1.067  10.210  0.2500 -0.1009  0.5446
  133SAPE   H3R14337   1.580   1.048  10.161 -0.4389  1.8159 -1.7368
  133SAPE   H3S14338   1.478   1.177  10.225  0.1871  0.0192 -0.3028
  133SAPE   C2414339   1.364   1.019  10.117  0.7386 -0.0078 -0.1708
  133SAPE   H4R14340   1.351   1.102  10.044  1.3311 -0.6206 -0.9882
  133SAPE   H4S14341   1.284   1.028  10.193 -1.7962 -1.2128 -2.5374
  133SAPE   C2514342   1.388   0.876  10.075 -0.5480  0.5219 -0.0395
  133SAPE   H5R14343   1.360   0.802  10.151  1.6106  0.4006  0.7151
  133SAPE   C2614344   1.414   0.838   9.947  0.0933 -0.6107  0.1891
  133SAPE   H6R14345   1.417   0.732   9.919 -1.3277 -0.5777 -0.1361
  133SAPE   C2714346   1.441   0.937   9.837 -0.2471 -1.2105  0.1373
  133SAPE   H7R14347   1.476   1.029   9.889  0.9937 -0.9447 -1.1086
  133SAPE   H7S14348   1.351   0.953   9.775 -0.4572 -2.3484  0.1166
  133SAPE   C2814349   1.549   0.887   9.744 -0.3565 -1.1550 -0.4728
  133SAPE   H8R14350   1.645   0.864   9.792 -0.3415 -0.8406 -0.3534
  133SAPE   C2914351   1.530   0.867   9.610  0.0346  0.1988 -0.2457
  133SAPE   H9R14352   1.620   0.833   9.556  0.4072  0.0929  0.4338
  133SAPE  C21014353   1.413   0.888   9.521 -0.0112  0.1687  0.3045
  133SAPE  H10R14354   1.321   0.869   9.580 -2.2541  2.6684 -2.1711
  133SAPE  H10S14355   1.420   0.809   9.444 -1.2692  0.3863 -0.0454
  133SAPE  C21114356   1.404   1.027   9.461  0.3347  0.4273  0.3270
  133SAPE  H11R14357   1.465   1.101   9.516  1.0729 -0.3567  0.5894
  133SAPE  C21214358   1.330   1.059   9.358  0.3712  0.1230  0.9238
  133SAPE  H12R14359   1.355   1.159   9.321 -1.8988  0.4875  0.1973
  133SAPE  C21314360   1.233   0.979   9.268 -0.2779 -0.3090 -0.3682
  133SAPE  H13R14361   1.216   0.873   9.296 -0.5220  0.0996  1.0972
  133SAPE  H13S14362   1.294   0.968   9.176 -1.2535 -1.3600 -0.9090
  133SAPE  C21414363   1.105   1.054   9.238 -0.5919 -0.0866  0.5485
  133SAPE  H14R14364   1.034   1.025   9.317  0.7586 -2.8071  0.8572
  133SAPE  C21514365   1.078   1.137   9.128  0.1606  0.1055 -0.2762
  133SAPE  H15R14366   0.974   1.171   9.115  0.0788 -0.1900 -0.4152
  133SAPE  C21614367   1.179   1.160   9.017  0.1010  0.3806 -0.1467
  133SAPE  H16R14368   1.255   1.080   9.020 -0.2858  0.0314  0.3057
  133SAPE  H16S14369   1.243   1.250   9.032  1.6793 -0.6115 -0.7016
  133SAPE  C21714370   1.100   1.178   8.884 -0.1642  0.2366  0.2344
  133SAPE  H17R14371   1.165   1.229   8.811  0.2465  1.0506  1.1522
  133SAPE  H17S14372   1.008   1.240   8.890  0.1216  0.7646 -0.6578
  133SAPE  C21814373   1.048   1.035   8.833  0.2011 -0.1228  0.2348
  133SAPE  H18R14374   0.956   1.006   8.888  0.0544 -3.0407 -1.3287
  133SAPE  H18S14375   1.118   0.952   8.856  0.2958 -0.9367 -2.5331
  133SAPE  C21914376   1.006   1.052   8.691  0.4202  0.1665  0.2060
  133SAPE  H19R14377   0.924   1.127   8.688  0.2373 -0.0586 -0.8628
  133SAPE  H19S14378   0.945   0.967   8.653  2.6229  0.2047 -4.0065
  133SAPE  C22014379   1.119   1.077   8.584  1.1805  0.1501 -0.3787
  133SAPE  H20R14380   1.128   0.989   8.518  0.1752 -0.5195  0.3346
  133SAPE  H20S14381   1.220   1.102   8.622  0.6295  1.8136  0.0880
  133SAPE  H20T14382   1.086   1.163   8.522  1.5964 -0.3522 -1.3165
  133SAPE   C3314383   1.815   0.611  10.322  0.2057 -0.5657  0.6594
  133SAPE   H3X14384   1.879   0.701  10.329 -1.5588  0.7127  0.9479
  133SAPE   H3Y14385   1.717   0.651  10.286  1.5331  2.9816  0.6201
  133SAPE   C3414386   1.870   0.503  10.222 -0.4612  0.0188  0.2836
  133SAPE   H4X14387   1.804   0.415  10.204  0.6155 -0.9327  0.8670
  133SAPE   H4Y14388   1.959   0.462  10.275 -0.4179  0.5699  0.6445
  133SAPE   C3514389   1.930   0.562  10.086 -0.1721 -0.1746 -0.0163
  133SAPE   H5X14390   2.004   0.484  10.057  0.1841  0.5124 -1.0234
  133SAPE   H5Y14391   1.998   0.648  10.105  1.7035 -1.6335  0.2085
  133SAPE   C3614392   1.834   0.571   9.969  0.6589  0.6907 -0.5770
  133SAPE   H6X14393   1.748   0.630  10.004 -1.3925 -1.1930 -2.1305
  133SAPE   H6Y14394   1.794   0.470   9.946  0.2419  0.5217  0.8374
  133SAPE   C3714395   1.897   0.623   9.846 -0.3397  0.3946 -0.0781
  133SAPE   H7X14396   1.988   0.561   9.831 -0.6622 -0.0903 -0.0514
  133SAPE   H7Y14397   1.930   0.728   9.858 -0.8454  0.7661 -1.8072
  133SAPE   C3814398   1.806   0.601   9.720  0.2284 -0.0886 -0.8472
  133SAPE   H8X14399   1.708   0.643   9.752 -0.1689  0.8477 -3.0982
  133SAPE   H8Y14400   1.784   0.494   9.699 -2.1725  0.3273 -0.7646
  133SAPE   C3914401   1.871   0.676   9.603 -0.3323 -0.4483 -0.7070
  133SAPE   H9X14402   1.976   0.645   9.622 -0.7946 -0.1629  3.2558
  133SAPE   H9Y14403   1.855   0.785   9.614  0.8292  0.0093 -3.0666
  133SAPE  C31014404   1.827   0.619   9.463  0.5932 -0.1572  0.9697
  133SAPE  H10X14405   1.716   0.623   9.453  0.7516  3.8994 -0.6949
  133SAPE  H10Y14406   1.865   0.515   9.456  0.7465  0.0022 -0.9361
  133SAPE  C31114407   1.891   0.696   9.340  0.3679 -0.1905  0.0881
  133SAPE  H11X14408   2.000   0.679   9.350  0.4349 -2.8668 -3.3571
  133SAPE  H11Y14409   1.875   0.804   9.359 -2.0843 -0.6789  1.2142
  133SAPE  C31214410   1.851   0.666   9.196 -0.3338 -0.2987  0.3791
  133SAPE  H12X14411   1.866   0.557   9.180 -1.5044 -0.4526  0.2171
  133SAPE  H12Y14412   1.921   0.722   9.132 -1.5309  0.8934  0.0644
  133SAPE  C31314413   1.709   0.710   9.150  0.1184 -0.2259 -0.7561
  133SAPE  H13X14414   1.697   0.818   9.171  0.9621 -0.6122  2.1869
  133SAPE  H13Y14415   1.635   0.657   9.214  0.6840  0.3429  0.3894
  133SAPE  C31414416   1.679   0.691   9.000 -0.4837 -0.6739 -0.7544
  133SAPE  H14X14417   1.691   0.584   8.970 -1.4838  0.0889 -4.3822
  133SAPE  H14Y14418   1.747   0.757   8.942  0.1875  0.7858  1.5731
  133SAPE  C31514419   1.536   0.730   8.952  0.4541 -0.0351  0.2890
  133SAPE  H15X14420   1.535   0.839   8.929  1.6160 -0.1869 -0.5358
  133SAPE  H15Y14421   1.466   0.693   9.030  1.2517 -2.3726 -0.0517
  133SAPE  C31614422   1.492   0.648   8.825 -0.1640  0.1231  0.2593
  133SAPE  H16X14423   1.500   0.540   8.847  0.6631  0.3106  0.9307
  133SAPE  H16Y14424   1.575   0.672   8.755 -1.6527  2.4320 -0.8555
  133SAPE  C31714425   1.355   0.692   8.775 -0.2543  0.3588 -0.2368
  133SAPE  H17X14426   1.309   0.725   8.871  0.6416 -1.0188  0.7064
  133SAPE  H17Y14427   1.297   0.606   8.735  1.0267 -1.3080  1.2945
  133SAPE  C31814428   1.366   0.816   8.676  0.1015 -0.1336 -0.0368
  133SAPE  H18X14429   1.395   0.906   8.734  0.0867  0.7150 -1.3049
  133SAPE  H18Y14430   1.270   0.827   8.621 -2.0689  0.4447  3.5385
  133SAPE  H18Z14431   1.441   0.795   8.597 -0.5655  2.0260 -1.3259
  134SAPE     N14432   4.472   2.444  10.455  0.1297  0.1031  0.5864
  134SAPE   HN114433   4.475   2.541  10.492 -0.6229  0.3249  0.0873
  134SAPE   HN214434   4.501   2.447  10.355 -1.6110 -1.2440 -0.0194
  134SAPE   HN314435   4.373   2.413  10.462  0.0786  0.3203  0.8226
  134SAPE   C1214436   4.570   2.369  10.540  0.7065 -0.4344  0.4064
  134SAPE  H12A14437   4.537   2.263  10.542 -1.5113  0.1874 -0.0103
  134SAPE  H12B14438   4.557   2.408  10.643 -0.4005  1.6754 -0.4677
  134SAPE   C1114439   4.714   2.395  10.485 -0.1174  0.5165  0.2663
  134SAPE  H11A14440   4.722   2.365  10.379 -1.1902 -2.2551  0.8887
  134SAPE  H11B14441   4.786   2.320  10.527  0.1026 -0.5265 -1.8489
  134SAPE     P14442   4.835   2.581  10.628 -0.3630 -0.3445  0.0181
  134SAPE   O1314443   4.753   2.564  10.752 -0.1495  0.1049  0.6628
  134SAPE   O1414444   4.965   2.518  10.619  0.3824  0.1293  0.6810
  134SAPE   O1214445   4.758   2.526  10.496  0.3893  0.2743 -0.0404
  134SAPE   O1114446   4.861   2.739  10.591  0.1841 -0.1410 -0.2145
  134SAPE    C114447   4.771   2.807  10.505 -1.2359 -0.0908  0.3565
  134SAPE    HA14448   4.691   2.748  10.454  0.8480 -1.4026 -1.6024
  134SAPE    HB14449   4.727   2.896  10.554 -0.7817  0.1862  0.2616
  134SAPE    C214450   4.852   2.870  10.381  0.4680  0.3533  0.7293
  134SAPE    HS14451   4.908   2.959  10.416  0.8700  1.0558 -1.5115
  134SAPE   O2114452   4.753   2.913  10.282 -0.6995 -0.4760 -0.5637
  134SAPE   C2114453   4.774   3.014  10.214  0.3434  0.1796  0.9425
  134SAPE   O2214454   4.872   3.089  10.209 -0.0205  0.3020 -0.6190
  134SAPE   C2214455   4.647   3.023  10.123  0.0478  0.0659 -0.2758
  134SAPE   H2R14456   4.640   2.936  10.054 -4.3115  0.0363 -0.1100
  134SAPE   H2S14457   4.556   3.030  10.187 -1.3126 -0.6596 -2.0325
  134SAPE    C314458   4.952   2.768  10.314 -0.8442  0.5588  0.8509
  134SAPE    HX14459   4.890   2.682  10.277  1.6582 -1.5671  1.3011
  134SAPE    HY14460   5.006   2.724  10.400  1.1794 -1.0448 -1.1291
  134SAPE   O3114461   5.048   2.822  10.224  0.1333  0.6826  0.0639
  134SAPE   C3114462   5.018   2.816  10.096 -0.1587  0.4805  0.3398
  134SAPE   O3214463   4.906   2.787  10.053  0.5010  0.4217  0.0517
  134SAPE   C3214464   5.136   2.848   9.997  0.3199  0.4233 -0.5807
  134SAPE   H2X14465   5.218   2.776  10.014  2.4816  3.3652  2.7411
  134SAPE   H2Y14466   5.195   2.935  10.034  0.0243 -0.1717  1.3589
  134SAPE   C2314467   4.650   3.149  10.033  0.3964 -0.2197  0.4235
  134SAPE   H3R14468   4.726   3.149   9.952  1.3996  3.2070  1.1809
  134SAPE   H3S14469   4.672   3.236  10.100  3.3629  0.1455 -0.8620
  134SAPE   C2414470   4.511   3.186   9.979  0.0310  0.4521  0.6857
  134SAPE   H4R14471   4.515   3.285   9.929  1.4821 -1.2116 -2.8721
  134SAPE   H4S14472   4.440   3.194  10.064  0.5136 -0.6563  1.2155
  134SAPE   C2514473   4.477   3.081   9.870  0.0001 -0.2397 -0.6146
  134SAPE   H5R14474   4.458   2.982   9.915  0.0728 -0.4479 -1.0383
  134SAPE   C2614475   4.469   3.098   9.736 -0.3069 -0.3379 -0.8706
  134SAPE   H6R14476   4.443   3.005   9.682  0.9787 -0.8266 -0.6923
  134SAPE   C2714477   4.469   3.221   9.658  1.2555 -0.9846 -0.2766
  134SAPE   H7R14478   4.438   3.311   9.716 -1.5414 -1.3502 -1.0492
  134SAPE   H7S14479   4.392   3.206   9.580  0.1944  1.0970  0.2977
  134SAPE   C2814480   4.604   3.242   9.592 -0.0417 -0.4167 -0.2160
  134SAPE   H8R14481   4.685   3.258   9.665  1.0719 -0.2209 -1.4644
  134SAPE   C2914482   4.622   3.238   9.456  0.1685 -0.0977 -0.2608
  134SAPE   H9R14483   4.716   3.277   9.414 -0.1431  1.2927  0.2773
  134SAPE  C21014484   4.521   3.221   9.345 -0.0960  0.0581  0.6781
  134SAPE  H10R14485   4.451   3.140   9.375  1.8349 -1.4259  1.3143
  134SAPE  H10S14486   4.577   3.180   9.258  2.0192 -1.1851  2.5506
  134SAPE  C21114487   4.420   3.332   9.300 -0.0044  0.2659 -0.1714
  134SAPE  H11R14488   4.358   3.373   9.381 -2.9595 -0.1298 -2.0758
  134SAPE  C21214489   4.389   3.380   9.178  0.0254 -0.0385  0.1963
  134SAPE  H12R14490   4.331   3.471   9.159 -1.4525 -0.9612  0.0533
  134SAPE  C21314491   4.448   3.336   9.044 -0.0157 -0.5471 -0.2692
  134SAPE  H13R14492   4.362   3.323   8.975  0.7035 -1.9419 -0.9426
  134SAPE  H13S14493   4.508   3.245   9.066 -1.9951 -1.1772  3.3363
  134SAPE  C21414494   4.523   3.453   8.981 -0.8031 -0.5089 -0.3858
  134SAPE  H14R14495   4.620   3.477   9.027 -1.2996 -0.0888  0.4548
  134SAPE  C21514496   4.491   3.519   8.873 -0.9799  0.4657 -0.1949
  134SAPE  H15R14497   4.562   3.594   8.837 -1.9742  1.9716  0.8848
  134SAPE  C21614498   4.376   3.491   8.776  0.1821 -0.6678  0.1059
  134SAPE  H16R14499   4.346   3.585   8.724  1.0538 -1.1724 -1.3743
  134SAPE  H16S14500   4.285   3.457   8.830  0.5927 -2.4303 -0.2583
  134SAPE  C21714501   4.423   3.395   8.670  0.7119  0.1252  0.0364
  134SAPE  H17R14502   4.459   3.302   8.720 -1.8779 -1.3990 -0.7650
  134SAPE  H17S14503   4.508   3.431   8.609  0.3989 -3.3943 -2.8378
  134SAPE  C21814504   4.315   3.349   8.574  0.1837 -0.3698 -0.2436
  134SAPE  H18R14505   4.275   3.427   8.506  0.9781 -1.7525 -2.3977
  134SAPE  H18S14506   4.221   3.313   8.620 -0.1802  0.2960 -0.4522
  134SAPE  C21914507   4.364   3.248   8.469 -0.9557 -0.2831 -0.5861
  134SAPE  H19R14508   4.394   3.151   8.513  0.6438 -0.1526 -1.3329
  134SAPE  H19S14509   4.461   3.276   8.423 -1.4110  0.0757 -1.3496
  134SAPE  C22014510   4.262   3.220   8.362 -1.0141  0.0210  1.3383
  134SAPE  H20R14511   4.206   3.309   8.326 -0.3337 -0.3071 -0.6372
  134SAPE  H20S14512   4.186   3.145   8.392 -2.0985  0.3492 -0.4610
  134SAPE  H20T14513   4.314   3.191   8.268 -1.0163  1.3744  0.8921
  134SAPE   C3314514   5.102   2.860   9.843 -0.1242 -0.0153  0.2629
  134SAPE   H3X14515   5.029   2.943   9.823 -0.2103 -0.1957 -0.1819
  134SAPE   H3Y14516   5.057   2.761   9.819  0.9337 -0.7828  1.3488
  134SAPE   C3414517   5.233   2.878   9.760  0.3025 -0.3390  0.0558
  134SAPE   H4X14518   5.330   2.861   9.813  1.4410  1.7093 -1.2205
  134SAPE   H4Y14519   5.252   2.985   9.734 -0.9189 -0.1783 -0.2173
  134SAPE   C3514520   5.240   2.787   9.641  0.1249  0.0424  0.2754
  134SAPE   H5X14521   5.220   2.680   9.659  0.8627 -0.1002  0.2775
  134SAPE   H5Y14522   5.341   2.793   9.595 -1.3295 -0.8510 -3.3762
  134SAPE   C3614523   5.152   2.835   9.530 -0.1170  0.0812  0.1171
  134SAPE   H6X14524   5.160   2.942   9.505  0.4323 -0.4761 -2.3485
  134SAPE   H6Y14525   5.047   2.815   9.560  0.1400 -0.7105  0.5269
  134SAPE   C3714526   5.174   2.749   9.400 -0.3743 -0.2028  0.3981
  134SAPE   H7X14527   5.148   2.643   9.423 -2.9042  0.0823 -0.7212
  134SAPE   H7Y14528   5.282   2.758   9.376  0.6020 -0.7071  4.0349
  134SAPE   C3814529   5.079   2.798   9.291 -0.1463  0.6055 -0.2449
  134SAPE   H8X14530   5.103   2.900   9.256  1.4695  0.5810  0.6859
  134SAPE   H8Y14531   4.969   2.802   9.310 -0.1993  0.7457 -0.5838
  134SAPE   C3914532   5.105   2.703   9.171  0.4083 -0.2467  0.4043
  134SAPE   H9X14533   5.082   2.603   9.213 -4.1186  0.1678 -0.5669
  134SAPE   H9Y14534   5.211   2.685   9.145 -0.2409 -4.3858 -0.1059
  134SAPE  C31014535   5.016   2.724   9.050 -0.1517  0.6287  0.6024
  134SAPE  H10X14536   5.024   2.824   9.002  0.5397  0.2542 -0.0762
  134SAPE  H10Y14537   4.912   2.713   9.088 -0.2116  3.0264  1.2487
  134SAPE  C31114538   5.040   2.630   8.935 -0.4734  0.2288  0.0138
  134SAPE  H11X14539   5.044   2.534   8.992 -0.3502  1.1548  1.6481
  134SAPE  H11Y14540   5.139   2.662   8.896 -1.3210  2.1285 -0.6614
  134SAPE  C31214541   4.935   2.634   8.825  0.4619 -0.8282 -0.4708
  134SAPE  H12X14542   4.940   2.732   8.773  3.9915 -1.8136 -2.3074
  134SAPE  H12Y14543   4.837   2.618   8.875  1.1198 -1.2784  0.7106
  134SAPE  C31314544   4.973   2.533   8.715  0.2495  0.1146  0.4535
  134SAPE  H13X14545   4.976   2.427   8.749 -1.0883  0.6038  2.2833
  134SAPE  H13Y14546   5.069   2.575   8.680  1.1592 -0.9959  1.5368
  134SAPE  C31414547   4.863   2.536   8.603 -0.0369  0.4208  0.1988
  134SAPE  H14X14548   4.820   2.638   8.595 -0.9251 -0.0833 -2.4456
  134SAPE  H14Y14549   4.785   2.461   8.626  1.3336 -1.2658 -0.4097
  134SAPE  C31514550   4.910   2.518   8.459  0.2580  0.2095 -0.6358
  134SAPE  H15X14551   4.930   2.410   8.438 -2.5482 -0.5161  0.0026
  134SAPE  H15Y14552   5.008   2.567   8.448  0.2448  1.0311  2.2790
  134SAPE  C31614553   4.818   2.566   8.347  0.7831 -0.3387 -0.0128
  134SAPE  H16X14554   4.774   2.663   8.378 -1.2633 -0.8965 -0.9609
  134SAPE  H16Y14555   4.724   2.505   8.343 -0.8186  1.7495  2.6063
  134SAPE  C31714556   4.874   2.593   8.206  0.9661 -0.1843  1.0149
  134SAPE  H17X14557   4.927   2.502   8.171 -1.8500 -1.1081 -1.2943
  134SAPE  H17Y14558   4.944   2.680   8.209  0.5961  0.1167  1.0881
  134SAPE  C31814559   4.754   2.623   8.109 -0.0815 -0.3566 -0.4226
  134SAPE  H18X14560   4.714   2.724   8.133 -0.6710 -0.8272  0.6898
  134SAPE  H18Y14561   4.671   2.549   8.119 -2.3873  2.3765  3.1056
  134SAPE  H18Z14562   4.799   2.609   8.009 -1.8713  0.4698 -1.3803
  135SAPE     N14563   4.097   6.388  10.944  0.3537 -0.4048  0.1624
  135SAPE   HN114564   4.143   6.300  10.975 -0.3732 -0.1245  2.1422
  135SAPE   HN214565   4.150   6.473  10.973  0.7329 -0.8562  0.8051
  135SAPE   HN314566   4.001   6.390  10.982  0.3730 -0.3607  0.2110
  135SAPE   C1214567   4.104   6.380  10.786 -0.2674  0.2972  0.0025
  135SAPE  H12A14568   4.093   6.270  10.773  1.9516  0.0225  0.1647
  135SAPE  H12B14569   4.208   6.402  10.755 -0.5424  2.5889  0.5497
  135SAPE   C1114570   4.006   6.478  10.729 -0.0657  0.4477  0.4802
  135SAPE  H11A14571   3.904   6.435  10.740 -0.0168 -0.4895 -1.9501
  135SAPE  H11B14572   4.015   6.470  10.618 -0.7267  1.5151  0.3423
  135SAPE     P14573   4.140   6.714  10.723  0.1318 -0.0686  0.5167
  135SAPE   O1314574   4.111   6.854  10.770  0.2785  0.6774 -0.4187
  135SAPE   O1414575   4.271   6.653  10.755  0.4079 -0.5721 -0.2715
  135SAPE   O1214576   4.024   6.614  10.771 -0.2824 -0.1637  0.0325
  135SAPE   O1114577   4.115   6.719  10.571  0.2304  0.5509  0.4600
  135SAPE    C114578   4.004   6.769  10.501  0.3233  0.1409 -0.5293
  135SAPE    HA14579   3.919   6.698  10.500  1.2188 -0.9970  0.9147
  135SAPE    HB14580   3.967   6.864  10.547  1.8140  0.1011  0.8464
  135SAPE    C214581   4.039   6.801  10.359 -1.3148  0.1156  0.0259
  135SAPE    HS14582   3.965   6.867  10.308  0.3586  1.1650 -1.1801
  135SAPE   O2114583   4.053   6.678  10.284 -0.9002  0.3363  0.7254
  135SAPE   C2114584   3.941   6.619  10.229  0.2990 -0.7922 -0.0832
  135SAPE   O2214585   3.830   6.673  10.227 -0.0691 -0.0944  0.2284
  135SAPE   C2214586   3.983   6.480  10.187  0.0165 -0.1859 -0.4030
  135SAPE   H2R14587   4.088   6.487  10.151 -0.4521 -2.2354 -2.3743
  135SAPE   H2S14588   3.981   6.416  10.277 -0.9624  0.6803  0.2167
  135SAPE    C314589   4.183   6.866  10.355  0.1809 -0.2881 -0.8405
  135SAPE    HX14590   4.257   6.795  10.399  0.9992  0.7629 -0.4694
  135SAPE    HY14591   4.172   6.952  10.425 -0.7211 -1.7912  0.9431
  135SAPE   O3114592   4.229   6.908  10.228 -0.0080  0.5870  0.4624
  135SAPE   C3114593   4.201   7.026  10.180 -0.1619  0.2071  1.0730
  135SAPE   O3214594   4.130   7.110  10.234  0.4908  0.8543  0.2018
  135SAPE   C3214595   4.275   7.057  10.043 -0.3939  0.3877  0.5549
  135SAPE   H2X14596   4.200   7.117   9.987  0.7276 -0.2390 -1.7397
  135SAPE   H2Y14597   4.299   6.963   9.989 -0.0587  0.6176  0.2986
  135SAPE   C2314598   3.893   6.419  10.077  0.0200  0.0718 -0.1791
  135SAPE   H3R14599   3.790   6.442  10.113  0.2266 -0.3333  0.6848
  135SAPE   H3S14600   3.901   6.309  10.067 -0.7374  0.0634 -0.8630
  135SAPE   C2414601   3.909   6.482   9.935  0.6972  0.7767 -0.6063
  135SAPE   H4R14602   3.905   6.593   9.945  0.4077  0.6108  1.5959
  135SAPE   H4S14603   3.837   6.453   9.857  1.6102  1.5147 -1.7654
  135SAPE   C2514604   4.053   6.458   9.885  0.6283 -0.7540  0.3251
  135SAPE   H5R14605   4.100   6.362   9.910  1.3835  0.3626  3.6321
  135SAPE   C2614606   4.127   6.543   9.806 -0.3835  1.6446 -0.5658
  135SAPE   H6R14607   4.217   6.499   9.761 -0.4680  0.8896 -0.0226
  135SAPE   C2714608   4.069   6.674   9.753 -0.2848  0.1171 -0.4171
  135SAPE   H7R14609   3.963   6.665   9.724 -0.8177  0.7332  1.1907
  135SAPE   H7S14610   4.107   6.705   9.653 -1.0856 -0.4948 -0.9156
  135SAPE   C2814611   4.078   6.794   9.847 -0.0957 -0.3532  0.2210
  135SAPE   H8R14612   4.109   6.781   9.951 -0.4685  1.7584  0.6378
  135SAPE   C2914613   4.058   6.920   9.800 -0.0344  0.4497 -0.4174
  135SAPE   H9R14614   4.040   7.000   9.874  0.9294  1.0837 -0.8536
  135SAPE  C21014615   4.035   6.963   9.654 -0.0649  0.6112 -0.6046
  135SAPE  H10R14616   3.947   6.910   9.612  0.2486  0.0778 -0.6052
  135SAPE  H10S14617   4.116   6.913   9.597  1.3703  1.2167  0.8101
  135SAPE  C21114618   4.047   7.111   9.626 -0.3504 -0.8145  0.1565
  135SAPE  H11R14619   4.041   7.186   9.706  2.5255  0.5456 -0.7756
  135SAPE  C21214620   4.059   7.165   9.500 -0.3770 -0.7339  0.1010
  135SAPE  H12R14621   4.063   7.274   9.484  1.1483 -0.8077 -0.1886
  135SAPE  C21314622   4.051   7.087   9.370 -0.4930 -0.8074 -0.0109
  135SAPE  H13R14623   3.970   7.123   9.303  0.5909  0.0248 -0.9136
  135SAPE  H13S14624   4.002   6.990   9.396 -3.5998  0.2560 -1.3337
  135SAPE  C21414625   4.186   7.073   9.300  0.2475  0.0385  0.1454
  135SAPE  H14R14626   4.266   7.058   9.373  0.4904  1.1731  0.1344
  135SAPE  C21514627   4.217   7.098   9.171  0.1337 -0.0802  0.0095
  135SAPE  H15R14628   4.323   7.088   9.144  0.3618  1.1301  0.3984
  135SAPE  C21614629   4.135   7.151   9.062  0.3580  0.0115  1.0247
  135SAPE  H16R14630   4.181   7.247   9.031  1.5502 -0.3192  1.7199
  135SAPE  H16S14631   4.033   7.175   9.098  0.0905 -2.0090  1.7205
  135SAPE  C21714632   4.129   7.076   8.924  0.3119  0.3207  0.2219
  135SAPE  H17R14633   4.228   7.036   8.894 -0.0557 -0.2562 -0.2287
  135SAPE  H17S14634   4.086   7.142   8.846  1.7348 -1.4008 -2.1328
  135SAPE  C21814635   4.029   6.948   8.926 -0.7929 -0.4524  0.0760
  135SAPE  H18R14636   3.930   6.975   8.968 -1.4169 -1.2301 -0.8644
  135SAPE  H18S14637   4.090   6.875   8.983  2.8870  1.4293 -1.1140
  135SAPE  C21914638   4.021   6.889   8.782 -0.0319 -0.3567  0.0041
  135SAPE  H19R14639   3.962   6.950   8.711  2.7434  2.6859  0.0882
  135SAPE  H19S14640   3.962   6.795   8.785  1.6399 -1.5536 -1.8724
  135SAPE  C22014641   4.155   6.846   8.725  0.3340  0.4752 -0.0769
  135SAPE  H20R14642   4.143   6.790   8.629 -0.0191 -0.8758  0.7251
  135SAPE  H20S14643   4.225   6.792   8.791  0.1225  1.2410  0.7851
  135SAPE  H20T14644   4.216   6.933   8.693  0.5583  0.1307 -0.6033
  135SAPE   C3314645   4.401   7.147  10.065  0.1561 -0.5856 -0.5193
  135SAPE   H3X14646   4.466   7.095  10.138 -0.5327 -1.9322 -0.8375
  135SAPE   H3Y14647   4.376   7.248  10.106  1.4021  0.5891 -2.4800
  135SAPE   C3414648   4.478   7.175   9.939  1.0307  0.5829 -0.0618
  135SAPE   H4X14649   4.418   7.243   9.875  0.7687  1.2062  0.8241
  135SAPE   H4Y14650   4.513   7.091   9.876  0.9199  0.8050 -0.4255
  135SAPE   C3514651   4.603   7.260   9.966  0.5043 -0.7437  0.0562
  135SAPE   H5X14652   4.659   7.226  10.056 -1.1008  0.7731  1.7060
  135SAPE   H5Y14653   4.570   7.361   9.998  1.2845 -0.8494  1.2521
  135SAPE   C3614654   4.696   7.285   9.850 -0.3058 -0.3415  0.7594
  135SAPE   H6X14655   4.637   7.288   9.755  0.0572  0.0790  0.5432
  135SAPE   H6Y14656   4.770   7.204   9.833 -0.5356  0.0445 -2.8169
  135SAPE   C3714657   4.771   7.421   9.855 -0.2888  0.2839 -0.2179
  135SAPE   H7X14658   4.837   7.416   9.943  0.2377 -0.8657 -0.6588
  135SAPE   H7Y14659   4.697   7.503   9.870 -0.4107  0.0587  0.4078
  135SAPE   C3814660   4.851   7.450   9.728  0.1431 -0.2868 -0.1476
  135SAPE   H8X14661   4.790   7.525   9.673  0.6870  0.6584  0.5078
  135SAPE   H8Y14662   4.864   7.354   9.674 -0.0716  0.2974 -1.2730
  135SAPE   C3914663   4.989   7.523   9.764  0.4163  0.2129 -0.4673
  135SAPE   H9X14664   5.048   7.458   9.832 -0.2868  0.4745  0.3987
  135SAPE   H9Y14665   4.983   7.618   9.821 -1.0863 -2.3117  4.1030
  135SAPE  C31014666   5.071   7.560   9.635  0.2415 -0.6089 -0.2607
  135SAPE  H10X14667   5.087   7.471   9.570 -1.9378 -0.6173 -0.8574
  135SAPE  H10Y14668   5.177   7.582   9.660  0.0515  0.6564 -0.4796
  135SAPE  C31114669   5.014   7.679   9.558  0.3613  0.1326  0.3211
  135SAPE  H11X14670   5.046   7.777   9.600  0.1961 -0.3317  1.5575
  135SAPE  H11Y14671   4.904   7.685   9.557  0.3721  0.3134 -0.0120
  135SAPE  C31214672   5.054   7.679   9.406 -0.7618 -0.8033  0.5160
  135SAPE  H12X14673   5.163   7.668   9.389 -0.6783  0.6104 -0.0711
  135SAPE  H12Y14674   5.029   7.780   9.366 -1.1218 -0.2015  2.1429
  135SAPE  C31314675   4.973   7.579   9.316 -0.1891 -0.0572  0.4088
  135SAPE  H13X14676   4.869   7.584   9.354  1.1050  1.3950  4.2653
  135SAPE  H13Y14677   5.007   7.479   9.348 -1.5733 -0.9521 -0.7721
  135SAPE  C31414678   4.992   7.586   9.162  0.3060  0.0754 -0.4462
  135SAPE  H14X14679   5.103   7.586   9.156  0.2877 -0.0101 -0.8100
  135SAPE  H14Y14680   4.942   7.676   9.120  3.2359  1.2897 -1.5819
  135SAPE  C31514681   4.941   7.468   9.076 -0.2966  1.1079  0.7202
  135SAPE  H15X14682   4.833   7.443   9.085 -0.1814  0.1516 -0.2944
  135SAPE  H15Y14683   4.997   7.378   9.109 -1.0399  0.6501  0.7428
  135SAPE  C31614684   4.985   7.495   8.929 -0.3306  0.1481 -0.7507
  135SAPE  H16X14685   4.996   7.407   8.862  2.1035 -0.0371 -0.1748
  135SAPE  H16Y14686   5.087   7.536   8.944 -0.8389  0.9948  0.6254
  135SAPE  C31714687   4.913   7.617   8.868 -0.1675  0.0675  0.1273
  135SAPE  H17X14688   4.946   7.703   8.930  0.3315 -0.5101  0.6913
  135SAPE  H17Y14689   4.803   7.609   8.873 -0.1968 -0.3677 -0.9697
  135SAPE  C31814690   4.948   7.641   8.721 -0.2456  0.1404 -0.4736
  135SAPE  H18X14691   4.934   7.546   8.665  0.0348 -0.3309  0.2285
  135SAPE  H18Y14692   5.053   7.675   8.708  0.7669 -1.7363  1.9627
  135SAPE  H18Z14693   4.877   7.719   8.688  0.9668  1.1497 -0.7800
  136SAPE     N14694   5.713   0.599  11.293  0.4638  0.0160  0.7430
  136SAPE   HN114695   5.706   0.581  11.191  3.0810 -2.1694  0.8323
  136SAPE   HN214696   5.623   0.558  11.323 -0.9470  1.7311 -0.9167
  136SAPE   HN314697   5.706   0.702  11.307  0.0008 -0.0298  0.8466
  136SAPE   C1214698   5.837   0.538  11.341  0.2264  0.1446 -0.2461
  136SAPE  H12A14699   5.828   0.429  11.323 -0.2490  0.2712 -0.7929
  136SAPE  H12B14700   5.833   0.560  11.450 -0.2193 -0.8367 -0.0488
  136SAPE   C1114701   5.966   0.583  11.275 -0.0887 -0.4377  0.7418
  136SAPE  H11A14702   6.047   0.516  11.310  2.1210  1.3988 -0.5515
  136SAPE  H11B14703   6.001   0.680  11.318  1.5787 -0.1569 -1.0930
  136SAPE     P14704   6.010   0.455  11.047 -0.2404 -0.1460 -0.2485
  136SAPE   O1314705   6.142   0.470  10.979  0.2933  0.4694  0.0935
  136SAPE   O1414706   6.000   0.345  11.143  0.1478 -0.6169  0.6640
  136SAPE   O1214707   5.963   0.585  11.133 -0.0026 -0.3236 -0.0107
  136SAPE   O1114708   5.902   0.450  10.932 -0.6151  0.5335  0.0708
  136SAPE    C114709   5.895   0.336  10.844 -0.2353  0.2552  0.6388
  136SAPE    HA14710   5.989   0.277  10.851 -0.9864 -0.7632  3.1997
  136SAPE    HB14711   5.828   0.253  10.876  1.0923 -0.7386  0.9591
  136SAPE    C214712   5.871   0.377  10.701  0.8254  0.5864 -0.5409
  136SAPE    HS14713   5.896   0.295  10.630  0.2530 -0.9853  0.9894
  136SAPE   O2114714   5.954   0.491  10.667 -0.0055 -0.3860  0.9867
  136SAPE   C2114715   6.085   0.476  10.662  0.1608 -0.3247 -0.2678
  136SAPE   O2214716   6.142   0.377  10.701 -0.4332 -0.1039 -0.6169
  136SAPE   C2214717   6.151   0.591  10.588  0.3927  0.0215  0.3769
  136SAPE   H2R14718   6.156   0.676  10.659  1.2926  0.1478  0.1721
  136SAPE   H2S14719   6.256   0.562  10.566  0.2229  0.3338 -0.9389
  136SAPE    C314720   5.717   0.394  10.674  0.5420  0.3414  0.5992
  136SAPE    HX14721   5.682   0.473  10.745  0.3808  1.4026 -0.6269
  136SAPE    HY14722   5.663   0.299  10.697  0.5476  0.5937  1.7557
  136SAPE   O3114723   5.699   0.439  10.542  0.0643  0.7159  0.2660
  136SAPE   C3114724   5.701   0.565  10.509 -0.3706  0.1596 -0.0174
  136SAPE   O3214725   5.715   0.656  10.586  0.3854 -0.2187 -1.3350
  136SAPE   C3214726   5.663   0.594  10.362 -0.1329 -0.0918 -0.1535
  136SAPE   H2X14727   5.557   0.560  10.357 -0.4538  1.0185 -2.0786
  136SAPE   H2Y14728   5.720   0.528  10.293  0.9661 -0.3032  0.9364
  136SAPE   C2314729   6.090   0.611  10.451 -0.1133 -0.5068 -0.2290
  136SAPE   H3R14730   5.979   0.613  10.444 -0.2108 -0.8518  1.0815
  136SAPE   H3S14731   6.119   0.524  10.388  1.2838 -1.1100  1.1731
  136SAPE   C2414732   6.140   0.735  10.378 -0.0557 -0.7709 -0.1821
  136SAPE   H4R14733   6.145   0.821  10.448 -0.9692 -2.7636  2.4955
  136SAPE   H4S14734   6.065   0.755  10.299  1.9801  0.4799 -1.8987
  136SAPE   C2514735   6.277   0.706  10.316 -0.1301  0.3797 -0.1155
  136SAPE   H5R14736   6.365   0.723  10.381 -1.1064  2.5420  0.7514
  136SAPE   C2614737   6.292   0.667  10.187  0.0168 -0.1250 -0.5417
  136SAPE   H6R14738   6.392   0.639  10.151  0.0189 -1.1412  0.2043
  136SAPE   C2714739   6.186   0.639  10.085 -0.6700  0.6340  0.1460
  136SAPE   H7R14740   6.087   0.610  10.127 -1.2063  1.9565 -0.1347
  136SAPE   H7S14741   6.212   0.553  10.021 -3.1252  0.4947 -0.7817
  136SAPE   C2814742   6.170   0.767  10.006  0.1471 -0.4734 -0.2760
  136SAPE   H8R14743   6.128   0.851  10.063  0.4378 -0.4183 -0.1410
  136SAPE   C2914744   6.205   0.780   9.876 -0.6018  0.0472  0.3408
  136SAPE   H9R14745   6.188   0.880   9.833  1.8182  0.5183  0.3420
  136SAPE  C21014746   6.274   0.674   9.794  0.3142  0.4083 -0.1686
  136SAPE  H10R14747   6.201   0.606   9.747  1.0475 -0.5367  0.0281
  136SAPE  H10S14748   6.332   0.602   9.856 -0.2261 -1.8859 -2.1977
  136SAPE  C21114749   6.367   0.729   9.692  0.9740 -0.6319 -0.0263
  136SAPE  H11R14750   6.468   0.752   9.729  0.8671 -0.0226 -0.1061
  136SAPE  C21214751   6.352   0.746   9.559  0.1237 -1.0058  0.6452
  136SAPE  H12R14752   6.446   0.763   9.504  0.6841  0.2437  1.9422
  136SAPE  C21314753   6.222   0.727   9.480 -0.1246  0.4752 -0.2584
  136SAPE  H13R14754   6.132   0.746   9.541  1.0454  1.9967  1.0933
  136SAPE  H13S14755   6.222   0.627   9.431 -0.1002  0.5331 -0.3779
  136SAPE  C21414756   6.199   0.822   9.370  0.1063  0.4160  0.3705
  136SAPE  H14R14757   6.146   0.916   9.392 -0.7566 -0.3176  1.5497
  136SAPE  C21514758   6.244   0.802   9.241 -0.1642  0.0810  0.4135
  136SAPE  H15R14759   6.218   0.884   9.173  0.7350 -0.5456 -0.7135
  136SAPE  C21614760   6.319   0.676   9.185 -0.1004 -0.4495 -0.4656
  136SAPE  H16R14761   6.326   0.583   9.245  1.8934 -1.1526 -1.6642
  136SAPE  H16S14762   6.423   0.709   9.163 -0.8283  3.9701  1.6630
  136SAPE  C21714763   6.275   0.625   9.046  0.3735 -0.2157  0.6744
  136SAPE  H17R14764   6.168   0.607   9.069  0.1702  0.4982  0.3184
  136SAPE  H17S14765   6.330   0.531   9.025 -1.7864 -1.4333  0.1906
  136SAPE  C21814766   6.280   0.724   8.939 -0.3348 -0.5221 -0.2724
  136SAPE  H18R14767   6.379   0.773   8.947 -1.5361  2.2434 -0.8947
  136SAPE  H18S14768   6.208   0.809   8.952 -0.3137 -0.5300 -0.1067
  136SAPE  C21914769   6.244   0.649   8.809  0.0900  0.6440  0.0670
  136SAPE  H19R14770   6.136   0.624   8.800 -0.2858  1.9887  0.5330
  136SAPE  H19S14771   6.286   0.546   8.808 -1.0550  0.1585 -1.6627
  136SAPE  C22014772   6.271   0.731   8.691 -0.5134 -0.2534  0.3277
  136SAPE  H20R14773   6.380   0.724   8.669 -0.6867 -2.2424 -0.0237
  136SAPE  H20S14774   6.237   0.835   8.710 -2.3030  0.4352 -5.0258
  136SAPE  H20T14775   6.221   0.689   8.601 -0.6414  1.6969 -0.5634
  136SAPE   C3314776   5.690   0.732  10.310  0.0008  0.2046 -0.4513
  136SAPE   H3X14777   5.798   0.743  10.332 -0.3671  2.3258  0.5530
  136SAPE   H3Y14778   5.649   0.803  10.385 -0.1869 -0.1636 -0.2009
  136SAPE   C3414779   5.654   0.767  10.166 -0.8982 -0.0728  0.6169
  136SAPE   H4X14780   5.549   0.803  10.158 -0.5967  0.6624 -0.2667
  136SAPE   H4Y14781   5.652   0.682  10.094 -2.3738  0.8562 -0.5129
  136SAPE   C3514782   5.740   0.884  10.116 -0.3781 -0.1952  0.5487
  136SAPE   H5X14783   5.843   0.844  10.115  0.2219  1.1787 -1.8569
  136SAPE   H5Y14784   5.743   0.968  10.190  0.9319 -0.4570  0.8153
  136SAPE   C3614785   5.700   0.936   9.975  0.9140 -0.0826 -0.5648
  136SAPE   H6X14786   5.602   0.987   9.984  0.1741 -1.6641  1.0582
  136SAPE   H6Y14787   5.690   0.842   9.916  1.7924 -0.1438 -0.6301
  136SAPE   C3714788   5.802   1.013   9.901 -0.9242 -0.4442  1.3345
  136SAPE   H7X14789   5.887   0.942   9.903 -0.3674  0.1244 -0.5474
  136SAPE   H7Y14790   5.828   1.108   9.951  0.3286 -0.3060  0.4668
  136SAPE   C3814791   5.771   1.050   9.754 -0.4136 -0.1627  0.4386
  136SAPE   H8X14792   5.691   1.126   9.761 -0.0580  0.1458  1.3838
  136SAPE   H8Y14793   5.735   0.958   9.703  1.8441 -1.5827  1.2263
  136SAPE   C3914794   5.890   1.096   9.668 -0.3680  0.0411 -0.2575
  136SAPE   H9X14795   5.965   1.014   9.666 -0.1390  0.2216  0.5908
  136SAPE   H9Y14796   5.924   1.193   9.709  1.9558 -0.5117 -0.7485
  136SAPE  C31014797   5.849   1.141   9.524 -0.8905 -0.4205  0.6410
  136SAPE  H10X14798   5.767   1.215   9.535  0.4112  1.0794  0.5337
  136SAPE  H10Y14799   5.810   1.052   9.469  0.3115 -0.1276 -0.7423
  136SAPE  C31114800   5.968   1.195   9.435  0.7334 -0.0706 -0.8347
  136SAPE  H11X14801   6.048   1.118   9.435  1.9301  1.0802  0.9737
  136SAPE  H11Y14802   6.003   1.296   9.466 -1.5135  0.8235 -1.0485
  136SAPE  C31214803   5.937   1.199   9.285  0.0154  0.0858  0.0821
  136SAPE  H12X14804   6.020   1.261   9.244  0.2625 -0.4887 -0.2847
  136SAPE  H12Y14805   5.842   1.250   9.258 -1.0973 -2.0811 -0.3221
  136SAPE  C31314806   5.947   1.062   9.218  0.4648 -0.7627  0.6887
  136SAPE  H13X14807   5.867   1.006   9.272 -2.6578  3.2991  0.7373
  136SAPE  H13Y14808   6.044   1.015   9.245  0.2905  0.1706  3.2547
  136SAPE  C31414809   5.915   1.050   9.067  0.2983 -0.3468 -0.3670
  136SAPE  H14X14810   5.804   1.062   9.059  0.5699  4.2740 -0.0245
  136SAPE  H14Y14811   5.941   0.944   9.048 -0.3104 -0.2853 -1.6433
  136SAPE  C31514812   5.995   1.135   8.967  0.7850  0.0716 -0.7133
  136SAPE  H15X14813   6.103   1.125   8.987  0.4245 -3.4353  0.2369
  136SAPE  H15Y14814   5.959   1.240   8.975 -0.4256 -0.2122 -2.0044
  136SAPE  C31614815   5.977   1.087   8.826 -0.9024  0.2146  0.1387
  136SAPE  H16X14816   5.875   1.104   8.786  0.4024  2.2456 -2.7151
  136SAPE  H16Y14817   6.007   0.981   8.810  1.9414  0.8348  0.6839
  136SAPE  C31714818   6.064   1.173   8.736  0.0299 -0.0740  0.2368
  136SAPE  H17X14819   6.169   1.148   8.764  0.3348 -0.1908 -0.9464
  136SAPE  H17Y14820   6.051   1.278   8.770  3.5165 -0.5737  3.9424
  136SAPE  C31814821   6.043   1.142   8.585 -0.6098  0.0230 -0.4996
  136SAPE  H18X14822   6.033   1.033   8.568 -1.0380 -0.0176 -0.0194
  136SAPE  H18Y14823   6.127   1.184   8.526  0.5244 -1.4929 -0.0001
  136SAPE  H18Z14824   5.952   1.185   8.537  0.0947 -1.2020 -3.0889
  137SAPE     N14825   6.188   3.326  10.774 -0.0939  0.1274  0.3373
  137SAPE   HN114826   6.218   3.396  10.845  1.2079  1.6415 -1.5583
  137SAPE   HN214827   6.237   3.236  10.791  0.6097  0.3300 -0.5479
  137SAPE   HN314828   6.216   3.364  10.681  0.0370  0.0184  0.3320
  137SAPE   C1214829   6.042   3.325  10.793  0.1235 -0.5492  0.8000
  137SAPE  H12A14830   6.026   3.304  10.900  0.1964 -1.0415  0.7150
  137SAPE  H12B14831   5.994   3.248  10.729 -0.0042 -0.3900  0.7036
  137SAPE   C1114832   5.989   3.468  10.757 -0.3032 -0.2749 -0.1290
  137SAPE  H11A14833   5.882   3.468  10.787 -0.0440 -0.1080  0.8332
  137SAPE  H11B14834   5.984   3.488  10.648  0.2221 -0.9095 -0.2772
  137SAPE     P14835   6.153   3.681  10.763 -0.0529  0.3914  0.2104
  137SAPE   O1314836   6.133   3.802  10.846 -0.0013  0.2872 -0.2656
  137SAPE   O1414837   6.289   3.624  10.756  0.4266  0.4304 -0.4482
  137SAPE   O1214838   6.069   3.566  10.820  0.2695 -0.3919  0.2244
  137SAPE   O1114839   6.096   3.709  10.616  0.0744 -0.3131 -0.3727
  137SAPE    C114840   5.981   3.778  10.600  0.1418  0.2940 -0.0738
  137SAPE    HA14841   5.924   3.730  10.517  2.1380 -0.5740 -1.0388
  137SAPE    HB14842   5.913   3.781  10.687  2.0098  0.3396  1.4565
  137SAPE    C214843   6.004   3.928  10.556  0.8729 -0.4355  0.9086
  137SAPE    HS14844   5.914   3.974  10.509  2.3615  1.5677 -0.1672
  137SAPE   O2114845   6.110   3.943  10.456 -0.1959  0.1134 -0.3775
  137SAPE   C2114846   6.091   3.889  10.343 -0.3213  0.7872 -0.4515
  137SAPE   O2214847   6.005   3.810  10.311 -0.1984 -0.1738  0.3337
  137SAPE   C2214848   6.199   3.940  10.241  0.0341  0.3239 -0.4130
  137SAPE   H2R14849   6.204   3.863  10.161  0.4761 -0.7920  0.6571
  137SAPE   H2S14850   6.165   4.040  10.207 -0.1588  0.1972 -0.5923
  137SAPE    C314851   6.038   4.035  10.669  0.6577  0.2411  0.0676
  137SAPE    HX14852   6.148   4.024  10.685  0.7527  3.6188  3.1764
  137SAPE    HY14853   5.981   4.007  10.760  0.4599 -0.0535 -0.1449
  137SAPE   O3114854   5.998   4.165  10.620  0.5264 -0.7527 -0.1359
  137SAPE   C3114855   6.095   4.246  10.575  0.1931 -0.0593 -0.2764
  137SAPE   O3214856   6.214   4.217  10.570  0.4127 -0.4294  0.5277
  137SAPE   C3214857   6.039   4.381  10.532 -0.1097 -0.8109  1.1620
  137SAPE   H2X14858   6.111   4.456  10.492 -2.1581  1.5793  1.6975
  137SAPE   H2Y14859   5.991   4.420  10.624 -2.2508 -0.2235 -0.1258
  137SAPE   C2314860   6.343   3.952  10.292  0.3300 -0.6345  0.1794
  137SAPE   H3R14861   6.357   3.863  10.357  2.3092  0.0888  0.8045
  137SAPE   H3S14862   6.340   4.047  10.349  0.2338 -1.1389  1.0350
  137SAPE   C2414863   6.449   3.965  10.185  0.3417  0.5050  0.2647
  137SAPE   H4R14864   6.439   3.888  10.105  0.4722  0.2050  0.5387
  137SAPE   H4S14865   6.549   3.963  10.233  0.3621 -1.2436  0.2017
  137SAPE   C2514866   6.445   4.104  10.128 -0.2881  0.2198  0.6137
  137SAPE   H5R14867   6.488   4.181  10.193 -0.3794  0.9406 -0.1679
  137SAPE   C2614868   6.390   4.138  10.011 -0.1804 -0.1566 -0.6103
  137SAPE   H6R14869   6.374   4.246   9.997 -0.8616 -0.1081  0.4671
  137SAPE   C2714870   6.320   4.046   9.915  0.7908  0.1353  0.4199
  137SAPE   H7R14871   6.286   3.954   9.967 -0.9592  0.3626 -0.2249
  137SAPE   H7S14872   6.398   4.020   9.840 -0.0428  1.2517 -0.8764
  137SAPE   C2814873   6.208   4.119   9.832  0.0063  0.0835  0.8814
  137SAPE   H8R14874   6.103   4.111   9.865 -0.7560  3.9398 -0.0801
  137SAPE   C2914875   6.227   4.174   9.713  0.0422  0.1880  0.4449
  137SAPE   H9R14876   6.133   4.208   9.667  1.7639 -0.6070 -4.2384
  137SAPE  C21014877   6.351   4.185   9.619  0.7722 -0.7727 -0.9862
  137SAPE  H10R14878   6.445   4.150   9.668  0.4606 -0.3821 -0.0854
  137SAPE  H10S14879   6.364   4.294   9.603  0.1302 -0.5199  0.0732
  137SAPE  C21114880   6.346   4.130   9.476 -1.2341  0.1568 -0.2966
  137SAPE  H11R14881   6.398   4.033   9.467  0.2082  0.9379 -0.6829
  137SAPE  C21214882   6.280   4.174   9.368 -0.4622 -0.5317 -0.1543
  137SAPE  H12R14883   6.293   4.133   9.266  2.1701  0.3274 -0.2402
  137SAPE  C21314884   6.206   4.305   9.373 -0.2038  0.1370 -0.3005
  137SAPE  H13R14885   6.285   4.383   9.359 -0.1247 -0.2507 -2.2876
  137SAPE  H13S14886   6.163   4.327   9.473 -0.9025 -1.0196 -0.3346
  137SAPE  C21414887   6.105   4.311   9.261 -0.4378 -0.2729  0.2106
  137SAPE  H14R14888   6.154   4.310   9.163 -3.1091 -2.9781 -1.3013
  137SAPE  C21514889   5.970   4.315   9.266 -0.3341 -0.3876  0.2247
  137SAPE  H15R14890   5.908   4.309   9.175 -1.0811 -0.0806  0.7133
  137SAPE  C21614891   5.893   4.320   9.402 -0.2115 -0.9238  0.2252
  137SAPE  H16R14892   5.960   4.351   9.486  0.9649 -2.1517 -0.2157
  137SAPE  H16S14893   5.859   4.216   9.424  0.5692 -1.3349 -0.4534
  137SAPE  C21714894   5.762   4.406   9.398  0.3620 -0.0777  0.2550
  137SAPE  H17R14895   5.780   4.510   9.363  1.1503  0.1072  1.1462
  137SAPE  H17S14896   5.724   4.401   9.503 -0.6508 -2.1050 -0.1676
  137SAPE  C21814897   5.660   4.337   9.299  0.2522  0.1374  0.4611
  137SAPE  H18R14898   5.636   4.236   9.339  0.9266  0.5292  1.9320
  137SAPE  H18S14899   5.703   4.327   9.197 -1.4864  2.2327 -0.5560
  137SAPE  C21914900   5.534   4.420   9.287 -0.0873 -0.2853  0.4083
  137SAPE  H19R14901   5.564   4.517   9.241 -0.1556 -0.1625  0.6227
  137SAPE  H19S14902   5.495   4.442   9.389 -0.5061  0.2786  0.1385
  137SAPE  C22014903   5.429   4.365   9.198 -0.0429  0.3582 -0.1385
  137SAPE  H20R14904   5.339   4.428   9.208 -0.9545 -0.8481 -0.5054
  137SAPE  H20S14905   5.413   4.261   9.232  0.7577 -0.3259 -1.7304
  137SAPE  H20T14906   5.458   4.369   9.091  2.6079  2.1478  0.5375
  137SAPE   C3314907   5.934   4.351  10.432  0.0985 -0.0863  0.3725
  137SAPE   H3X14908   5.869   4.442  10.434  2.2659  1.5351  2.7243
  137SAPE   H3Y14909   5.867   4.267  10.461 -0.8263 -0.2010 -1.8745
  137SAPE   C3414910   5.969   4.334  10.284 -0.2620 -0.2863  0.0780
  137SAPE   H4X14911   6.031   4.244  10.264 -1.7061 -1.1591 -0.6782
  137SAPE   H4Y14912   6.024   4.423  10.247 -1.3486  0.1293 -0.5818
  137SAPE   C3514913   5.838   4.311  10.193 -0.0590 -0.5450  0.1017
  137SAPE   H5X14914   5.771   4.399  10.204 -0.2059 -0.5239 -0.8540
  137SAPE   H5Y14915   5.782   4.230  10.244 -1.2319  2.1533  3.4715
  137SAPE   C3614916   5.871   4.284  10.045 -0.1601  0.6911  0.3768
  137SAPE   H6X14917   5.924   4.187  10.034 -1.2208  0.2242 -0.8229
  137SAPE   H6Y14918   5.943   4.362  10.012 -1.1287  2.4038  2.0768
  137SAPE   C3714919   5.741   4.268   9.953 -1.3804  0.0620 -0.2095
  137SAPE   H7X14920   5.690   4.366   9.943 -2.1144  0.2924  4.0795
  137SAPE   H7Y14921   5.671   4.200  10.006 -1.7076  0.3698 -0.2410
  137SAPE   C3814922   5.778   4.193   9.824 -0.0507 -0.0591 -0.0529
  137SAPE   H8X14923   5.795   4.086   9.847 -2.4871  0.0676  3.0244
  137SAPE   H8Y14924   5.872   4.232   9.780  0.4180 -0.0753  0.9042
  137SAPE   C3914925   5.673   4.189   9.708  0.2179  0.3165  0.2010
  137SAPE   H9X14926   5.726   4.156   9.616 -1.7442  3.2824 -2.1576
  137SAPE   H9Y14927   5.651   4.296   9.689  1.8326  1.0600  2.1921
  137SAPE  C31014928   5.543   4.103   9.730  0.8273 -0.7282 -0.1834
  137SAPE  H10X14929   5.495   4.141   9.823  0.5440  0.0762 -0.6428
  137SAPE  H10Y14930   5.560   3.994   9.734  2.4608 -0.4635  2.6283
  137SAPE  C31114931   5.440   4.127   9.621  0.2658 -0.1258 -0.7921
  137SAPE  H11X14932   5.467   4.086   9.521  4.6263  0.8629 -0.2022
  137SAPE  H11Y14933   5.432   4.237   9.605  1.8977  0.1147 -0.0801
  137SAPE  C31214934   5.298   4.087   9.662 -0.7159  0.0209  0.3390
  137SAPE  H12X14935   5.263   4.173   9.723 -3.7719 -0.2510 -0.8257
  137SAPE  H12Y14936   5.296   3.994   9.723 -0.5862 -0.7220 -0.7455
  137SAPE  C31314937   5.213   4.065   9.536 -0.8251  0.0262 -0.3383
  137SAPE  H13X14938   5.266   3.982   9.485 -1.4556 -0.4314 -0.2564
  137SAPE  H13Y14939   5.218   4.158   9.474  2.5551 -0.1298 -0.4703
  137SAPE  C31414940   5.066   4.040   9.569 -0.0912 -0.3558  0.7329
  137SAPE  H14X14941   5.063   3.955   9.640  1.1380 -0.4423  0.6962
  137SAPE  H14Y14942   5.014   4.001   9.478  1.3567  1.6831 -1.0772
  137SAPE  C31514943   4.982   4.162   9.617  0.5405  0.1707  0.4395
  137SAPE  H15X14944   4.980   4.240   9.538 -1.5896  0.6602  0.9191
  137SAPE  H15Y14945   5.045   4.207   9.697 -1.4343  0.3772  1.9652
  137SAPE  C31614946   4.837   4.125   9.645  0.7481 -0.4012  0.0177
  137SAPE  H16X14947   4.794   4.091   9.548  2.8637  1.2256 -1.5936
  137SAPE  H16Y14948   4.792   4.224   9.666 -0.3095 -0.5259 -1.4963
  137SAPE  C31714949   4.830   4.010   9.749  0.3428 -0.0663 -0.3320
  137SAPE  H17X14950   4.869   3.921   9.695 -1.7229  0.2092 -2.4189
  137SAPE  H17Y14951   4.722   3.985   9.758  0.1441 -0.1669 -2.5677
  137SAPE  C31814952   4.893   4.036   9.882  0.5768 -0.1996 -0.0488
  137SAPE  H18X14953   4.844   4.127   9.922  1.3674 -0.3684  1.3730
  137SAPE  H18Y14954   5.002   4.055   9.868  0.9091 -2.0535 -0.1454
  137SAPE  H18Z14955   4.881   3.950   9.950  1.1506 -0.1152  0.1659
  138SAPE     N14956   3.512   4.233  10.882 -0.0267 -0.2024 -0.5762
  138SAPE   HN114957   3.572   4.292  10.821  2.6333 -1.3031  0.7900
  138SAPE   HN214958   3.510   4.284  10.973 -3.0330  0.2778 -0.8009
  138SAPE   HN314959   3.561   4.145  10.908  2.1095  0.8755 -0.7723
  138SAPE   C1214960   3.365   4.218  10.846 -0.6795 -0.2109  0.7740
  138SAPE  H12A14961   3.311   4.168  10.930 -3.5097 -0.9538 -1.3332
  138SAPE  H12B14962   3.357   4.146  10.761  0.1689 -1.3929  1.6609
  138SAPE   C1114963   3.296   4.354  10.824 -0.6107 -0.3943 -0.5423
  138SAPE  H11A14964   3.331   4.406  10.733 -1.6490 -0.5517 -1.0403
  138SAPE  H11B14965   3.317   4.420  10.911 -0.2329 -0.7345 -0.3709
  138SAPE     P14966   3.068   4.457  10.753 -0.0249 -0.4082  0.2433
  138SAPE   O1314967   2.932   4.434  10.805  0.0793  0.1543 -0.1462
  138SAPE   O1414968   3.140   4.581  10.780  0.3419  0.4095  0.4516
  138SAPE   O1214969   3.156   4.336  10.821  0.0396  0.1591 -0.0112
  138SAPE   O1114970   3.074   4.435  10.595 -0.4645 -1.2642 -0.1916
  138SAPE    C114971   3.069   4.302  10.544 -0.6098 -0.0304 -1.0154
  138SAPE    HA14972   3.166   4.249  10.559 -0.9527 -0.1255  1.1367
  138SAPE    HB14973   3.001   4.240  10.606 -2.0070  1.5026 -0.9452
  138SAPE    C214974   3.036   4.293  10.395 -0.6467  0.2126  0.2229
  138SAPE    HS14975   3.031   4.184  10.373 -1.2899  0.7300 -2.6414
  138SAPE   O2114976   3.131   4.357  10.310 -0.1821 -0.4212  0.2202
  138SAPE   C2114977   3.236   4.284  10.269  0.0505 -1.1654  0.7433
  138SAPE   O2214978   3.285   4.188  10.326 -0.0923 -0.6998  0.4355
  138SAPE   C2214979   3.269   4.345  10.131 -0.0395 -0.0663 -0.4024
  138SAPE   H2R14980   3.215   4.441  10.117  2.5164  1.3555 -1.1894
  138SAPE   H2S14981   3.377   4.371  10.129 -0.1793  0.5549 -0.2428
  138SAPE    C314982   2.883   4.343  10.363  0.0860  0.1469  0.3868
  138SAPE    HX14983   2.864   4.452  10.380 -0.4985  0.4744 -1.9373
  138SAPE    HY14984   2.817   4.292  10.436  0.0629  0.0224  0.2793
  138SAPE   O3114985   2.850   4.302  10.231 -0.6099 -0.0127 -0.2978
  138SAPE   C3114986   2.733   4.342  10.192  0.1178 -0.0703  0.8350
  138SAPE   O3214987   2.654   4.412  10.256  0.0449  0.6814  0.4591
  138SAPE   C3214988   2.697   4.295  10.048  0.0259  0.0644  0.2342
  138SAPE   H2X14989   2.680   4.185  10.052 -1.7765  0.1907 -2.0562
  138SAPE   H2Y14990   2.781   4.301   9.975  1.0257 -0.8457  1.2724
  138SAPE   C2314991   3.248   4.244  10.012 -0.2951 -0.3262 -0.0794
  138SAPE   H3R14992   3.283   4.146  10.052  2.7112  0.8874  0.5610
  138SAPE   H3S14993   3.331   4.260   9.940  1.7584  0.3864  2.2872
  138SAPE   C2414994   3.108   4.252   9.953 -0.2735 -0.2905  0.8499
  138SAPE   H4R14995   3.030   4.262  10.032  0.9131  2.0990  1.8200
  138SAPE   H4S14996   3.079   4.156   9.905  1.7308 -0.3163 -0.4325
  138SAPE   C2514997   3.079   4.370   9.865 -0.0350  0.3999 -0.0406
  138SAPE   H5R14998   3.097   4.463   9.921 -1.9159  0.1344  1.1015
  138SAPE   C2614999   3.039   4.377   9.739  0.7472  0.3083  0.1617
  138SAPE   H6R15000   3.017   4.471   9.686 -0.3950  0.0623  0.1739
  138SAPE   C2715001   3.010   4.258   9.646  0.0121  0.0668 -0.0842
  138SAPE   H7R15002   3.086   4.179   9.664  0.7303  0.1743 -2.3202
  138SAPE   H7S15003   3.023   4.289   9.541 -1.6231  2.1744  0.2716
  138SAPE   C2815004   2.872   4.199   9.679  0.3438 -0.1047  0.5572
  138SAPE   H8R15005   2.808   4.260   9.745  0.2891  0.2136  0.2108
  138SAPE   C2915006   2.831   4.079   9.642 -0.1842  1.0971 -0.0996
  138SAPE   H9R15007   2.723   4.060   9.654  0.1604 -0.4340  0.8578
  138SAPE  C21015008   2.915   3.976   9.559 -0.0622  0.5628  1.0314
  138SAPE  H10R15009   2.940   3.892   9.628 -1.8660  0.4492  1.5885
  138SAPE  H10S15010   3.013   4.012   9.522  0.1568  1.1789  2.1608
  138SAPE  C21115011   2.835   3.917   9.439 -0.9125 -0.6482 -0.0430
  138SAPE  H11R15012   2.725   3.912   9.449 -0.8485  0.8880  2.1397
  138SAPE  C21215013   2.888   3.874   9.328  0.1092 -0.2678  0.3693
  138SAPE  H12R15014   2.820   3.830   9.254  1.0570 -0.0978 -0.6220
  138SAPE  C21315015   3.030   3.856   9.287  0.8697  0.0439 -0.3102
  138SAPE  H13R15016   3.095   3.860   9.377 -0.3067 -2.3183  0.7283
  138SAPE  H13S15017   3.076   3.925   9.213  0.4976 -2.0326 -2.6088
  138SAPE  C21415018   3.048   3.713   9.246  0.3664 -0.0148 -0.6306
  138SAPE  H14R15019   3.016   3.622   9.299  2.5124 -0.7665 -0.5426
  138SAPE  C21515020   3.096   3.678   9.126 -0.4270  0.5852 -0.4078
  138SAPE  H15R15021   3.108   3.571   9.100 -0.1676 -0.0208  1.9692
  138SAPE  C21615022   3.140   3.771   9.016  0.4747  0.5384 -0.1038
  138SAPE  H16R15023   3.198   3.715   8.940  0.0239  1.9821 -1.5633
  138SAPE  H16S15024   3.208   3.852   9.051 -0.2570  0.8369  0.6476
  138SAPE  C21715025   3.020   3.838   8.942 -0.0009 -0.0393  0.2093
  138SAPE  H17R15026   2.958   3.896   9.013 -0.5611  1.2850 -1.2724
  138SAPE  H17S15027   2.948   3.765   8.899 -1.5096  0.3895  1.8873
  138SAPE  C21815028   3.060   3.933   8.823 -0.2564 -0.2896  0.2815
  138SAPE  H18R15029   3.106   4.029   8.856  0.5871  0.0488 -1.7075
  138SAPE  H18S15030   2.965   3.964   8.774 -0.0041  0.0412 -0.0026
  138SAPE  C21915031   3.153   3.880   8.709  0.1228 -0.0262 -0.6323
  138SAPE  H19R15032   3.098   3.797   8.660  0.1956  0.3423 -1.3470
  138SAPE  H19S15033   3.253   3.854   8.750 -0.1205  0.5504  0.3752
  138SAPE  C22015034   3.191   3.974   8.594  0.2160 -0.1176  0.1388
  138SAPE  H20R15035   3.245   3.916   8.517  1.1847 -0.4769  1.0542
  138SAPE  H20S15036   3.259   4.059   8.618  0.2757 -0.3000  0.6239
  138SAPE  H20T15037   3.096   4.017   8.554  0.9651  0.2326 -1.3275
  138SAPE   C3315038   2.566   4.360   9.992 -0.3561 -0.2301 -0.5439
  138SAPE   H3X15039   2.592   4.468   9.997 -0.3284 -0.1258 -2.3157
  138SAPE   H3Y15040   2.468   4.335  10.039  0.0276 -0.1411  0.3233
  138SAPE   C3415041   2.540   4.330   9.848  0.2535 -0.1010  0.3168
  138SAPE   H4X15042   2.497   4.229   9.832 -3.2163  1.5819 -1.9455
  138SAPE   H4Y15043   2.642   4.329   9.803  0.2781  0.3125  0.3523
  138SAPE   C3515044   2.452   4.432   9.775  0.8716  0.2092  0.2825
  138SAPE   H5X15045   2.477   4.534   9.811 -1.0264  0.1493  1.9498
  138SAPE   H5Y15046   2.345   4.406   9.792  0.4771  1.5683  0.0055
  138SAPE   C3615047   2.461   4.440   9.621 -0.0932  0.0770 -0.0909
  138SAPE   H6X15048   2.555   4.483   9.581  1.2900 -1.4539  1.3541
  138SAPE   H6Y15049   2.383   4.512   9.588 -0.0805  0.8129  1.3663
  138SAPE   C3715050   2.436   4.299   9.556  0.2827 -0.7175  0.2819
  138SAPE   H7X15051   2.359   4.250   9.619 -0.7675  1.5134  0.8348
  138SAPE   H7Y15052   2.530   4.243   9.571 -0.8675 -3.2035 -1.1235
  138SAPE   C3815053   2.405   4.295   9.411 -0.2070  0.8537 -0.2048
  138SAPE   H8X15054   2.371   4.393   9.370 -1.3370  0.4862 -0.1791
  138SAPE   H8Y15055   2.322   4.222   9.400  0.4937 -0.0889  0.5667
  138SAPE   C3915056   2.514   4.244   9.323 -0.3880  0.6784  0.1382
  138SAPE   H9X15057   2.475   4.236   9.220  0.4576 -0.0288 -0.1371
  138SAPE   H9Y15058   2.552   4.143   9.348 -0.7670  0.7139  0.9074
  138SAPE  C31015059   2.639   4.337   9.324  0.0303  0.0594  0.0871
  138SAPE  H10X15060   2.695   4.357   9.418  0.4419  1.1888 -0.3831
  138SAPE  H10Y15061   2.618   4.438   9.283  0.1367  0.7045  1.5642
  138SAPE  C31115062   2.750   4.275   9.229 -0.0876 -0.2052 -0.1950
  138SAPE  H11X15063   2.718   4.242   9.128 -1.7689 -1.5552  0.7239
  138SAPE  H11Y15064   2.791   4.185   9.281 -3.2286 -1.6806 -0.0486
  138SAPE  C31215065   2.847   4.384   9.196  0.1393  0.3609  0.4379
  138SAPE  H12X15066   2.881   4.428   9.292  0.1606 -0.8814  1.0166
  138SAPE  H12Y15067   2.810   4.467   9.132 -1.8382  0.3453  1.4768
  138SAPE  C31315068   2.989   4.332   9.143  0.4403  0.0206 -0.1328
  138SAPE  H13X15069   3.036   4.407   9.075  1.4805 -0.9597 -0.5220
  138SAPE  H13Y15070   2.983   4.248   9.071  1.4077 -0.6874  0.5921
  138SAPE  C31415071   3.090   4.298   9.252 -0.4897 -0.2942  0.4834
  138SAPE  H14X15072   3.148   4.212   9.214 -0.0985  0.4205 -0.5866
  138SAPE  H14Y15073   3.034   4.264   9.342 -2.8383  0.2172 -0.7207
  138SAPE  C31515074   3.187   4.411   9.285 -0.2467  0.4524  0.7025
  138SAPE  H15X15075   3.120   4.495   9.312 -0.3323  0.4772  0.4200
  138SAPE  H15Y15076   3.254   4.441   9.201 -2.0339  1.1756 -0.5296
  138SAPE  C31615077   3.279   4.387   9.404 -0.0371  0.0831 -0.0860
  138SAPE  H16X15078   3.209   4.367   9.488 -0.6692 -2.5237 -1.1312
  138SAPE  H16Y15079   3.342   4.478   9.414 -1.0493  0.9043 -0.8680
  138SAPE  C31715080   3.376   4.259   9.403  0.6647 -0.2882 -0.1206
  138SAPE  H17X15081   3.316   4.168   9.381 -1.5691  1.3603 -1.2582
  138SAPE  H17Y15082   3.419   4.244   9.505 -1.1711  1.9168  1.0771
  138SAPE  C31815083   3.494   4.276   9.306  0.3832 -0.4090 -0.3548
  138SAPE  H18X15084   3.449   4.291   9.206  1.2453 -0.0209 -0.6938
  138SAPE  H18Y15085   3.566   4.191   9.304 -0.5439 -1.2035 -1.9397
  138SAPE  H18Z15086   3.542   4.373   9.333  0.9440 -0.5284 -0.8954
  139SAPE     N15087   1.474   1.376  10.459  0.2163  0.1652 -0.1858
  139SAPE   HN115088   1.573   1.376  10.425  1.3749  0.4286  2.9197
  139SAPE   HN215089   1.458   1.295  10.520 -1.2896 -0.2982 -1.1563
  139SAPE   HN315090   1.402   1.386  10.385 -0.8301  2.0083  1.0077
  139SAPE   C1215091   1.485   1.499  10.543  0.1742  0.2564  0.2108
  139SAPE  H12A15092   1.382   1.515  10.579 -1.8758 -3.0373 -3.4584
  139SAPE  H12B15093   1.516   1.584  10.478 -2.1879 -0.2606 -1.7137
  139SAPE   C1115094   1.593   1.477  10.659  0.6014  0.2585 -0.1724
  139SAPE  H11A15095   1.563   1.397  10.729 -0.2990  0.0482 -0.7761
  139SAPE  H11B15096   1.606   1.567  10.724 -1.0051 -1.1761  2.2784
  139SAPE     P15097   1.846   1.507  10.600  0.1154  0.0658 -0.1316
  139SAPE   O1315098   1.815   1.644  10.579 -0.6829 -0.6183  0.0975
  139SAPE   O1415099   1.927   1.474  10.724  0.8359  0.0729  0.4502
  139SAPE   O1215100   1.712   1.429  10.593  0.3257  0.3564  0.2679
  139SAPE   O1115101   1.930   1.456  10.479 -0.3559  0.6140 -0.6556
  139SAPE    C115102   1.870   1.419  10.358  0.3784 -0.6245 -0.0299
  139SAPE    HA15103   1.935   1.342  10.312 -0.9149 -0.5562 -2.0774
  139SAPE    HB15104   1.772   1.370  10.376  0.4302 -0.6292  0.2505
  139SAPE    C215105   1.871   1.532  10.249  0.9117  0.1807  0.8727
  139SAPE    HS15106   1.801   1.615  10.275  1.0324  0.2513  0.9732
  139SAPE   O2115107   1.821   1.475  10.119  0.3541 -0.0146 -0.0193
  139SAPE   C2115108   1.692   1.448  10.109  0.0350 -0.0248 -0.4671
  139SAPE   O2215109   1.609   1.436  10.199 -0.0379 -0.0547 -0.0098
  139SAPE   C2215110   1.679   1.412   9.961 -0.2761  0.2755  0.0798
  139SAPE   H2R15111   1.710   1.498   9.897 -1.3696 -0.2502 -1.2077
  139SAPE   H2S15112   1.753   1.332   9.938 -0.2861  0.2889 -0.0008
  139SAPE    C315113   2.013   1.590  10.249 -0.2739  0.8402 -0.3546
  139SAPE    HX15114   2.083   1.509  10.220 -1.3014 -1.8460  3.8020
  139SAPE    HY15115   2.040   1.615  10.353 -0.0866 -1.7924  0.2930
  139SAPE   O3115116   2.016   1.702  10.157  0.0785  0.3997 -0.0203
  139SAPE   C3115117   1.952   1.817  10.202  0.1595  0.5345  0.1152
  139SAPE   O3215118   1.891   1.828  10.305  0.5164 -0.0684  0.4014
  139SAPE   C3215119   1.977   1.939  10.104  0.8726 -0.4141  0.3389
  139SAPE   H2X15120   1.920   1.906  10.014  1.5466 -0.4990 -0.0603
  139SAPE   H2Y15121   2.081   1.942  10.066  0.2153 -1.2568 -1.7076
  139SAPE   C2315122   1.538   1.373   9.921  0.2901  0.4881 -0.5051
  139SAPE   H3R15123   1.460   1.452   9.930 -2.1904 -1.8930  0.2130
  139SAPE   H3S15124   1.497   1.296   9.990  0.0256  0.9073 -0.1930
  139SAPE   C2415125   1.524   1.309   9.781  0.8103 -1.4545 -0.3560
  139SAPE   H4R15126   1.575   1.211   9.780  3.7077 -0.0654 -2.2305
  139SAPE   H4S15127   1.582   1.373   9.711 -0.4760 -0.4386 -0.5331
  139SAPE   C2515128   1.384   1.290   9.722 -0.7792  0.4896 -0.3924
  139SAPE   H5R15129   1.326   1.211   9.772 -0.0834 -0.0364 -0.4014
  139SAPE   C2615130   1.329   1.363   9.622  0.0378 -0.3641  0.4211
  139SAPE   H6R15131   1.224   1.346   9.595 -0.2326  1.9164 -0.2065
  139SAPE   C2715132   1.394   1.476   9.546 -0.0264 -0.2319  0.3512
  139SAPE   H7R15133   1.465   1.542   9.601  0.4249  1.0197 -1.6089
  139SAPE   H7S15134   1.310   1.545   9.520  0.8345  1.2320  1.2931
  139SAPE   C2815135   1.472   1.427   9.431  0.8620  0.5685 -0.4078
  139SAPE   H8R15136   1.542   1.349   9.466 -0.1020  0.0040  0.3470
  139SAPE   C2915137   1.446   1.447   9.305  0.9106 -0.1923 -0.7142
  139SAPE   H9R15138   1.506   1.401   9.225 -0.0093 -0.0248 -1.5205
  139SAPE  C21015139   1.344   1.537   9.235  0.0620  0.4118  0.4024
  139SAPE  H10R15140   1.379   1.571   9.135 -0.0196 -0.6132  0.0237
  139SAPE  H10S15141   1.339   1.634   9.290 -2.8234  0.4158  0.2637
  139SAPE  C21115142   1.208   1.471   9.223  0.2155  0.0860 -0.3770
  139SAPE  H11R15143   1.200   1.377   9.279 -1.2825  1.3197  1.6189
  139SAPE  C21215144   1.102   1.492   9.141  0.0518  0.1168  0.1902
  139SAPE  H12R15145   1.012   1.433   9.160 -0.5768  1.5004  1.8097
  139SAPE  C21315146   1.102   1.611   9.043  0.2285 -0.0440 -0.0414
  139SAPE  H13R15147   1.181   1.681   9.078  0.8626 -0.5553 -0.4102
  139SAPE  H13S15148   1.010   1.672   9.054 -0.6819 -0.3188 -4.3178
  139SAPE  C21415149   1.102   1.550   8.903  0.1819  0.2071 -0.0694
  139SAPE  H14R15150   1.046   1.459   8.878 -2.3422  1.2972  1.2592
  139SAPE  C21515151   1.161   1.620   8.804 -0.5671  0.8626 -0.2341
  139SAPE  H15R15152   1.155   1.563   8.710 -2.8089  1.0068 -0.2295
  139SAPE  C21615153   1.230   1.747   8.798 -0.6465 -0.2979 -0.4391
  139SAPE  H16R15154   1.192   1.810   8.882 -0.4960 -1.0782  0.2227
  139SAPE  H16S15155   1.210   1.806   8.706  1.6441  1.2787 -0.0040
  139SAPE  C21715156   1.380   1.720   8.825  0.0659 -0.2540  0.3314
  139SAPE  H17R15157   1.397   1.647   8.907  2.3569  0.9010  0.9534
  139SAPE  H17S15158   1.426   1.818   8.852  2.3306 -1.8465  2.7980
  139SAPE  C21815159   1.454   1.665   8.706 -0.0456 -0.0081  0.0705
  139SAPE  H18R15160   1.440   1.720   8.610 -0.4488 -0.6434 -0.2414
  139SAPE  H18S15161   1.430   1.559   8.680 -1.1580  0.6822 -1.9449
  139SAPE  C21915162   1.606   1.687   8.734  0.0486 -0.7370 -0.4726
  139SAPE  H19R15163   1.650   1.608   8.799  0.4702  0.1210  0.3139
  139SAPE  H19S15164   1.618   1.777   8.797 -1.9536 -1.3260  0.8403
  139SAPE  C22015165   1.690   1.693   8.611  0.2248  0.1096  1.0135
  139SAPE  H20R15166   1.671   1.788   8.557  0.0685  0.8159  2.2591
  139SAPE  H20S15167   1.681   1.600   8.550 -2.0499 -0.4543  2.0789
  139SAPE  H20T15168   1.796   1.709   8.640  1.3280 -2.5267 -1.0895
  139SAPE   C3315169   1.922   2.074  10.141 -0.2972 -0.2622  0.9116
  139SAPE   H3X15170   1.987   2.119  10.220  0.9562  0.8272 -0.6596
  139SAPE   H3Y15171   1.825   2.062  10.192 -0.8301 -0.0186 -0.0271
  139SAPE   C3415172   1.899   2.174  10.032 -0.2376  0.1282  0.1142
  139SAPE   H4X15173   1.998   2.184   9.982  0.3768 -0.5093  1.1551
  139SAPE   H4Y15174   1.884   2.277  10.071  1.1110  0.4431 -0.1373
  139SAPE   C3515175   1.778   2.128   9.950 -0.1805  0.6461 -0.1852
  139SAPE   H5X15176   1.687   2.148  10.011  0.0864 -0.7395  0.7068
  139SAPE   H5Y15177   1.775   2.018   9.942  0.0202  0.7559 -2.3234
  139SAPE   C3615178   1.763   2.202   9.816  0.0994 -0.2193  0.1703
  139SAPE   H6X15179   1.786   2.309   9.834  0.8147 -0.1023 -1.2915
  139SAPE   H6Y15180   1.662   2.197   9.770 -0.5867  0.5507  1.5329
  139SAPE   C3715181   1.853   2.157   9.709 -0.2193  0.1069  0.3323
  139SAPE   H7X15182   1.852   2.049   9.733 -2.2116  0.2098  0.9037
  139SAPE   H7Y15183   1.951   2.209   9.714 -0.7075  1.3949 -1.7535
  139SAPE   C3815184   1.802   2.195   9.567 -0.0448 -0.2628 -0.5584
  139SAPE   H8X15185   1.769   2.300   9.564 -1.3876 -0.6779 -0.9843
  139SAPE   H8Y15186   1.719   2.127   9.541 -1.9280  1.9643 -0.6478
  139SAPE   C3915187   1.915   2.197   9.460 -0.2885 -0.0383 -0.0400
  139SAPE   H9X15188   1.974   2.104   9.446  0.0511  0.5139 -2.7787
  139SAPE   H9Y15189   1.986   2.279   9.482  2.0143 -1.6564 -1.0922
  139SAPE  C31015190   1.835   2.223   9.335 -0.4265  0.0639  0.0370
  139SAPE  H10X15191   1.780   2.320   9.337  0.8690  0.8514 -1.0398
  139SAPE  H10Y15192   1.766   2.138   9.317  0.2035 -0.4762  0.1519
  139SAPE  C31115193   1.930   2.227   9.213 -0.6391  0.0936 -0.1155
  139SAPE  H11X15194   1.985   2.131   9.210 -0.5348  0.1669 -0.8976
  139SAPE  H11Y15195   1.996   2.312   9.240 -0.6550 -0.0005  0.2121
  139SAPE  C31215196   1.871   2.257   9.076 -0.7448  0.4773  0.0708
  139SAPE  H12X15197   1.799   2.342   9.082  0.5319  1.7124 -1.3554
  139SAPE  H12Y15198   1.809   2.173   9.039  1.0572  0.1207 -2.3411
  139SAPE  C31315199   1.968   2.284   8.958  0.4728  0.2176 -0.2316
  139SAPE  H13X15200   2.019   2.186   8.945  0.9401  0.5666 -1.1379
  139SAPE  H13Y15201   2.037   2.365   8.988 -1.1851  1.7197 -0.2945
  139SAPE  C31415202   1.903   2.340   8.832  0.3535  0.3426  0.3646
  139SAPE  H14X15203   1.831   2.418   8.866 -0.3756 -0.7830  1.5207
  139SAPE  H14Y15204   1.831   2.267   8.789  0.5808 -0.0922  0.7138
  139SAPE  C31515205   2.002   2.391   8.726  0.4769  0.2642  0.2242
  139SAPE  H15X15206   2.066   2.303   8.706 -0.7724 -0.6649  0.1459
  139SAPE  H15Y15207   2.070   2.474   8.756  3.5466 -1.6682 -1.0458
  139SAPE  C31615208   1.927   2.427   8.590 -0.4228  0.0176  0.2330
  139SAPE  H16X15209   1.871   2.342   8.547 -1.8220  0.6611  0.7128
  139SAPE  H16Y15210   1.850   2.503   8.616 -2.0840 -1.2179 -0.9054
  139SAPE  C31715211   2.022   2.497   8.499 -0.6438 -1.0560  0.2108
  139SAPE  H17X15212   2.092   2.422   8.455 -1.1410 -2.1363  1.2214
  139SAPE  H17Y15213   2.092   2.564   8.554 -0.6616 -2.1364  1.6094
  139SAPE  C31815214   1.957   2.576   8.387 -0.0387 -0.1811 -0.1213
  139SAPE  H18X15215   2.034   2.628   8.326 -0.0882  0.2458  0.1787
  139SAPE  H18Y15216   1.891   2.653   8.432  0.6507 -0.3264  1.1912
  139SAPE  H18Z15217   1.897   2.499   8.333  0.4986 -0.4650 -0.3226
  140SAPE     N15218   2.934   0.150  10.765 -0.0195 -0.5939  0.2278
  140SAPE   HN115219   3.024   0.128  10.717 -0.1764 -1.6597  0.4013
  140SAPE   HN215220   2.869   0.112  10.693 -1.8259  0.4289  1.2423
  140SAPE   HN315221   2.915   0.252  10.769 -0.4277 -0.6453 -0.2757
  140SAPE   C1215222   2.909   0.083  10.899 -0.3544 -1.0384  0.5378
  140SAPE  H12A15223   2.806   0.115  10.927 -0.8005 -0.1358 -1.8932
  140SAPE  H12B15224   2.977   0.128  10.974 -0.8167  1.8664 -0.6357
  140SAPE   C1115225   2.921  -0.070  10.897 -0.3150 -0.3129  0.2111
  140SAPE  H11A15226   2.853  -0.114  10.821 -1.2155 -0.1329  0.8945
  140SAPE  H11B15227   2.886  -0.094  10.999 -0.3111 -0.3879  0.1949
  140SAPE     P15228   3.099  -0.250  10.905 -0.1147  0.2906  0.3016
  140SAPE   O1315229   3.241  -0.268  10.910  0.2070  0.7039 -0.1404
  140SAPE   O1415230   3.019  -0.308  11.017 -0.3608  0.1391 -0.2415
  140SAPE   O1215231   3.061  -0.104  10.875  0.3386 -0.6692 -0.0169
  140SAPE   O1115232   3.053  -0.318  10.775  0.4448  0.0061  0.1037
  140SAPE    C115233   3.068  -0.255  10.652  0.3656  0.6708  0.8233
  140SAPE    HA15234   3.001  -0.167  10.659 -1.3843 -0.5057 -0.3189
  140SAPE    HB15235   3.171  -0.220  10.625 -0.2076  0.4378 -1.9134
  140SAPE    C215236   3.017  -0.333  10.538 -0.8611 -0.4214  0.4754
  140SAPE    HS15237   2.910  -0.345  10.566 -0.8805  1.1526  1.1241
  140SAPE   O2115238   3.079  -0.459  10.533  0.4552 -0.2667 -0.1053
  140SAPE   C2115239   3.009  -0.563  10.497 -0.2592  0.5253  0.2157
  140SAPE   O2215240   2.885  -0.567  10.499  0.9412 -0.6820  0.2429
  140SAPE   C2215241   3.105  -0.673  10.444 -0.9243 -0.0636 -0.5236
  140SAPE   H2R15242   3.179  -0.678  10.527  0.3853 -1.2542 -1.7051
  140SAPE   H2S15243   3.048  -0.767  10.427  1.8058 -2.0234  0.4117
  140SAPE    C315244   3.039  -0.258  10.401 -0.2227  0.0699 -0.1531
  140SAPE    HX15245   3.144  -0.272  10.370  0.0315 -0.4886  0.8891
  140SAPE    HY15246   2.995  -0.157  10.420 -1.7919 -0.5878 -0.0867
  140SAPE   O3115247   2.962  -0.334  10.304 -0.3078  0.7204  0.5683
  140SAPE   C3115248   2.984  -0.282  10.177 -0.0337 -0.7487  0.2383
  140SAPE   O3215249   3.057  -0.189  10.151  0.3378 -0.3044 -0.4548
  140SAPE   C3215250   2.907  -0.359  10.072 -0.6051  0.8833  0.2550
  140SAPE   H2X15251   2.821  -0.419  10.107 -1.9982  0.7961 -3.0145
  140SAPE   H2Y15252   2.975  -0.442  10.041 -0.6538  1.2380 -0.8169
  140SAPE   C2315253   3.184  -0.621  10.325  0.4660  0.7316  0.2116
  140SAPE   H3R15254   3.272  -0.685  10.301 -0.9893 -1.8204  1.2575
  140SAPE   H3S15255   3.215  -0.514  10.325  0.6066  0.6916  0.3235
  140SAPE   C2415256   3.094  -0.611  10.194 -0.5962  0.2139  0.2705
  140SAPE   H4R15257   3.147  -0.567  10.107  2.2768 -1.6810  0.9168
  140SAPE   H4S15258   3.015  -0.536  10.217 -0.9101  0.3751 -1.2468
  140SAPE   C2515259   3.028  -0.744  10.157 -0.5539 -0.2420 -0.1504
  140SAPE   H5R15260   3.006  -0.808  10.244  0.8885 -2.2222 -1.1737
  140SAPE   C2615261   3.003  -0.792  10.044 -0.1889  1.0854  1.0201
  140SAPE   H6R15262   2.947  -0.886  10.040 -0.1143  1.0681 -2.0537
  140SAPE   C2715263   3.033  -0.726   9.911 -0.3694  0.6810 -0.8623
  140SAPE   H7R15264   3.040  -0.616   9.925  1.4614  0.3057  2.0162
  140SAPE   H7S15265   2.942  -0.745   9.850 -0.7432 -0.7240  0.0703
  140SAPE   C2815266   3.159  -0.765   9.837 -0.1447 -0.5877  0.1567
  140SAPE   H8R15267   3.250  -0.793   9.892 -0.7187 -0.0194  1.4549
  140SAPE   C2915268   3.175  -0.760   9.709 -0.8662  0.1418 -0.1278
  140SAPE   H9R15269   3.267  -0.810   9.674  0.2485  1.4437  0.8383
  140SAPE  C21015270   3.086  -0.708   9.607  0.7145  0.4008  0.1890
  140SAPE  H10R15271   3.007  -0.648   9.656 -0.3602 -1.5612  0.9839
  140SAPE  H10S15272   3.028  -0.793   9.564  0.3724  0.2465  0.9330
  140SAPE  C21115273   3.146  -0.628   9.498 -0.4939 -0.2874  0.0208
  140SAPE  H11R15274   3.187  -0.532   9.533  0.4907 -1.5319  2.4861
  140SAPE  C21215275   3.153  -0.655   9.366  0.2944 -0.6114  0.4027
  140SAPE  H12R15276   3.210  -0.590   9.298  1.1506 -0.0694  1.6058
  140SAPE  C21315277   3.105  -0.779   9.294 -0.2553 -0.7637 -0.2382
  140SAPE  H13R15278   3.039  -0.849   9.350  0.9418 -1.2975  0.5474
  140SAPE  H13S15279   3.199  -0.831   9.267 -0.5051  0.1116 -3.1088
  140SAPE  C21415280   3.037  -0.741   9.169 -0.2439 -0.2184 -0.1489
  140SAPE  H14R15281   2.928  -0.748   9.161 -0.3031  0.4589 -0.0310
  140SAPE  C21515282   3.102  -0.699   9.055  0.6505 -0.2606 -0.3385
  140SAPE  H15R15283   3.037  -0.685   8.968 -0.3038 -0.7426  0.2714
  140SAPE  C21615284   3.251  -0.681   9.030  0.0882 -0.2757  0.1900
  140SAPE  H16R15285   3.257  -0.732   8.931 -0.0673 -1.7498  0.9106
  140SAPE  H16S15286   3.318  -0.733   9.101  2.9862  2.4221 -0.3440
  140SAPE  C21715287   3.290  -0.535   9.034 -1.1131  0.3299  0.1684
  140SAPE  H17R15288   3.297  -0.489   9.135  1.8660  1.3706 -0.4060
  140SAPE  H17S15289   3.207  -0.485   8.979 -1.0543  0.4224  0.1641
  140SAPE  C21815290   3.415  -0.495   8.960 -1.0324  0.1948 -0.0258
  140SAPE  H18R15291   3.440  -0.389   8.981  1.3640  0.1061 -1.8683
  140SAPE  H18S15292   3.401  -0.502   8.850  0.0128  1.2295 -0.2548
  140SAPE  C21915293   3.538  -0.578   9.006 -0.0180 -0.0437 -0.0164
  140SAPE  H19R15294   3.623  -0.538   8.947 -0.7266  0.8632 -0.4432
  140SAPE  H19S15295   3.524  -0.685   8.978 -2.4175  0.5567 -1.3771
  140SAPE  C22015296   3.569  -0.567   9.148 -0.1327 -0.1328 -0.2056
  140SAPE  H20R15297   3.600  -0.461   9.162  0.1124 -0.2798  0.3835
  140SAPE  H20S15298   3.662  -0.618   9.182  0.8840  1.6853 -0.1229
  140SAPE  H20T15299   3.486  -0.590   9.219  1.5111 -1.6626  1.3283
  140SAPE   C3315300   2.858  -0.273   9.952  0.1864 -0.2775 -0.9022
  140SAPE   H3X15301   2.906  -0.173   9.955 -1.8223  0.7448 -1.4705
  140SAPE   H3Y15302   2.752  -0.246   9.974  0.2926 -0.8949  0.4755
  140SAPE   C3415303   2.878  -0.329   9.812 -0.1771 -0.5312  0.6543
  140SAPE   H4X15304   2.834  -0.431   9.813  1.0034 -1.0539  0.6952
  140SAPE   H4Y15305   2.984  -0.350   9.788 -0.0636  0.5480  0.1823
  140SAPE   C3515306   2.802  -0.239   9.713  0.1918 -0.3139 -0.0377
  140SAPE   H5X15307   2.854  -0.141   9.724  0.4033 -0.3779 -0.4580
  140SAPE   H5Y15308   2.700  -0.222   9.753  0.5103  1.5086  0.0839
  140SAPE   C3615309   2.801  -0.280   9.564  0.4423 -1.0864 -0.8638
  140SAPE   H6X15310   2.745  -0.204   9.506 -0.5240 -1.2588 -0.1886
  140SAPE   H6Y15311   2.746  -0.375   9.547  0.1926 -1.1452  0.1961
  140SAPE   C3715312   2.944  -0.297   9.510  0.3382  0.0536 -0.0523
  140SAPE   H7X15313   2.985  -0.393   9.548 -1.3481  0.3364  2.7466
  140SAPE   H7Y15314   3.003  -0.220   9.563  0.7225 -2.4204  3.5031
  140SAPE   C3815315   2.954  -0.287   9.355 -0.3577 -1.4083  0.2701
  140SAPE   H8X15316   3.059  -0.314   9.330  0.6142  2.7353 -0.8448
  140SAPE   H8Y15317   2.939  -0.182   9.323 -0.0256 -1.1648  0.8765
  140SAPE   C3915318   2.871  -0.388   9.274 -0.1938 -0.1820 -0.0603
  140SAPE   H9X15319   2.768  -0.348   9.282 -0.3342 -0.0198 -2.0352
  140SAPE   H9Y15320   2.879  -0.492   9.309 -0.3439 -0.3940 -0.6348
  140SAPE  C31015321   2.922  -0.380   9.129  0.3166 -0.1278 -0.4412
  140SAPE  H10X15322   3.015  -0.438   9.113  2.0102  2.2464  0.2883
  140SAPE  H10Y15323   2.943  -0.275   9.097 -0.5586 -0.2622 -1.5337
  140SAPE  C31115324   2.813  -0.441   9.036 -0.3518 -0.5581  0.2744
  140SAPE  H11X15325   2.714  -0.392   9.046  0.1552  0.1763  2.2143
  140SAPE  H11Y15326   2.799  -0.548   9.062 -0.7304 -0.6783 -0.4149
  140SAPE  C31215327   2.859  -0.428   8.888 -0.1528  0.0035  0.4917
  140SAPE  H12X15328   2.970  -0.435   8.880 -0.2348  0.0329 -0.9772
  140SAPE  H12Y15329   2.842  -0.322   8.859 -0.6823  0.0423  0.9163
  140SAPE  C31315330   2.780  -0.513   8.788 -0.0101  0.1024  0.7577
  140SAPE  H13X15331   2.785  -0.463   8.689  2.0307 -2.1636 -0.4164
  140SAPE  H13Y15332   2.673  -0.519   8.815 -0.9991 -0.6344 -2.8305
  140SAPE  C31415333   2.831  -0.660   8.783 -0.0518  0.6258  0.3344
  140SAPE  H14X15334   2.757  -0.728   8.734 -0.0612  0.4607  0.5749
  140SAPE  H14Y15335   2.833  -0.702   8.886 -1.7702  1.7406  0.8626
  140SAPE  C31515336   2.964  -0.675   8.706  0.0544  0.0355 -0.7044
  140SAPE  H15X15337   3.043  -0.624   8.765  0.6422 -0.3657 -1.1297
  140SAPE  H15Y15338   2.959  -0.625   8.607  0.9707  0.0209 -0.7709
  140SAPE  C31615339   2.991  -0.831   8.693  0.9381 -0.0752 -0.2031
  140SAPE  H16X15340   2.897  -0.887   8.675  0.5501 -0.1808  1.9799
  140SAPE  H16Y15341   3.033  -0.877   8.785 -0.5161  0.9151  0.9945
  140SAPE  C31715342   3.087  -0.868   8.579 -0.3282 -0.1578  0.0361
  140SAPE  H17X15343   3.051  -0.824   8.483 -0.4136 -0.8335 -0.2430
  140SAPE  H17Y15344   3.087  -0.978   8.569 -3.7019 -0.0927 -2.3565
  140SAPE  C31815345   3.237  -0.826   8.611 -0.0327 -0.2784  0.1199
  140SAPE  H18X15346   3.245  -0.715   8.611 -1.2086 -0.1685 -0.8437
  140SAPE  H18Y15347   3.297  -0.859   8.523  1.2651 -0.0911  0.9168
  140SAPE  H18Z15348   3.271  -0.869   8.707 -1.8863 -0.9637  0.5154
  141SAPE     N15349   4.462   1.011  10.870 -0.8443 -0.1496 -0.2573
  141SAPE   HN115350   4.448   0.920  10.823  0.5464 -2.2299  3.0170
  141SAPE   HN215351   4.410   1.079  10.812 -0.5346 -1.4056 -2.0828
  141SAPE   HN315352   4.563   1.036  10.872 -0.5798 -0.8448 -2.4122
  141SAPE   C1215353   4.404   0.993  11.006  0.0196  0.1698 -0.3607
  141SAPE  H12A15354   4.305   1.041  11.018  0.0700 -0.0711  1.2203
  141SAPE  H12B15355   4.471   1.035  11.085 -0.8505 -0.7345  0.8919
  141SAPE   C1115356   4.395   0.840  11.036 -0.8883  0.6879  0.1836
  141SAPE  H11A15357   4.340   0.787  10.956  1.8401 -2.0811 -0.0440
  141SAPE  H11B15358   4.339   0.831  11.132 -0.8095  0.4296  0.2051
  141SAPE     P15359   4.620   0.717  10.957  0.0368  0.1755 -0.4896
  141SAPE   O1315360   4.748   0.784  10.969  0.5938  0.3735 -0.6031
  141SAPE   O1415361   4.607   0.570  10.988  0.1569  0.4108  0.0709
  141SAPE   O1215362   4.523   0.786  11.060  0.1156  0.5666  1.1256
  141SAPE   O1115363   4.547   0.751  10.822 -0.5183 -0.5896  0.0482
  141SAPE    C115364   4.609   0.706  10.701  0.3201 -0.1463 -0.6398
  141SAPE    HA15365   4.703   0.764  10.689  0.7653 -0.4962  0.9425
  141SAPE    HB15366   4.636   0.598  10.706 -1.8100 -0.7065 -0.1648
  141SAPE    C215367   4.534   0.727  10.567  1.1056  0.4109 -0.6144
  141SAPE    HS15368   4.611   0.717  10.487  1.0469  1.6853 -0.8557
  141SAPE   O2115369   4.484   0.858  10.577  0.3811  0.1786  0.0956
  141SAPE   C2115370   4.451   0.913  10.463 -0.0202  0.7933 -0.0917
  141SAPE   O2215371   4.466   0.860  10.356  0.8987  0.0342  0.2145
  141SAPE   C2215372   4.400   1.056  10.472  0.5453  0.7813  0.4223
  141SAPE   H2R15373   4.305   1.067  10.528  0.9040  0.6126  1.0721
  141SAPE   H2S15374   4.472   1.106  10.540  1.3208 -0.2928  0.4019
  141SAPE    C315375   4.418   0.619  10.549 -0.3944 -0.3182  0.7338
  141SAPE    HX15376   4.377   0.642  10.448 -0.0254 -1.6006  0.2629
  141SAPE    HY15377   4.341   0.642  10.625 -1.5835  2.6507 -1.1809
  141SAPE   O3115378   4.463   0.482  10.562 -0.1611 -0.3088  0.2919
  141SAPE   C3115379   4.509   0.425  10.451  0.2727  0.0830  0.3533
  141SAPE   O3215380   4.532   0.484  10.346 -0.0173  0.1111 -0.3571
  141SAPE   C3215381   4.524   0.274  10.486 -0.1041  0.4192  0.2579
  141SAPE   H2X15382   4.418   0.242  10.490 -0.2022  0.4045 -1.5789
  141SAPE   H2Y15383   4.575   0.266  10.585  1.1848 -0.0260 -0.4098
  141SAPE   C2315384   4.395   1.127  10.335  0.4329 -0.1574 -0.5955
  141SAPE   H3R15385   4.322   1.083  10.263  0.7812 -2.1764  0.2179
  141SAPE   H3S15386   4.497   1.128  10.291  0.1259 -4.3676 -1.8373
  141SAPE   C2415387   4.342   1.273  10.352 -0.0694  0.1693  0.8263
  141SAPE   H4R15388   4.253   1.258  10.417  0.3806  0.6041  1.5502
  141SAPE   H4S15389   4.308   1.310  10.253 -0.1908 -1.1077  0.3772
  141SAPE   C2515390   4.447   1.366  10.412 -1.1624  0.4185 -0.5242
  141SAPE   H5R15391   4.472   1.354  10.518  0.8368  2.3228 -0.7231
  141SAPE   C2615392   4.502   1.469  10.349 -0.5135 -0.1151  0.4370
  141SAPE   H6R15393   4.593   1.507  10.397 -0.2825 -1.0468  0.7686
  141SAPE   C2715394   4.473   1.509  10.203  0.4213 -1.1051  0.4119
  141SAPE   H7R15395   4.485   1.430  10.126 -0.6571 -0.8296 -0.0588
  141SAPE   H7S15396   4.556   1.579  10.177  1.3436 -1.9853  0.9185
  141SAPE   C2815397   4.341   1.584  10.209  0.1460  0.1962 -0.1102
  141SAPE   H8R15398   4.285   1.575  10.303 -0.2057  2.2904 -0.0687
  141SAPE   C2915399   4.303   1.671  10.114 -0.5842  0.0526  0.1695
  141SAPE   H9R15400   4.220   1.740  10.132  1.3029  2.4150  0.3914
  141SAPE  C21015401   4.389   1.711   9.993  0.0760  0.4906  0.0858
  141SAPE  H10R15402   4.406   1.619   9.933 -0.7829  1.9437 -2.5545
  141SAPE  H10S15403   4.491   1.747  10.014  0.4310 -1.4207  2.0184
  141SAPE  C21115404   4.327   1.798   9.886  0.2821  0.2214  0.5174
  141SAPE  H11R15405   4.348   1.905   9.901  0.6205  0.5296 -1.8375
  141SAPE  C21215406   4.263   1.759   9.770 -0.8186  0.0160 -0.2348
  141SAPE  H12R15407   4.247   1.838   9.695  0.1037  2.1070  1.6530
  141SAPE  C21315408   4.246   1.614   9.719 -0.2767 -0.6598 -0.2814
  141SAPE  H13R15409   4.148   1.632   9.670  0.4501  0.6177 -1.3436
  141SAPE  H13S15410   4.232   1.549   9.808  1.4717 -2.3467 -1.1550
  141SAPE  C21415411   4.351   1.571   9.620 -0.2551 -0.3626  1.1038
  141SAPE  H14R15412   4.447   1.536   9.662  1.2899  1.0193 -1.0801
  141SAPE  C21515413   4.334   1.564   9.485 -0.3285 -0.2029 -0.5974
  141SAPE  H15R15414   4.417   1.526   9.424  1.7236 -0.6700  2.2779
  141SAPE  C21615415   4.208   1.599   9.405  0.7311  0.3862 -0.0913
  141SAPE  H16R15416   4.193   1.708   9.394  0.1995  0.2977 -0.3016
  141SAPE  H16S15417   4.111   1.567   9.448  1.5697 -0.8563  0.9302
  141SAPE  C21715418   4.238   1.536   9.267 -0.4494  0.2866  0.3028
  141SAPE  H17R15419   4.342   1.564   9.238 -0.0553 -0.5745  0.8640
  141SAPE  H17S15420   4.179   1.592   9.190 -1.8653 -1.3914  0.1052
  141SAPE  C21815421   4.228   1.387   9.258  0.1315 -0.5834  0.4800
  141SAPE  H18R15422   4.123   1.353   9.276  0.7292 -2.0495  1.3841
  141SAPE  H18S15423   4.300   1.335   9.326 -0.1422  1.5914  2.5600
  141SAPE  C21915424   4.247   1.339   9.116 -0.7677  0.6309 -0.1863
  141SAPE  H19R15425   4.344   1.386   9.087  0.8358 -2.3082  0.1128
  141SAPE  H19S15426   4.174   1.399   9.057 -1.0309 -1.1723 -1.7878
  141SAPE  C22015427   4.241   1.190   9.080 -0.0763  0.0142  0.5876
  141SAPE  H20R15428   4.282   1.185   8.976 -1.0454  2.0764  0.0526
  141SAPE  H20S15429   4.141   1.145   9.068 -0.2968 -0.2577  2.9426
  141SAPE  H20T15430   4.314   1.127   9.136  1.5015  0.1929 -1.1360
  141SAPE   C3315431   4.605   0.201  10.380 -0.5136  0.0684 -0.6353
  141SAPE   H3X15432   4.576   0.217  10.274  1.1268 -2.7530 -1.6153
  141SAPE   H3Y15433   4.587   0.093  10.401 -2.0025  0.1457 -1.3270
  141SAPE   C3415434   4.751   0.235  10.402  0.3093  0.2518  0.7887
  141SAPE   H4X15435   4.783   0.212  10.506  1.5827  1.2812  0.6432
  141SAPE   H4Y15436   4.767   0.343  10.383 -1.1626  0.2087 -0.9208
  141SAPE   C3515437   4.835   0.154  10.305  0.0847 -0.5027  0.0098
  141SAPE   H5X15438   4.811   0.047  10.319 -0.0026 -0.7014 -1.4582
  141SAPE   H5Y15439   4.940   0.178  10.332  0.6161  0.1347 -2.3855
  141SAPE   C3615440   4.830   0.202  10.165  0.4078  0.1561 -0.2230
  141SAPE   H6X15441   4.833   0.313  10.168  1.2142  0.1858 -1.3439
  141SAPE   H6Y15442   4.730   0.175  10.126 -0.6527 -0.7228  2.9127
  141SAPE   C3715443   4.942   0.150  10.078 -0.3856 -0.2463 -0.1428
  141SAPE   H7X15444   4.961   0.043  10.103 -1.3203 -0.2430  0.6179
  141SAPE   H7Y15445   5.029   0.216  10.099 -1.8927  2.3252 -1.4849
  141SAPE   C3815446   4.923   0.166   9.924 -0.3534 -0.2215 -0.2294
  141SAPE   H8X15447   4.946   0.273   9.904 -0.8090 -0.0545  0.1154
  141SAPE   H8Y15448   4.818   0.150   9.893 -0.9276  0.2059  1.3423
  141SAPE   C3915449   5.004   0.066   9.845  0.1753  0.4204 -0.0174
  141SAPE   H9X15450   4.987  -0.042   9.863  0.7812  0.3984  0.4619
  141SAPE   H9Y15451   5.111   0.087   9.869  0.2950  1.7034 -1.4831
  141SAPE  C31015452   4.987   0.083   9.692  0.6862  0.1777 -0.5932
  141SAPE  H10X15453   4.975   0.193   9.683 -2.8335 -0.1567 -1.5463
  141SAPE  H10Y15454   4.889   0.034   9.674 -0.3374  1.9302  0.0034
  141SAPE  C31115455   5.096   0.024   9.609 -0.0228 -0.3913  0.1276
  141SAPE  H11X15456   5.123  -0.080   9.637  1.9768 -0.1127 -0.5610
  141SAPE  H11Y15457   5.190   0.080   9.633  0.4837 -0.8416 -0.7287
  141SAPE  C31215458   5.073   0.042   9.458  0.1570 -0.5664  0.3555
  141SAPE  H12X15459   5.110   0.140   9.423  0.7605 -0.1801  1.9783
  141SAPE  H12Y15460   4.964   0.026   9.441 -0.0459  1.0869 -0.0061
  141SAPE  C31315461   5.160  -0.059   9.377  0.1165  0.6233  0.2785
  141SAPE  H13X15462   5.122  -0.163   9.380 -0.0058  0.6081 -1.2030
  141SAPE  H13Y15463   5.260  -0.072   9.422  0.3334 -1.3636 -0.6534
  141SAPE  C31415464   5.166  -0.018   9.234  0.0742  0.4882  0.1063
  141SAPE  H14X15465   5.203   0.087   9.232  1.5105  0.0312  1.1783
  141SAPE  H14Y15466   5.071  -0.029   9.178 -1.2510  0.2165  2.2969
  141SAPE  C31515467   5.273  -0.105   9.158  0.3816 -0.1493 -0.1343
  141SAPE  H15X15468   5.258  -0.208   9.195  0.9996 -0.4803 -0.7780
  141SAPE  H15Y15469   5.381  -0.086   9.178  0.0054  1.2477  0.7020
  141SAPE  C31615470   5.258  -0.102   9.005  0.2630 -0.6288 -0.2713
  141SAPE  H16X15471   5.265   0.008   8.986  0.1063 -0.3023  1.3728
  141SAPE  H16Y15472   5.159  -0.146   8.984  0.3533 -1.6222  1.1983
  141SAPE  C31715473   5.357  -0.184   8.933 -0.6893  1.3812 -1.1248
  141SAPE  H17X15474   5.350  -0.293   8.955  3.4485  1.0760 -0.3734
  141SAPE  H17Y15475   5.461  -0.163   8.968 -0.1056 -0.2593 -1.7742
  141SAPE  C31815476   5.342  -0.169   8.781  0.0867  0.7004  0.0380
  141SAPE  H18X15477   5.235  -0.167   8.754  0.6132  0.2334 -2.2887
  141SAPE  H18Y15478   5.384  -0.257   8.727  0.7891  1.0848 -0.0613
  141SAPE  H18Z15479   5.403  -0.086   8.738 -0.4012  0.7138 -0.6366
  142SAPE     N15480   3.657   5.981  10.883 -0.2554  0.0043  0.2541
  142SAPE   HN115481   3.566   6.031  10.872 -1.2596 -1.4535  1.4957
  142SAPE   HN215482   3.717   6.008  10.802  1.1095 -0.8497  0.9453
  142SAPE   HN315483   3.636   5.880  10.898 -0.7222  0.3631  2.2110
  142SAPE   C1215484   3.731   6.033  11.004  0.4959 -0.7578  0.2370
  142SAPE  H12A15485   3.819   5.968  11.024  1.3542  0.3209  0.0442
  142SAPE  H12B15486   3.660   6.027  11.089  0.4188 -1.0385  0.1555
  142SAPE   C1115487   3.788   6.170  10.973  1.0674 -0.1470  0.0982
  142SAPE  H11A15488   3.832   6.169  10.871  2.6458  1.1907  0.7247
  142SAPE  H11B15489   3.863   6.196  11.051  2.0636 -0.2497 -0.8052
  142SAPE     P15490   3.702   6.413  10.997  0.1136  0.1011 -0.2749
  142SAPE   O1315491   3.588   6.471  11.073  0.2865 -0.2659  0.3647
  142SAPE   O1415492   3.833   6.450  11.048  0.2423 -0.0342  0.2288
  142SAPE   O1215493   3.682   6.256  10.996  0.3604 -0.1327  0.6799
  142SAPE   O1115494   3.701   6.452  10.846  0.2269  0.0365 -0.0494
  142SAPE    C115495   3.571   6.426  10.781 -0.4027  0.1187 -0.7207
  142SAPE    HA15496   3.545   6.319  10.801  1.8584 -0.3335  0.2328
  142SAPE    HB15497   3.490   6.489  10.823  1.8400 -0.0290  4.8015
  142SAPE    C215498   3.569   6.443  10.632  0.1160 -0.6801  0.1963
  142SAPE    HS15499   3.476   6.407  10.583  1.6153 -4.2947 -0.2648
  142SAPE   O2115500   3.681   6.379  10.570 -0.1058  0.1628 -0.0513
  142SAPE   C2115501   3.689   6.244  10.576 -0.1808  0.2555 -0.0941
  142SAPE   O2215502   3.602   6.171  10.615 -0.2831  0.6373 -0.2246
  142SAPE   C2215503   3.827   6.192  10.515  0.0480 -0.2170  0.0304
  142SAPE   H2R15504   3.795   6.152  10.417 -2.1851 -0.2840  0.7260
  142SAPE   H2S15505   3.901   6.275  10.507  1.5940 -1.6914 -1.8424
  142SAPE    C315506   3.579   6.593  10.591 -0.2141  0.2774 -0.2310
  142SAPE    HX15507   3.673   6.640  10.627 -0.9444  0.6449  1.3046
  142SAPE    HY15508   3.488   6.642  10.632  0.0076  0.8891 -0.4507
  142SAPE   O3115509   3.585   6.609  10.447  0.0529  0.0008 -0.2782
  142SAPE   C3115510   3.477   6.576  10.379 -0.1131 -0.1566 -0.1500
  142SAPE   O3215511   3.370   6.565  10.427  0.0754 -0.0806 -0.6636
  142SAPE   C3215512   3.517   6.547  10.238 -0.3350 -0.4392 -0.0151
  142SAPE   H2X15513   3.585   6.460  10.234 -0.8003 -0.7843 -0.6923
  142SAPE   H2Y15514   3.559   6.639  10.192 -1.2143 -0.3553 -0.6821
  142SAPE   C2315515   3.900   6.080  10.595 -1.1416 -0.8169 -0.0256
  142SAPE   H3R15516   3.826   6.000  10.616 -1.1485 -1.2143 -1.4326
  142SAPE   H3S15517   3.941   6.123  10.689  0.0484  1.9460 -1.6862
  142SAPE   C2415518   4.012   5.999  10.510  0.0645  0.0821 -0.5344
  142SAPE   H4R15519   3.974   5.945  10.420 -0.0203  0.5997 -0.8158
  142SAPE   H4S15520   4.028   5.907  10.571 -1.3793 -0.8112 -1.4174
  142SAPE   C2515521   4.139   6.069  10.469  0.0682 -0.8203 -0.4382
  142SAPE   H5R15522   4.202   6.106  10.552 -0.2772  1.3800 -1.1016
  142SAPE   C2615523   4.165   6.102  10.341  0.5239  0.1789 -0.7637
  142SAPE   H6R15524   4.257   6.162  10.331 -0.4435  2.2933  1.9492
  142SAPE   C2715525   4.083   6.065  10.221 -0.3485  0.2379  0.6202
  142SAPE   H7R15526   4.094   6.148  10.148  1.9384 -1.2451 -0.8649
  142SAPE   H7S15527   3.976   6.043  10.240 -0.6140  0.2416 -0.7205
  142SAPE   C2815528   4.125   5.930  10.167  0.9109 -0.4747 -0.2461
  142SAPE   H8R15529   4.115   5.845  10.237 -3.0600  1.0271  1.2849
  142SAPE   C2915530   4.184   5.905  10.046  0.6038 -0.2031 -0.7535
  142SAPE   H9R15531   4.211   5.804  10.014 -1.0837 -0.1501 -2.4785
  142SAPE  C21015532   4.202   6.008   9.941 -0.0184 -0.3637  0.2357
  142SAPE  H10R15533   4.127   6.089   9.948  1.0636  0.6381  0.4119
  142SAPE  H10S15534   4.179   5.965   9.841 -0.9029  0.9053 -0.1270
  142SAPE  C21115535   4.340   6.075   9.939  0.2710  1.2505  0.7917
  142SAPE  H11R15536   4.378   6.093  10.041  0.9243  0.7427  0.6430
  142SAPE  C21215537   4.420   6.112   9.832 -0.4129 -0.0971 -0.3813
  142SAPE  H12R15538   4.519   6.152   9.859 -0.8999  1.5596 -0.9781
  142SAPE  C21315539   4.381   6.101   9.682  0.4427 -0.4263 -0.6241
  142SAPE  H13R15540   4.361   5.999   9.644  0.6088 -2.3884  3.9435
  142SAPE  H13S15541   4.477   6.124   9.631  2.6965 -0.8073  3.0848
  142SAPE  C21415542   4.255   6.185   9.657 -0.1516 -0.5649  0.0740
  142SAPE  H14R15543   4.158   6.147   9.692 -0.1143 -0.5632  0.1767
  142SAPE  C21515544   4.252   6.294   9.573  0.6820  0.2934 -0.9466
  142SAPE  H15R15545   4.158   6.349   9.553  0.1454 -0.0758  0.4669
  142SAPE  C21615546   4.367   6.351   9.503 -0.3856  0.5139 -0.6403
  142SAPE  H16R15547   4.460   6.333   9.560 -0.6575  0.1805 -0.2940
  142SAPE  H16S15548   4.339   6.458   9.492 -3.8192 -0.0929  0.8532
  142SAPE  C21715549   4.377   6.295   9.354 -0.3125  0.2029 -0.7273
  142SAPE  H17R15550   4.285   6.328   9.301 -0.9562  2.0227  1.3827
  142SAPE  H17S15551   4.369   6.184   9.354  0.2930  0.0996  2.1117
  142SAPE  C21815552   4.499   6.327   9.278 -0.4141 -0.1453 -0.0600
  142SAPE  H18R15553   4.590   6.332   9.342 -0.3690  2.3235 -0.2330
  142SAPE  H18S15554   4.487   6.434   9.251 -3.0169  0.3064  2.4113
  142SAPE  C21915555   4.526   6.236   9.153 -0.1198 -1.0151  0.3430
  142SAPE  H19R15556   4.548   6.136   9.193  0.1226  0.1964  3.4873
  142SAPE  H19S15557   4.617   6.278   9.104  0.6527 -2.2029  0.7253
  142SAPE  C22015558   4.416   6.224   9.047 -0.4866 -0.8928  0.2846
  142SAPE  H20R15559   4.326   6.169   9.083 -0.3683 -2.2194 -1.2998
  142SAPE  H20S15560   4.455   6.162   8.963 -1.5476 -0.5609 -0.4824
  142SAPE  H20T15561   4.374   6.320   9.010 -3.7884 -1.8339  1.2427
  142SAPE   C3315562   3.389   6.516  10.154  0.0187 -0.1128 -0.0649
  142SAPE   H3X15563   3.306   6.588  10.169 -1.4942 -1.8767  0.3591
  142SAPE   H3Y15564   3.356   6.410  10.164  0.2401 -0.1832 -0.0670
  142SAPE   C3415565   3.431   6.542  10.009  0.2623  0.3033  0.3869
  142SAPE   H4X15566   3.507   6.479   9.958 -1.2637 -0.8863 -0.5244
  142SAPE   H4Y15567   3.464   6.647   9.997 -0.3750  0.3546 -1.3599
  142SAPE   C3515568   3.298   6.530   9.931  0.1678  0.2137  0.4725
  142SAPE   H5X15569   3.217   6.588   9.979 -2.0174 -3.1538  1.1555
  142SAPE   H5Y15570   3.271   6.422   9.931  1.3437 -0.1194 -1.0074
  142SAPE   C3615571   3.314   6.581   9.788 -0.0038 -0.2588  1.2214
  142SAPE   H6X15572   3.306   6.692   9.786 -0.7252 -0.3033  1.5453
  142SAPE   H6Y15573   3.227   6.542   9.731  1.7701 -0.5171 -1.4885
  142SAPE   C3715574   3.448   6.545   9.706  0.9647  0.1930  0.2357
  142SAPE   H7X15575   3.441   6.434   9.700  0.4712  0.3022 -1.7741
  142SAPE   H7Y15576   3.533   6.572   9.772 -1.5257  2.1929  2.8965
  142SAPE   C3815577   3.453   6.582   9.560 -0.0015 -0.1153  0.5508
  142SAPE   H8X15578   3.547   6.547   9.513 -0.5022 -2.8369  1.3641
  142SAPE   H8Y15579   3.468   6.692   9.551  1.8878 -0.4359 -0.5711
  142SAPE   C3915580   3.342   6.527   9.473 -1.2551 -0.3840 -0.4189
  142SAPE   H9X15581   3.249   6.569   9.517 -0.6248 -0.9851  1.6050
  142SAPE   H9Y15582   3.328   6.417   9.488  0.8971 -0.4005  2.2372
  142SAPE  C31015583   3.356   6.559   9.323 -0.8238 -0.0539 -0.3680
  142SAPE  H10X15584   3.293   6.494   9.259 -0.7615  0.2681 -0.7574
  142SAPE  H10Y15585   3.461   6.538   9.295 -0.8809 -0.9986  0.0967
  142SAPE  C31115586   3.334   6.710   9.294 -0.7293 -0.5071  0.5476
  142SAPE  H11X15587   3.430   6.752   9.330 -0.8614 -1.4586  2.1000
  142SAPE  H11Y15588   3.242   6.747   9.345 -1.9056  0.6315 -2.2023
  142SAPE  C31215589   3.329   6.753   9.144 -0.4591  0.8418 -0.0202
  142SAPE  H12X15590   3.394   6.688   9.081 -0.8610 -1.0763  1.4591
  142SAPE  H12Y15591   3.363   6.858   9.133  1.7903  0.4030  1.9280
  142SAPE  C31315592   3.182   6.746   9.084  0.0133 -0.2584 -0.5315
  142SAPE  H13X15593   3.118   6.816   9.142 -0.3006 -0.5130 -0.5709
  142SAPE  H13Y15594   3.145   6.642   9.096 -0.1362  0.0885  2.6576
  142SAPE  C31415595   3.161   6.798   8.941 -0.2390 -0.3882 -0.0607
  142SAPE  H14X15596   3.215   6.732   8.870 -1.4537 -1.4315 -0.0384
  142SAPE  H14Y15597   3.197   6.903   8.934 -2.1868  0.2490 -1.0781
  142SAPE  C31515598   3.021   6.782   8.891 -0.1058  0.6772  0.6745
  142SAPE  H15X15599   2.938   6.802   8.962 -1.7199 -2.1924 -0.2154
  142SAPE  H15Y15600   3.013   6.673   8.868 -0.4677  0.3666  2.1514
  142SAPE  C31615601   2.991   6.848   8.758  0.6552 -0.4087  0.2079
  142SAPE  H16X15602   3.058   6.801   8.682 -0.8417 -1.7859 -0.3249
  142SAPE  H16Y15603   3.021   6.955   8.765 -1.6336  0.3601 -0.7086
  142SAPE  C31715604   2.846   6.836   8.707  0.0892 -0.1059 -0.2575
  142SAPE  H17X15605   2.782   6.891   8.779  2.1802  1.3358  0.5965
  142SAPE  H17Y15606   2.821   6.728   8.716  0.4286 -0.1251  0.4384
  142SAPE  C31815607   2.831   6.888   8.562 -0.4414 -0.2788  0.2943
  142SAPE  H18X15608   2.867   6.990   8.539  1.1299 -0.4590  1.7567
  142SAPE  H18Y15609   2.726   6.875   8.528 -0.4055 -1.2581  0.5257
  142SAPE  H18Z15610   2.878   6.818   8.490  0.8474  1.3359 -0.4914
  143SAPE     N15611   6.136   6.642  11.145 -0.2705  0.5172  0.7994
  143SAPE   HN115612   6.065   6.656  11.219 -0.4296  0.2973  0.6880
  143SAPE   HN215613   6.216   6.595  11.192 -1.0580  0.8837  2.5795
  143SAPE   HN315614   6.162   6.733  11.102 -1.1516  0.1298 -0.6157
  143SAPE   C1215615   6.057   6.558  11.038 -0.1906 -0.7989 -0.2178
  143SAPE  H12A15616   6.116   6.555  10.944  1.1027 -1.0176  0.5715
  143SAPE  H12B15617   5.958   6.606  11.031  0.3536  0.2121 -1.1460
  143SAPE   C1115618   6.052   6.412  11.080 -0.0911 -0.2148  0.3947
  143SAPE  H11A15619   5.997   6.357  11.001 -0.0517  0.4163 -0.0848
  143SAPE  H11B15620   6.008   6.401  11.181  2.5139 -2.4826  1.3941
  143SAPE     P15621   6.271   6.267  11.014  0.3486  0.0994 -0.0941
  143SAPE   O1315622   6.407   6.266  11.066 -0.0426 -0.0544  0.5684
  143SAPE   O1415623   6.202   6.139  11.008 -0.1412  0.1326  0.2040
  143SAPE   O1215624   6.186   6.371  11.097 -0.3767 -0.5446  0.0301
  143SAPE   O1115625   6.275   6.328  10.868 -0.5155  0.4765 -0.0282
  143SAPE    C115626   6.188   6.306  10.759 -0.3335  0.3175  0.6234
  143SAPE    HA15627   6.085   6.320  10.798 -0.1525 -0.7379  1.5193
  143SAPE    HB15628   6.204   6.381  10.678 -2.3269  0.0513 -0.0886
  143SAPE    C215629   6.227   6.168  10.689 -0.5987 -0.7045  0.0370
  143SAPE    HS15630   6.241   6.085  10.762 -1.2787 -2.2306 -1.4780
  143SAPE   O2115631   6.355   6.192  10.618 -0.3684  0.1813  0.4729
  143SAPE   C2115632   6.415   6.073  10.567  0.7054 -0.5976 -0.2604
  143SAPE   O2215633   6.370   5.964  10.575  0.5084  0.2353 -0.5102
  143SAPE   C2215634   6.536   6.116  10.483  0.3001 -0.4017 -0.1304
  143SAPE   H2R15635   6.511   6.219  10.451  0.2174  0.0066  1.1939
  143SAPE   H2S15636   6.619   6.115  10.557 -1.4364  0.3111  1.9050
  143SAPE    C315637   6.113   6.134  10.582 -0.1303  0.4680  0.3056
  143SAPE    HX15638   6.021   6.129  10.644  1.1006  0.1571  2.1889
  143SAPE    HY15639   6.132   6.033  10.539 -1.3561  0.4628 -0.2905
  143SAPE   O3115640   6.106   6.223  10.473  0.6082 -0.2219 -0.1372
  143SAPE   C3115641   6.013   6.316  10.476 -1.0398 -0.4064  0.4429
  143SAPE   O3215642   5.936   6.333  10.567 -0.0909 -0.2450 -0.2401
  143SAPE   C3215643   5.995   6.381  10.334 -0.1763  0.2073  0.0115
  143SAPE   H2X15644   5.938   6.309  10.271  0.1104 -0.6195  0.6820
  143SAPE   H2Y15645   6.094   6.396  10.284  0.2378  0.7200  0.9642
  143SAPE   C2315646   6.550   6.019  10.365  0.2694  0.4974  0.1453
  143SAPE   H3R15647   6.509   5.918  10.384  0.9682  0.3908  1.1244
  143SAPE   H3S15648   6.657   6.017  10.337  0.1142 -1.9316 -0.5085
  143SAPE   C2415649   6.479   6.073  10.241 -0.3146  0.1510 -0.7801
  143SAPE   H4R15650   6.511   6.178  10.222  1.9815 -0.2158  0.6277
  143SAPE   H4S15651   6.373   6.085  10.271  0.0913 -0.3777  1.0432
  143SAPE   C2515652   6.475   5.987  10.116 -0.2874  0.0489 -0.3324
  143SAPE   H5R15653   6.451   5.883  10.142  1.7647 -0.5685 -0.7649
  143SAPE   C2615654   6.503   6.010   9.984 -0.2041  0.2314 -0.1759
  143SAPE   H6R15655   6.484   5.929   9.912 -0.2809 -1.5334  1.7483
  143SAPE   C2715656   6.550   6.142   9.914 -0.0930  0.2583  0.5338
  143SAPE   H7R15657   6.582   6.223   9.983 -0.5290 -0.0333  1.0812
  143SAPE   H7S15658   6.467   6.189   9.857  1.5412  3.3038  0.4371
  143SAPE   C2815659   6.682   6.127   9.834 -0.8984 -0.3739 -0.4155
  143SAPE   H8R15660   6.765   6.082   9.891 -2.0218  0.4012  1.9561
  143SAPE   C2915661   6.682   6.150   9.703 -0.1639 -0.1405 -0.8578
  143SAPE   H9R15662   6.781   6.148   9.654  1.0327  1.6147  1.3544
  143SAPE  C21015663   6.567   6.201   9.619 -0.7067  0.1686  0.2966
  143SAPE  H10R15664   6.541   6.299   9.663  0.2294  1.1928 -1.3703
  143SAPE  H10S15665   6.478   6.137   9.641  0.5607 -0.7667  3.1121
  143SAPE  C21115666   6.590   6.218   9.471  0.0625 -0.3059 -0.0132
  143SAPE  H11R15667   6.695   6.213   9.438 -0.7728 -0.4698 -2.8827
  143SAPE  C21215668   6.499   6.251   9.379 -0.0725  0.3515  0.3299
  143SAPE  H12R15669   6.529   6.275   9.276  1.4530  1.1397  0.9178
  143SAPE  C21315670   6.359   6.287   9.408 -0.0987 -1.2161 -0.2111
  143SAPE  H13R15671   6.340   6.309   9.515  0.0737 -1.0858 -0.2074
  143SAPE  H13S15672   6.303   6.191   9.398 -0.8371 -0.9439  1.1305
  143SAPE  C21415673   6.307   6.389   9.309  0.0831 -0.4109 -0.1758
  143SAPE  H14R15674   6.347   6.491   9.314 -0.8940 -0.0457  0.3677
  143SAPE  C21515675   6.213   6.362   9.214  0.0573 -0.4171  0.1448
  143SAPE  H15R15676   6.190   6.438   9.138 -3.7385 -0.3508  1.1635
  143SAPE  C21615677   6.131   6.236   9.183  0.5132  0.1612  0.6370
  143SAPE  H16R15678   6.029   6.237   9.227 -0.4241 -0.9779 -1.3752
  143SAPE  H16S15679   6.177   6.144   9.227  0.7348  0.3359  0.7710
  143SAPE  C21715680   6.111   6.214   9.032 -0.1157  0.6855  0.8657
  143SAPE  H17R15681   6.082   6.311   8.986  0.3335  1.6599  2.5809
  143SAPE  H17S15682   6.033   6.139   9.006  0.8191 -0.2367  0.6127
  143SAPE  C21815683   6.238   6.159   8.968  0.2346 -0.3509 -0.1241
  143SAPE  H18R15684   6.275   6.078   9.033  3.6016  2.1810  1.4361
  143SAPE  H18S15685   6.327   6.225   8.978 -0.0718 -0.0891  0.9568
  143SAPE  C21915686   6.226   6.120   8.821  1.1558 -0.0483 -0.6646
  143SAPE  H19R15687   6.179   6.206   8.768  0.8621  0.5128  0.4761
  143SAPE  H19S15688   6.157   6.033   8.829 -0.5972  1.3287  0.0049
  143SAPE  C22015689   6.350   6.072   8.748 -0.0907 -0.8835  0.4149
  143SAPE  H20R15690   6.305   6.026   8.658 -0.7454 -0.7484  0.6678
  143SAPE  H20S15691   6.405   6.001   8.813  1.3081  0.0114  0.2489
  143SAPE  H20T15692   6.402   6.164   8.714 -2.4593  1.5219  2.7654
  143SAPE   C3315693   5.916   6.513  10.335 -0.3486  0.2579 -0.1877
  143SAPE   H3X15694   5.985   6.590  10.375  0.3787 -0.2129 -0.5212
  143SAPE   H3Y15695   5.835   6.498  10.409  0.5693  2.3102  1.3297
  143SAPE   C3415696   5.867   6.559  10.198  1.1433  0.4639 -0.0512
  143SAPE   H4X15697   5.819   6.659  10.207  0.7002  0.1439  1.3979
  143SAPE   H4Y15698   5.791   6.487  10.161  0.1754  1.3394  0.1703
  143SAPE   C3515699   5.972   6.558  10.080  0.5681 -0.1200 -0.5743
  143SAPE   H5X15700   6.021   6.459  10.071  0.7182 -0.1048  0.0565
  143SAPE   H5Y15701   6.049   6.630  10.114 -0.7585  1.1740 -0.2014
  143SAPE   C3615702   5.913   6.600   9.942 -0.1620 -0.0904 -0.1518
  143SAPE   H6X15703   5.845   6.686   9.958 -0.9061 -0.3642 -1.6239
  143SAPE   H6Y15704   5.862   6.502   9.929 -0.0833 -0.1301 -0.1581
  143SAPE   C3715705   6.025   6.624   9.843  0.0308  0.2756 -0.4971
  143SAPE   H7X15706   6.071   6.523   9.837 -0.3965  0.0848 -0.5257
  143SAPE   H7Y15707   6.101   6.701   9.870 -0.2058  0.7974 -1.2626
  143SAPE   C3815708   5.980   6.667   9.701 -0.0018 -0.7690  1.6289
  143SAPE   H8X15709   5.946   6.772   9.700  0.5467 -0.5456 -0.6337
  143SAPE   H8Y15710   5.902   6.601   9.658 -1.0269  0.9472  0.7703
  143SAPE   C3915711   6.096   6.665   9.599 -0.3267 -0.1057  0.5117
  143SAPE   H9X15712   6.143   6.566   9.581 -0.8384 -0.2745  0.0765
  143SAPE   H9Y15713   6.180   6.723   9.640 -0.7131  1.1312 -0.3835
  143SAPE  C31015714   6.071   6.740   9.465  0.5101  0.1261  0.2667
  143SAPE  H10X15715   6.019   6.835   9.490 -0.2410 -0.2240  0.0637
  143SAPE  H10Y15716   6.008   6.679   9.397  1.1766 -1.6615  1.1868
  143SAPE  C31115717   6.199   6.786   9.397 -0.3514  0.2495  0.2417
  143SAPE  H11X15718   6.264   6.696   9.397 -0.7593 -0.0519  0.9367
  143SAPE  H11Y15719   6.251   6.857   9.464  0.1386  1.5615 -1.4786
  143SAPE  C31215720   6.169   6.843   9.260  0.0675 -0.8946  0.6395
  143SAPE  H12X15721   6.093   6.923   9.276  1.3204  0.0912  1.8707
  143SAPE  H12Y15722   6.131   6.775   9.181 -0.9700 -0.1384  0.4677
  143SAPE  C31315723   6.286   6.923   9.200  0.0307  0.5790 -0.3696
  143SAPE  H13X15724   6.367   6.853   9.172  0.1721 -0.7794  2.9853
  143SAPE  H13Y15725   6.330   6.999   9.268  1.4079 -1.3416  0.9809
  143SAPE  C31415726   6.250   7.000   9.068  0.0121 -0.4302 -0.4414
  143SAPE  H14X15727   6.344   7.057   9.049  0.7345 -0.2160  3.0329
  143SAPE  H14Y15728   6.185   7.089   9.079  2.8131  2.1080 -2.6543
  143SAPE  C31515729   6.216   6.912   8.947 -0.2668  0.6278 -0.4629
  143SAPE  H15X15730   6.124   6.851   8.963 -0.2027  0.8581  0.8655
  143SAPE  H15Y15731   6.299   6.847   8.911  0.5294  3.1413 -3.5676
  143SAPE  C31615732   6.204   6.996   8.813  0.1489 -0.1639 -0.5692
  143SAPE  H16X15733   6.195   6.924   8.729 -3.6359 -1.0978  0.4291
  143SAPE  H16Y15734   6.293   7.062   8.808 -0.3691  0.5293 -0.7176
  143SAPE  C31715735   6.074   7.082   8.807  0.0126  0.1717 -0.3670
  143SAPE  H17X15736   6.071   7.149   8.896  3.1050 -1.1016  0.8246
  143SAPE  H17Y15737   5.983   7.018   8.804  0.1414  0.0120 -2.4089
  143SAPE  C31815738   6.057   7.170   8.684 -0.3377 -0.4582 -0.4443
  143SAPE  H18X15739   6.105   7.126   8.594  4.4100 -0.6353  1.8847
  143SAPE  H18Y15740   6.113   7.265   8.692  1.0674 -1.2293 -0.7717
  143SAPE  H18Z15741   5.948   7.191   8.676 -0.3336 -0.6745 -1.1750
  144SAPE     N15742   2.562   5.202  11.010  0.0774 -0.2063  0.4542
  144SAPE   HN115743   2.600   5.112  11.044 -1.0281 -0.5607  0.8178
  144SAPE   HN215744   2.640   5.239  10.952 -0.9367  0.9059 -0.2549
  144SAPE   HN315745   2.558   5.268  11.090 -0.5637 -0.0540  0.3055
  144SAPE   C1215746   2.433   5.179  10.930 -0.1790  0.1143 -0.1052
  144SAPE  H12A15747   2.383   5.273  10.899 -2.2307 -1.6110 -2.5195
  144SAPE  H12B15748   2.373   5.132  11.012  1.7803 -0.6793  0.9264
  144SAPE   C1115749   2.459   5.081  10.812 -0.2363  0.2741 -0.8604
  144SAPE  H11A15750   2.522   5.138  10.741  3.0579  0.1577  1.7214
  144SAPE  H11B15751   2.360   5.064  10.766 -0.4014 -0.9309 -0.1101
  144SAPE     P15752   2.523   4.843  10.761 -0.1688 -0.1216 -0.3489
  144SAPE   O1315753   2.611   4.739  10.815  0.2141 -0.4060  0.1409
  144SAPE   O1415754   2.385   4.795  10.734  0.6002  0.0545 -0.7354
  144SAPE   O1215755   2.525   4.961  10.861 -0.1469  0.0389 -0.0382
  144SAPE   O1115756   2.595   4.897  10.638 -0.0306  0.0925 -0.0671
  144SAPE    C115757   2.522   4.964  10.527  0.6912  0.5840  0.2200
  144SAPE    HA15758   2.417   4.991  10.549 -0.3210 -0.3909 -2.8466
  144SAPE    HB15759   2.567   5.065  10.517  0.6553  0.6362  0.5825
  144SAPE    C215760   2.527   4.876  10.393 -0.1727  0.8644 -0.0977
  144SAPE    HS15761   2.458   4.928  10.323 -0.6834 -0.5388 -0.6744
  144SAPE   O2115762   2.492   4.735  10.412  0.4466  0.2645  0.6431
  144SAPE   C2115763   2.363   4.718  10.429  0.7843  0.6657 -0.3598
  144SAPE   O2215764   2.278   4.803  10.421  0.3696  0.1248 -0.0428
  144SAPE   C2215765   2.318   4.576  10.438 -0.4913 -0.3315  0.4505
  144SAPE   H2R15766   2.375   4.524  10.357  0.5140  0.8233  0.3944
  144SAPE   H2S15767   2.349   4.531  10.535  0.8095 -0.4567 -0.0006
  144SAPE    C315768   2.675   4.881  10.338  0.3385 -0.4882  0.1776
  144SAPE    HX15769   2.736   4.844  10.424  0.3251  1.4822  1.0856
  144SAPE    HY15770   2.715   4.984  10.329  1.5389 -0.8871  0.6281
  144SAPE   O3115771   2.694   4.810  10.215  0.7894 -0.1420  0.0224
  144SAPE   C3115772   2.810   4.749  10.200  0.6162 -0.5168  0.0322
  144SAPE   O3215773   2.898   4.739  10.282  0.2708 -0.0504 -1.2498
  144SAPE   C3215774   2.811   4.667  10.071  0.0697 -0.2577 -0.2689
  144SAPE   H2X15775   2.717   4.608  10.071 -0.4880  0.6259 -0.2581
  144SAPE   H2Y15776   2.903   4.606  10.083  0.8791  1.1817  1.2182
  144SAPE   C2315777   2.160   4.571  10.420 -0.3006 -0.1828  0.4280
  144SAPE   H3R15778   2.109   4.635  10.496  0.5436  2.8793 -1.3980
  144SAPE   H3S15779   2.129   4.466  10.439 -1.8195 -0.3889 -2.6528
  144SAPE   C2415780   2.111   4.600  10.280 -0.4285  0.1488  0.0584
  144SAPE   H4R15781   2.134   4.707  10.260 -1.6186  0.2632 -0.8155
  144SAPE   H4S15782   2.003   4.584  10.258 -0.0065  0.3975 -2.4922
  144SAPE   C2515783   2.186   4.536  10.161 -0.0861 -0.8945  0.1351
  144SAPE   H5R15784   2.165   4.429  10.145  1.3687 -1.1162 -0.4683
  144SAPE   C2615785   2.263   4.600  10.067  0.3056  0.4665 -0.4765
  144SAPE   H6R15786   2.305   4.525   9.999  0.5582 -0.8556  1.0631
  144SAPE   C2715787   2.300   4.743  10.058 -0.3244  0.2126  0.3730
  144SAPE   H7R15788   2.285   4.791  10.157 -0.5621 -3.0434  2.0461
  144SAPE   H7S15789   2.227   4.793   9.991  2.8282  1.9294 -2.0483
  144SAPE   C2815790   2.436   4.765   9.998  0.2820 -0.3108  0.5529
  144SAPE   H8R15791   2.517   4.702  10.039 -0.7142 -1.2509  1.1337
  144SAPE   C2915792   2.463   4.818   9.875 -0.4051  0.3308 -0.3442
  144SAPE   H9R15793   2.567   4.834   9.843  0.2930  0.7733  1.9666
  144SAPE  C21015794   2.361   4.872   9.776 -0.0167  0.2079  0.6128
  144SAPE  H10R15795   2.411   4.931   9.696  0.6346  0.9419  1.5560
  144SAPE  H10S15796   2.281   4.930   9.828 -0.1616  0.3840  0.2010
  144SAPE  C21115797   2.299   4.754   9.698 -0.4328 -0.5020 -1.2113
  144SAPE  H11R15798   2.291   4.663   9.759 -1.8021 -0.1921 -0.8848
  144SAPE  C21215799   2.276   4.752   9.568 -0.1275 -0.6069 -0.2018
  144SAPE  H12R15800   2.218   4.672   9.519 -2.9178  1.3920 -0.4021
  144SAPE  C21315801   2.299   4.861   9.465  0.6950 -0.1734 -1.3002
  144SAPE  H13R15802   2.286   4.963   9.506 -2.1967 -0.7996 -0.4351
  144SAPE  H13S15803   2.221   4.870   9.386 -1.0092 -1.1896  0.1868
  144SAPE  C21415804   2.439   4.858   9.405 -1.1110 -0.1188 -0.3172
  144SAPE  H14R15805   2.514   4.840   9.483 -3.0683 -0.6136  1.5688
  144SAPE  C21515806   2.479   4.852   9.277  0.7456  0.3030 -0.2854
  144SAPE  H15R15807   2.585   4.858   9.249  0.9933  0.3858  0.6376
  144SAPE  C21615808   2.380   4.858   9.168  0.2620  0.1310  0.4364
  144SAPE  H16R15809   2.281   4.904   9.187  0.0493  0.1189 -0.5795
  144SAPE  H16S15810   2.352   4.752   9.149 -1.3839  0.5264  0.4768
  144SAPE  C21715811   2.442   4.921   9.045 -0.2119  0.2397 -0.4649
  144SAPE  H17R15812   2.539   4.877   9.014  0.6342  2.3025 -0.9565
  144SAPE  H17S15813   2.465   5.029   9.062  0.2689 -0.2827  2.8212
  144SAPE  C21815814   2.349   4.891   8.922 -0.3199  0.8093 -0.6797
  144SAPE  H18R15815   2.258   4.953   8.940 -1.2165  0.3009 -3.0591
  144SAPE  H18S15816   2.326   4.785   8.944  1.3956  0.8861  1.8494
  144SAPE  C21915817   2.412   4.935   8.789  1.0390  0.3553  0.5596
  144SAPE  H19R15818   2.493   4.865   8.757 -1.5773 -2.4633 -0.4503
  144SAPE  H19S15819   2.442   5.040   8.807 -1.4857  1.0929  0.8262
  144SAPE  C22015820   2.316   4.931   8.670 -0.5451  0.2192 -0.1898
  144SAPE  H20R15821   2.273   4.829   8.655 -0.4882  0.5122 -2.7415
  144SAPE  H20S15822   2.363   4.955   8.572 -0.7154  0.5060 -0.2008
  144SAPE  H20T15823   2.238   5.009   8.682  0.1009  1.3558 -2.7974
  144SAPE   C3315824   2.822   4.752   9.944  0.0040  0.2918 -0.2958
  144SAPE   H3X15825   2.925   4.791   9.931  1.1565 -2.0966  1.1317
  144SAPE   H3Y15826   2.758   4.841   9.964 -0.3260 -0.0419  0.1521
  144SAPE   C3415827   2.780   4.680   9.819 -0.3252 -0.0570  0.3847
  144SAPE   H4X15828   2.670   4.665   9.813  0.0721 -3.0299 -1.5117
  144SAPE   H4Y15829   2.824   4.579   9.803  2.3196  0.7253  2.1339
  144SAPE   C3515830   2.823   4.772   9.698 -0.5709 -0.1164 -0.0806
  144SAPE   H5X15831   2.928   4.802   9.720 -0.2313 -0.5493 -1.0782
  144SAPE   H5Y15832   2.766   4.864   9.725 -2.6024 -1.8368  1.9363
  144SAPE   C3615833   2.808   4.719   9.557  0.3092 -0.3954 -0.2355
  144SAPE   H6X15834   2.705   4.680   9.544  1.0180 -2.2363 -0.7396
  144SAPE   H6Y15835   2.876   4.631   9.547  0.3958 -0.2690 -0.7513
  144SAPE   C3715836   2.848   4.821   9.443 -0.5554 -0.4318 -0.0494
  144SAPE   H7X15837   2.939   4.873   9.479  1.4949 -1.1238 -3.8040
  144SAPE   H7Y15838   2.763   4.892   9.432  0.1959  0.2674 -1.6013
  144SAPE   C3815839   2.872   4.742   9.305 -0.6282 -0.2711  0.1343
  144SAPE   H8X15840   2.786   4.674   9.287 -0.2749 -1.5853  2.8039
  144SAPE   H8Y15841   2.964   4.680   9.309  1.6019  2.7354 -0.7667
  144SAPE   C3915842   2.882   4.842   9.191  0.4288 -0.6954  0.3256
  144SAPE   H9X15843   2.980   4.893   9.182 -0.9464  2.1463  0.6120
  144SAPE   H9Y15844   2.806   4.920   9.209  2.1462  0.8889  1.0816
  144SAPE  C31015845   2.861   4.772   9.053 -0.0435 -0.0992 -0.1402
  144SAPE  H10X15846   2.763   4.720   9.059 -0.4159  0.5526 -0.5171
  144SAPE  H10Y15847   2.940   4.694   9.043 -0.6977 -1.0952  1.8635
  144SAPE  C31115848   2.848   4.877   8.932  0.3482 -0.0979 -0.4486
  144SAPE  H11X15849   2.947   4.923   8.915  1.1851 -1.2070  1.1054
  144SAPE  H11Y15850   2.769   4.948   8.965  0.0361 -1.1216  1.1692
  144SAPE  C31215851   2.786   4.812   8.802  0.4403 -0.2907  0.1205
  144SAPE  H12X15852   2.683   4.771   8.813 -0.5781  1.8797 -0.6713
  144SAPE  H12Y15853   2.860   4.737   8.767  2.9626  0.5935  3.0985
  144SAPE  C31315854   2.777   4.930   8.704 -0.1592  0.1415  0.0699
  144SAPE  H13X15855   2.873   4.985   8.696  0.7954 -1.2481  1.2679
  144SAPE  H13Y15856   2.698   4.990   8.753 -2.5857 -1.6998 -1.3245
  144SAPE  C31415857   2.733   4.891   8.563  0.7102  0.1080 -0.2819
  144SAPE  H14X15858   2.717   4.987   8.510 -4.5641  0.3922  1.1816
  144SAPE  H14Y15859   2.630   4.849   8.562  0.8945 -0.3408 -0.9245
  144SAPE  C31515860   2.839   4.802   8.490 -0.0379  0.0674 -0.2591
  144SAPE  H15X15861   2.843   4.711   8.553 -2.6089 -0.1196 -0.2419
  144SAPE  H15Y15862   2.936   4.855   8.495  0.7632 -1.4771  1.7530
  144SAPE  C31615863   2.809   4.756   8.340  0.7973 -0.2845 -0.4277
  144SAPE  H16X15864   2.720   4.690   8.346 -0.2183  1.0921  0.0769
  144SAPE  H16Y15865   2.897   4.690   8.323  0.5484 -0.6932 -0.1400
  144SAPE  C31715866   2.806   4.875   8.242  0.2924 -0.4293 -0.0855
  144SAPE  H17X15867   2.749   4.953   8.296  0.4744 -0.5819  0.3332
  144SAPE  H17Y15868   2.756   4.864   8.144  0.9130  1.3928 -0.6498
  144SAPE  C31815869   2.947   4.933   8.215 -0.2109  0.5647  0.3612
  144SAPE  H18X15870   3.014   4.963   8.298  2.7630 -0.8654 -1.3413
  144SAPE  H18Y15871   2.958   5.019   8.145  3.5147  0.0802  0.1114
  144SAPE  H18Z15872   3.007   4.852   8.169  1.6565  3.1052 -2.0309
  145SAPE     N15873   1.015   5.313  11.165  0.3315  0.0064  0.4662
  145SAPE   HN115874   1.013   5.258  11.253  1.7273  0.4743  0.8075
  145SAPE   HN215875   0.921   5.353  11.144  0.2612  1.2365  2.8204
  145SAPE   HN315876   1.046   5.246  11.092 -2.0623 -0.1938 -0.4655
  145SAPE   C1215877   1.101   5.430  11.166 -0.3382 -0.7334 -0.1606
  145SAPE  H12A15878   1.146   5.443  11.066  1.9510 -3.0104  0.4670
  145SAPE  H12B15879   1.193   5.415  11.227 -0.2811  0.8283  0.1658
  145SAPE   C1115880   1.026   5.554  11.216  0.3292  0.0938 -0.0388
  145SAPE  H11A15881   1.108   5.629  11.225  0.6306  0.0262 -1.8746
  145SAPE  H11B15882   0.991   5.539  11.320 -0.3933 -1.7082 -0.4984
  145SAPE     P15883   0.880   5.744  11.125  0.2800 -0.0287 -0.2643
  145SAPE   O1315884   0.803   5.792  11.247  0.6312 -0.0547 -0.2968
  145SAPE   O1415885   1.006   5.819  11.099 -0.4167 -0.0500 -0.0936
  145SAPE   O1215886   0.914   5.590  11.137 -0.6902 -0.1613  0.1264
  145SAPE   O1115887   0.780   5.755  10.998 -0.2859 -0.4076 -0.4615
  145SAPE    C115888   0.717   5.634  10.942  0.1593  0.3118  0.1061
  145SAPE    HA15889   0.743   5.541  10.998 -2.6259 -0.6818 -0.0461
  145SAPE    HB15890   0.606   5.647  10.940  0.0865 -0.2482 -1.9292
  145SAPE    C215891   0.768   5.617  10.792 -0.1569  0.4142  1.1268
  145SAPE    HS15892   0.736   5.515  10.762  1.0480  0.7512 -1.6164
  145SAPE   O2115893   0.910   5.629  10.784  0.2999 -0.3495 -0.1713
  145SAPE   C2115894   0.974   5.514  10.806 -0.0632  0.6808 -0.5954
  145SAPE   O2215895   0.921   5.404  10.826  0.0373 -0.1194 -0.3231
  145SAPE   C2215896   1.123   5.547  10.808  0.1008 -0.1847  0.8450
  145SAPE   H2R15897   1.136   5.639  10.868  2.9783  0.5817 -0.7635
  145SAPE   H2S15898   1.179   5.463  10.855 -0.5189 -0.8565  0.4101
  145SAPE    C315899   0.705   5.726  10.699  0.3161  0.5614 -0.7611
  145SAPE    HX15900   0.734   5.825  10.741  0.2541  0.7577 -1.1800
  145SAPE    HY15901   0.596   5.712  10.717  0.5320 -1.7375 -0.9533
  145SAPE   O3115902   0.735   5.709  10.560  0.0142 -0.2891  0.1406
  145SAPE   C3115903   0.794   5.819  10.508 -0.5687  0.3580  0.2496
  145SAPE   O3215904   0.815   5.926  10.562 -0.0300 -0.0805 -0.1075
  145SAPE   C3215905   0.828   5.792  10.363 -0.8943  0.2852  0.6153
  145SAPE   H2X15906   0.802   5.686  10.339  0.1240  0.3533 -0.9685
  145SAPE   H2Y15907   0.939   5.803  10.359 -0.8040 -0.0397  1.7965
  145SAPE   C2315908   1.176   5.584  10.674 -0.0106 -0.2534  0.0847
  145SAPE   H3R15909   1.261   5.652  10.699 -0.0413 -0.1514 -0.0914
  145SAPE   H3S15910   1.103   5.642  10.614  2.1701  2.5705 -0.0807
  145SAPE   C2415911   1.236   5.466  10.599 -0.0435 -0.2798  0.5988
  145SAPE   H4R15912   1.296   5.396  10.660  1.1480  0.4036  0.2401
  145SAPE   H4S15913   1.306   5.503  10.521  0.6417  0.2443  1.4500
  145SAPE   C2515914   1.133   5.385  10.532  0.2876 -0.3962  0.2198
  145SAPE   H5R15915   1.087   5.305  10.592  0.8169  0.2323  1.4986
  145SAPE   C2615916   1.082   5.389  10.409  0.4505 -0.8430  0.8542
  145SAPE   H6R15917   1.015   5.305  10.384  0.3544 -0.4785 -0.1848
  145SAPE   C2715918   1.120   5.485  10.298  0.3921  0.0954 -0.1884
  145SAPE   H7R15919   1.205   5.437  10.245  0.4452  0.3573 -0.3440
  145SAPE   H7S15920   1.157   5.574  10.352 -1.3274  0.6987  0.0631
  145SAPE   C2815921   1.018   5.531  10.194  0.3536  0.5563 -1.2320
  145SAPE   H8R15922   0.971   5.627  10.218 -0.7846 -0.3441  0.3499
  145SAPE   C2915923   0.994   5.466  10.077 -0.0339  0.4646  0.2499
  145SAPE   H9R15924   0.927   5.518  10.007 -0.8538 -2.3227 -1.1638
  145SAPE  C21015925   1.057   5.339  10.033 -0.1976 -1.0504  0.5828
  145SAPE  H10R15926   0.972   5.272  10.008 -0.1671 -0.7345 -0.3879
  145SAPE  H10S15927   1.125   5.304  10.114  1.5997  0.8472 -0.0263
  145SAPE  C21115928   1.131   5.364   9.901 -0.4853 -0.1141 -0.5817
  145SAPE  H11R15929   1.238   5.383   9.917 -0.5543 -0.0708 -0.1576
  145SAPE  C21215930   1.076   5.370   9.782 -0.3015 -0.0607  0.5668
  145SAPE  H12R15931   1.145   5.401   9.703 -0.7644 -1.8263 -0.5874
  145SAPE  C21315932   0.928   5.350   9.743 -0.4099  0.5925  0.4568
  145SAPE  H13R15933   0.912   5.445   9.687  0.2537  1.0169  0.9644
  145SAPE  H13S15934   0.858   5.356   9.829  0.0592  0.2078  0.8724
  145SAPE  C21415935   0.900   5.229   9.655 -0.6816 -0.2864 -0.2663
  145SAPE  H14R15936   0.845   5.153   9.713 -0.3963 -0.3998 -0.1456
  145SAPE  C21515937   0.947   5.196   9.531 -0.3911 -0.9360  0.4996
  145SAPE  H15R15938   0.917   5.105   9.477  0.1210 -0.4238 -0.6895
  145SAPE  C21615939   1.041   5.292   9.443  0.0444 -0.3260 -0.6377
  145SAPE  H16R15940   1.147   5.259   9.438  0.4319 -0.1356  3.0217
  145SAPE  H16S15941   1.060   5.384   9.503 -1.2297 -0.1993 -0.3968
  145SAPE  C21715942   0.993   5.341   9.304  0.1334  0.5722  0.1318
  145SAPE  H17R15943   1.076   5.406   9.270  1.8084 -1.6458 -0.2543
  145SAPE  H17S15944   0.896   5.394   9.318  0.5250  0.8250  2.4273
  145SAPE  C21815945   0.997   5.223   9.205  1.3418 -0.0217 -0.5774
  145SAPE  H18R15946   0.897   5.176   9.212  1.2676  0.3013  0.9421
  145SAPE  H18S15947   1.075   5.156   9.249  2.2347  0.8715 -0.7622
  145SAPE  C21915948   1.031   5.262   9.063  0.3321 -0.1641 -0.1512
  145SAPE  H19R15949   1.128   5.315   9.053  2.1089 -2.9865  0.8567
  145SAPE  H19S15950   0.951   5.335   9.040 -0.0702 -0.3657  0.5474
  145SAPE  C22015951   1.027   5.147   8.956  0.6273 -0.3236  0.1445
  145SAPE  H20R15952   1.042   5.182   8.851 -1.3642 -2.1796 -0.8347
  145SAPE  H20S15953   0.935   5.086   8.961 -0.2811  1.0496  0.8973
  145SAPE  H20T15954   1.110   5.076   8.978  0.3358 -0.6258  0.2604
  145SAPE   C3315955   0.746   5.889  10.277  0.3064  0.1598  0.6650
  145SAPE   H3X15956   0.771   5.994  10.302  0.2449  0.0561  1.1795
  145SAPE   H3Y15957   0.640   5.869  10.303  0.7475 -0.8699  1.7976
  145SAPE   C3415958   0.764   5.868  10.121 -0.1981 -0.5981 -0.2238
  145SAPE   H4X15959   0.749   5.760  10.101  1.2101 -0.4965 -2.1292
  145SAPE   H4Y15960   0.870   5.890  10.096  0.4326 -2.4756  0.6387
  145SAPE   C3515961   0.665   5.936  10.033 -0.2373  0.5206 -0.4101
  145SAPE   H5X15962   0.658   6.043  10.065  0.7843  0.6603 -0.6166
  145SAPE   H5Y15963   0.564   5.890  10.035 -0.6702  1.3602 -1.9062
  145SAPE   C3615964   0.730   5.950   9.889  0.7693 -0.1958 -0.1541
  145SAPE   H6X15965   0.790   5.859   9.867  1.4200  0.5008 -1.4401
  145SAPE   H6Y15966   0.808   6.029   9.889  1.5169 -0.8872 -1.5020
  145SAPE   C3715967   0.630   5.988   9.780  0.5789 -0.1575 -0.8420
  145SAPE   H7X15968   0.592   6.089   9.807  3.7306  1.1820 -0.9699
  145SAPE   H7Y15969   0.552   5.910   9.789  1.3877 -0.8106  1.1126
  145SAPE   C3815970   0.693   5.994   9.639  0.0506  0.0889  0.3531
  145SAPE   H8X15971   0.716   5.887   9.616 -2.3080 -0.8093  1.8080
  145SAPE   H8Y15972   0.794   6.039   9.632  0.2107 -0.3568 -0.3720
  145SAPE   C3915973   0.607   6.055   9.536  0.2396  0.9445 -0.0111
  145SAPE   H9X15974   0.566   6.153   9.570 -1.8177  0.1005  0.0809
  145SAPE   H9Y15975   0.524   5.982   9.530  1.3031 -0.4613  1.5364
  145SAPE  C31015976   0.679   6.069   9.404 -0.4817 -0.0141  0.4792
  145SAPE  H10X15977   0.743   5.979   9.391 -0.5169  0.2438 -1.9348
  145SAPE  H10Y15978   0.739   6.162   9.404 -1.0658  0.3670  0.8131
  145SAPE  C31115979   0.579   6.049   9.289 -0.4957  0.0094 -0.3293
  145SAPE  H11X15980   0.509   6.134   9.279 -1.5875 -0.9502 -1.0274
  145SAPE  H11Y15981   0.517   5.960   9.313  0.2947 -0.0172  1.8700
  145SAPE  C31215982   0.642   6.019   9.148  0.7117 -0.0590  0.2078
  145SAPE  H12X15983   0.675   5.913   9.135  0.3517 -0.2487  0.7797
  145SAPE  H12Y15984   0.732   6.082   9.135 -0.1954  1.3106  0.4146
  145SAPE  C31315985   0.540   6.045   9.032  0.1491 -0.2910 -0.4113
  145SAPE  H13X15986   0.575   6.026   8.928  0.7181 -0.2527 -0.2291
  145SAPE  H13Y15987   0.524   6.154   9.047 -1.3333 -0.5493  0.0461
  145SAPE  C31415988   0.404   5.973   9.051  0.4294  0.2945 -0.4028
  145SAPE  H14X15989   0.349   6.040   9.122  2.5386 -0.6825  2.3528
  145SAPE  H14Y15990   0.406   5.874   9.100 -3.5242 -0.2119 -0.9805
  145SAPE  C31515991   0.325   5.973   8.922  0.5179  0.9095 -0.0063
  145SAPE  H15X15992   0.338   6.069   8.867 -2.0541  0.7566 -0.9988
  145SAPE  H15Y15993   0.217   5.964   8.947  1.1131  1.4961  3.2136
  145SAPE  C31615994   0.360   5.860   8.825  0.3186 -0.0361  0.0538
  145SAPE  H16X15995   0.466   5.878   8.799  0.6269 -2.1935 -0.3525
  145SAPE  H16Y15996   0.305   5.886   8.732  0.6313  1.6163  0.2907
  145SAPE  C31715997   0.350   5.724   8.883 -0.5466 -0.0461  0.2147
  145SAPE  H17X15998   0.247   5.721   8.925 -1.4964  0.2212 -1.9885
  145SAPE  H17Y15999   0.416   5.710   8.971  0.7480 -0.1238 -0.7444
  145SAPE  C31816000   0.369   5.609   8.781  0.7587  0.1712  0.4308
  145SAPE  H18X16001   0.307   5.522   8.810 -1.5101  1.5615 -0.0135
  145SAPE  H18Y16002   0.475   5.579   8.762  0.8017 -0.4740  1.6290
  145SAPE  H18Z16003   0.316   5.651   8.693  0.3023  1.1754  1.1595
  146SAPE     N16004   5.700   4.996  11.159  0.5099  0.1258 -0.0177
  146SAPE   HN116005   5.743   4.944  11.238  0.0274 -0.7131 -0.3007
  146SAPE   HN216006   5.766   5.076  11.147  1.4521 -0.2675  2.0069
  146SAPE   HN316007   5.613   5.038  11.197 -2.0520 -3.2962 -1.6797
  146SAPE   C1216008   5.653   4.912  11.041 -0.3427 -0.3908 -0.1636
  146SAPE  H12A16009   5.588   4.835  11.089  0.1101 -0.2526  0.6898
  146SAPE  H12B16010   5.741   4.865  10.992 -1.3007 -0.9563 -1.4125
  146SAPE   C1116011   5.572   5.008  10.950 -0.4534  0.1126  0.3499
  146SAPE  H11A16012   5.524   4.952  10.867  0.3010 -0.7880  0.5083
  146SAPE  H11B16013   5.646   5.076  10.901  0.2630 -0.0512  1.1726
  146SAPE     P16014   5.396   5.190  10.949  0.2334 -0.1541  0.0958
  146SAPE   O1316015   5.273   5.203  11.027  0.2178  0.2548  0.0526
  146SAPE   O1416016   5.477   5.307  10.926 -0.3830  0.7923  0.3643
  146SAPE   O1216017   5.479   5.079  11.022  0.0732 -0.1026  0.3701
  146SAPE   O1116018   5.361   5.133  10.804 -0.3970 -0.5094 -0.4165
  146SAPE    C116019   5.263   5.206  10.721 -0.1286 -0.0529  0.8137
  146SAPE    HA16020   5.197   5.123  10.688  1.0269 -0.7544  0.1900
  146SAPE    HB16021   5.213   5.294  10.766  0.7644  0.7602  0.2608
  146SAPE    C216022   5.326   5.258  10.589  0.3081 -0.4882  0.2896
  146SAPE    HS16023   5.358   5.363  10.603  0.9186 -0.1586 -2.8308
  146SAPE   O2116024   5.237   5.244  10.474 -0.0064 -0.2048  0.0647
  146SAPE   C2116025   5.135   5.326  10.486 -0.1430 -0.2092 -0.1333
  146SAPE   O2216026   5.139   5.428  10.555 -0.6284  0.1664 -0.3342
  146SAPE   C2216027   5.012   5.285  10.406  0.0560 -1.3024 -0.4356
  146SAPE   H2R16028   5.046   5.238  10.312  1.0615  0.0214 -0.7577
  146SAPE   H2S16029   4.953   5.210  10.464  0.3016 -0.7170  0.6052
  146SAPE    C316030   5.450   5.163  10.544  0.3736 -0.0159  0.0783
  146SAPE    HX16031   5.391   5.073  10.517 -2.1682  1.5797  0.0179
  146SAPE    HY16032   5.513   5.147  10.634 -0.3995  2.1203  1.0745
  146SAPE   O3116033   5.531   5.215  10.430  0.2723  0.0432  0.0976
  146SAPE   C3116034   5.623   5.301  10.468  0.3297  0.4935  0.6590
  146SAPE   O3216035   5.630   5.346  10.580 -0.0499 -0.0105  0.0562
  146SAPE   C3216036   5.705   5.326  10.346 -0.6660 -0.0858 -0.5301
  146SAPE   H2X16037   5.704   5.230  10.291 -2.2173  0.3569 -1.3276
  146SAPE   H2Y16038   5.813   5.342  10.370 -0.1080 -2.6475 -1.0846
  146SAPE   C2316039   4.923   5.403  10.365 -0.5970  0.0639  0.2015
  146SAPE   H3R16040   4.994   5.469  10.312  0.7306 -0.6143  1.0635
  146SAPE   H3S16041   4.892   5.458  10.456  0.0907 -0.5781  0.8362
  146SAPE   C2416042   4.803   5.355  10.285  0.2815  0.6669 -0.8588
  146SAPE   H4R16043   4.741   5.297  10.356  2.3095  0.5292  0.9282
  146SAPE   H4S16044   4.829   5.286  10.201 -1.3910 -0.1036 -0.7768
  146SAPE   C2516045   4.741   5.469  10.223 -0.0205 -0.4286 -0.2915
  146SAPE   H5R16046   4.705   5.544  10.295 -2.8075 -0.3945 -1.5791
  146SAPE   C2616047   4.709   5.489  10.092 -0.2302  0.1878  0.4284
  146SAPE   H6R16048   4.659   5.580  10.056 -0.4273  0.3276  1.0286
  146SAPE   C2716049   4.748   5.395   9.974 -0.5438 -0.0644 -0.0297
  146SAPE   H7R16050   4.682   5.436   9.894 -2.7008 -1.2838  1.0394
  146SAPE   H7S16051   4.709   5.293   9.994 -1.3508  0.3868  0.7468
  146SAPE   C2816052   4.895   5.384   9.937 -0.8345 -0.0629  0.0730
  146SAPE   H8R16053   4.968   5.364  10.018  1.2034 -2.4200 -2.1834
  146SAPE   C2916054   4.950   5.394   9.816  0.0611 -0.1082  0.0905
  146SAPE   H9R16055   5.059   5.387   9.803  0.2213 -0.4123  1.4125
  146SAPE  C21016056   4.874   5.428   9.690 -0.3433  0.1979  0.3628
  146SAPE  H10R16057   4.796   5.503   9.713  0.2975  0.2832  2.4428
  146SAPE  H10S16058   4.820   5.335   9.661  2.2547 -0.6386 -2.2110
  146SAPE  C21116059   4.961   5.496   9.584 -0.3160 -0.0100  0.3781
  146SAPE  H11R16060   5.004   5.593   9.612  0.3777 -0.0829 -0.3772
  146SAPE  C21216061   4.987   5.451   9.461 -0.3597 -0.1042 -0.7759
  146SAPE  H12R16062   5.053   5.516   9.402  0.7483  1.3108  1.8621
  146SAPE  C21316063   4.927   5.329   9.397  0.1935  0.3551  0.1147
  146SAPE  H13R16064   4.859   5.267   9.459 -1.3216 -0.1739 -1.9876
  146SAPE  H13S16065   5.009   5.258   9.373 -0.9679 -1.7737  2.0454
  146SAPE  C21416066   4.842   5.371   9.279  0.3893  0.2057  0.0344
  146SAPE  H14R16067   4.735   5.384   9.301 -0.0243 -2.6503  0.0949
  146SAPE  C21516068   4.882   5.380   9.150 -0.2575  0.4417 -0.4943
  146SAPE  H15R16069   4.812   5.415   9.073 -1.1972 -0.8807 -0.2675
  146SAPE  C21616070   5.023   5.360   9.101  0.1206 -0.3865  0.4118
  146SAPE  H16R16071   5.030   5.289   9.016 -1.7862  1.1541 -1.1196
  146SAPE  H16S16072   5.081   5.320   9.187 -2.2863 -1.0213  1.8420
  146SAPE  C21716073   5.099   5.490   9.063  0.7355 -0.0132 -0.1956
  146SAPE  H17R16074   5.207   5.464   9.050  0.5974  0.1528 -2.0222
  146SAPE  H17S16075   5.097   5.568   9.143 -0.5019 -0.2316  0.0077
  146SAPE  C21816076   5.054   5.560   8.929  0.3445  0.4503  0.4582
  146SAPE  H18R16077   4.948   5.592   8.932 -0.2855 -1.6047  1.8041
  146SAPE  H18S16078   5.065   5.494   8.841  3.6276  0.6099  0.6234
  146SAPE  C21916079   5.130   5.690   8.902 -0.2540  0.5813 -0.3976
  146SAPE  H19R16080   5.238   5.664   8.913 -0.8017 -0.7229  2.8438
  146SAPE  H19S16081   5.104   5.763   8.982  1.7240  0.0258  0.8366
  146SAPE  C22016082   5.091   5.764   8.774 -0.3824  0.3812 -0.1826
  146SAPE  H20R16083   5.157   5.853   8.767 -0.4482  0.4999  0.6434
  146SAPE  H20S16084   4.985   5.797   8.769 -1.4024 -2.7336 -2.5054
  146SAPE  H20T16085   5.105   5.695   8.688 -0.9564 -1.1025  0.8570
  146SAPE   C3316086   5.661   5.443  10.262 -0.0392 -0.3013  0.1098
  146SAPE   H3X16087   5.660   5.537  10.321  0.0072 -0.0445 -0.3009
  146SAPE   H3Y16088   5.560   5.422  10.222 -1.1748  0.6070  2.2907
  146SAPE   C3416089   5.751   5.469  10.147  0.7767  0.3773  0.2385
  146SAPE   H4X16090   5.770   5.374  10.093 -1.0182  0.2038 -0.1378
  146SAPE   H4Y16091   5.845   5.516  10.184  0.7603 -0.7161  1.7875
  146SAPE   C3516092   5.683   5.545  10.032  0.6322  0.6925  0.3305
  146SAPE   H5X16093   5.626   5.634  10.065 -0.5896  0.1844 -0.3426
  146SAPE   H5Y16094   5.612   5.482   9.974 -0.3556  1.0100  1.1666
  146SAPE   C3616095   5.789   5.591   9.929 -0.2344 -0.1921  0.3752
  146SAPE   H6X16096   5.851   5.501   9.907  0.7820  0.2253  1.3809
  146SAPE   H6Y16097   5.858   5.667   9.971  0.5921 -0.1332 -1.0094
  146SAPE   C3716098   5.744   5.626   9.789  0.6158 -0.0304  0.3168
  146SAPE   H7X16099   5.691   5.723   9.777 -0.6294 -0.7652 -0.5194
  146SAPE   H7Y16100   5.672   5.548   9.755  0.1315  0.5058  0.0866
  146SAPE   C3816101   5.853   5.618   9.683  0.9042  0.7058  0.7675
  146SAPE   H8X16102   5.892   5.515   9.674  1.6384  1.0734 -0.7473
  146SAPE   H8Y16103   5.928   5.694   9.716 -0.6195  2.8223 -0.3323
  146SAPE   C3916104   5.803   5.661   9.545  0.2312 -0.4175 -0.5308
  146SAPE   H9X16105   5.757   5.762   9.556  2.6781  0.9701 -1.9653
  146SAPE   H9Y16106   5.726   5.588   9.512 -1.9668  0.6436  1.8921
  146SAPE  C31016107   5.914   5.650   9.440 -0.7392 -0.5079 -0.2194
  146SAPE  H10X16108   5.961   5.550   9.430  0.7405  0.2184 -0.6943
  146SAPE  H10Y16109   5.988   5.729   9.467 -1.0471 -0.4494  0.4886
  146SAPE  C31116110   5.859   5.681   9.301 -0.0397 -0.3504  0.0532
  146SAPE  H11X16111   5.764   5.737   9.318  0.7899  0.7109  1.4087
  146SAPE  H11Y16112   5.828   5.588   9.249 -0.0184 -0.6846  0.6318
  146SAPE  C31216113   5.955   5.750   9.204 -0.3039 -0.0567  0.5298
  146SAPE  H12X16114   6.051   5.695   9.206  0.1622  0.7443  0.4408
  146SAPE  H12Y16115   5.976   5.855   9.233  2.4890 -1.2656  3.5707
  146SAPE  C31316116   5.903   5.753   9.064  0.3686 -0.4745  0.5006
  146SAPE  H13X16117   5.874   5.651   9.030 -1.5687  0.8489 -2.1735
  146SAPE  H13Y16118   5.975   5.798   8.992 -1.6356  0.3618 -1.0813
  146SAPE  C31416119   5.763   5.823   9.057  0.4249  0.5111 -0.2318
  146SAPE  H14X16120   5.758   5.916   9.117 -0.0433  1.1923 -1.3073
  146SAPE  H14Y16121   5.691   5.757   9.110  0.8262  0.3098  0.0691
  146SAPE  C31516122   5.719   5.849   8.918  0.7359  0.6761  0.4905
  146SAPE  H15X16123   5.609   5.862   8.910  0.4287 -0.7574  1.7845
  146SAPE  H15Y16124   5.735   5.751   8.869  4.0965  1.2568  0.2043
  146SAPE  C31616125   5.786   5.961   8.833  0.9676  0.5878 -0.3050
  146SAPE  H16X16126   5.760   5.956   8.726  1.4625 -1.1854 -0.3714
  146SAPE  H16Y16127   5.897   5.965   8.834  0.9727  0.4105  0.0540
  146SAPE  C31716128   5.750   6.106   8.884 -0.4350  0.1895 -0.2681
  146SAPE  H17X16129   5.790   6.124   8.986  0.3560  0.8556 -0.6857
  146SAPE  H17Y16130   5.639   6.106   8.885 -0.5225 -2.5274  1.1799
  146SAPE  C31816131   5.801   6.215   8.792 -0.3276  0.0880  0.3864
  146SAPE  H18X16132   5.907   6.203   8.762  0.0898 -1.1721  2.2417
  146SAPE  H18Y16133   5.789   6.317   8.834  0.9995 -1.3037  4.5611
  146SAPE  H18Z16134   5.737   6.218   8.701  0.9417 -0.8426 -0.5739
  147SAPE     N16135   5.607   1.262   6.188  0.0164 -0.2638 -0.0079
  147SAPE   HN116136   5.651   1.296   6.276  1.7428  0.5428 -1.1290
  147SAPE   HN216137   5.602   1.354   6.139  1.3966  1.0110  2.0695
  147SAPE   HN316138   5.513   1.237   6.225  0.5547 -0.3319  1.3591
  147SAPE   C1216139   5.704   1.166   6.126 -0.0281  0.0994  0.5840
  147SAPE  H12A16140   5.654   1.106   6.048 -2.6357  1.3806  1.1547
  147SAPE  H12B16141   5.741   1.104   6.210  1.7329  1.4254  0.8629
  147SAPE   C1116142   5.819   1.261   6.072 -0.6029 -0.1018  0.0149
  147SAPE  H11A16143   5.779   1.350   6.018  0.0448  0.0743 -0.1835
  147SAPE  H11B16144   5.879   1.197   6.004  0.5474  0.5221  0.4098
  147SAPE     P16145   6.060   1.310   6.164 -0.3025 -0.1568 -0.3026
  147SAPE   O1316146   6.123   1.223   6.057  0.6350 -0.5049  0.5767
  147SAPE   O1416147   6.091   1.451   6.144  0.7957  0.4765 -0.1486
  147SAPE   O1216148   5.900   1.305   6.179  0.3584 -0.0718  0.0427
  147SAPE   O1116149   6.114   1.273   6.309  0.8704 -0.0744 -0.6525
  147SAPE    C116150   6.028   1.202   6.407 -0.0806  1.2181  0.3784
  147SAPE    HA16151   5.921   1.230   6.415 -1.2113 -2.2472 -1.0590
  147SAPE    HB16152   6.029   1.098   6.369  1.2392  1.4946 -0.4158
  147SAPE    C216153   6.091   1.206   6.551 -0.3004  0.9064  0.6498
  147SAPE    HS16154   6.029   1.147   6.622  0.4067  0.9378  1.2965
  147SAPE   O2116155   6.104   1.343   6.605  0.2028  0.2601  0.2497
  147SAPE   C2116156   5.991   1.411   6.623  0.5240 -0.6721  0.2078
  147SAPE   O2216157   5.879   1.369   6.597 -0.4944  0.4044  0.5334
  147SAPE   C2216158   6.027   1.546   6.689  0.7063 -0.5149 -0.8179
  147SAPE   H2R16159   6.102   1.503   6.759 -0.7957 -3.8606 -1.0634
  147SAPE   H2S16160   6.071   1.619   6.618 -0.4343 -0.5471 -1.5825
  147SAPE    C316161   6.225   1.129   6.550  0.4600  0.1183  0.5307
  147SAPE    HX16162   6.305   1.206   6.545  1.0416 -0.5170 -0.1553
  147SAPE    HY16163   6.241   1.074   6.455 -0.7268 -0.3022  0.5596
  147SAPE   O3116164   6.242   1.042   6.665 -0.2657  0.8065  0.1443
  147SAPE   C3116165   6.303   1.089   6.772 -0.1305 -0.0467 -0.0605
  147SAPE   O3216166   6.339   1.206   6.790  0.1676 -0.2614  0.0800
  147SAPE   C3216167   6.325   0.973   6.872  0.6133 -0.1946 -0.3960
  147SAPE   H2X16168   6.408   0.914   6.827  0.9973  0.6199 -0.7851
  147SAPE   H2Y16169   6.230   0.921   6.894 -0.4500  2.0739  0.7073
  147SAPE   C2316170   5.903   1.601   6.772  0.2446  0.2859  0.3447
  147SAPE   H3R16171   5.949   1.641   6.864  1.7025 -1.1430  0.2927
  147SAPE   H3S16172   5.834   1.522   6.809  0.2442 -0.0675 -0.3738
  147SAPE   C2416173   5.828   1.701   6.687  0.0067 -0.6226 -0.3271
  147SAPE   H4R16174   5.736   1.726   6.745  0.4073  2.5357 -0.8626
  147SAPE   H4S16175   5.781   1.667   6.592 -3.7611 -2.0859  1.8323
  147SAPE   C2516176   5.907   1.824   6.665  0.2204  0.4062  0.0008
  147SAPE   H5R16177   5.987   1.823   6.589  0.1218 -0.7521 -0.1053
  147SAPE   C2616178   5.889   1.939   6.735 -0.1073 -0.4179 -0.3438
  147SAPE   H6R16179   5.958   2.021   6.706 -0.4169 -0.9211 -2.6900
  147SAPE   C2716180   5.795   1.963   6.852  0.7542 -0.4920 -0.7897
  147SAPE   H7R16181   5.697   1.918   6.825  0.5474 -0.4649 -0.1012
  147SAPE   H7S16182   5.779   2.071   6.869 -1.5604 -0.6730 -1.5739
  147SAPE   C2816183   5.836   1.897   6.977 -0.5253  0.5829  0.2529
  147SAPE   H8R16184   5.915   1.823   6.955 -2.5936 -1.4718 -0.7481
  147SAPE   C2916185   5.793   1.916   7.098  0.2665  0.1843  0.3002
  147SAPE   H9R16186   5.843   1.869   7.184 -0.3067 -1.0030  0.0091
  147SAPE  C21016187   5.676   2.004   7.132 -0.1367  0.4857 -1.2273
  147SAPE  H10R16188   5.598   1.937   7.174  2.7718 -1.9878  0.6922
  147SAPE  H10S16189   5.621   2.044   7.044  0.2771  0.8412 -1.3313
  147SAPE  C21116190   5.705   2.110   7.232  0.1374  0.5540  0.8479
  147SAPE  H11R16191   5.735   2.203   7.181  1.3598 -0.1509  0.2431
  147SAPE  C21216192   5.698   2.100   7.364  0.2216 -0.5403  0.3918
  147SAPE  H12R16193   5.743   2.185   7.418 -2.7622  1.3010  0.2158
  147SAPE  C21316194   5.660   1.981   7.450  0.3018 -0.1687 -0.2485
  147SAPE  H13R16195   5.635   1.892   7.388  2.3181 -1.4727  0.6800
  147SAPE  H13S16196   5.564   2.011   7.496 -0.1074 -1.8950  0.0893
  147SAPE  C21416197   5.782   1.939   7.535 -0.2405  0.3009  0.2675
  147SAPE  H14R16198   5.880   1.941   7.484 -0.5330  1.9345 -0.2751
  147SAPE  C21516199   5.776   1.918   7.663  0.0336 -0.3228 -0.4289
  147SAPE  H15R16200   5.867   1.903   7.723 -1.3670  0.2788  1.9726
  147SAPE  C21616201   5.656   1.914   7.755 -0.1451  0.1969  0.2065
  147SAPE  H16R16202   5.653   1.817   7.809 -3.1236  0.0400 -0.0478
  147SAPE  H16S16203   5.562   1.917   7.696  0.5098  1.2499 -0.8263
  147SAPE  C21716204   5.646   2.031   7.857 -1.1013  0.0381  0.1175
  147SAPE  H17R16205   5.611   2.127   7.814 -1.3829  0.4778  1.3036
  147SAPE  H17S16206   5.746   2.062   7.893 -1.7009 -0.1316  2.0747
  147SAPE  C21816207   5.557   1.996   7.980  0.1379 -0.4191  0.2000
  147SAPE  H18R16208   5.582   1.893   8.014  0.0407 -0.2711  0.7244
  147SAPE  H18S16209   5.449   1.985   7.956 -0.3085  1.6956  1.0106
  147SAPE  C21916210   5.570   2.083   8.109 -0.1172  0.2906 -0.7860
  147SAPE  H19R16211   5.497   2.039   8.181 -1.3908  3.1107 -0.1752
  147SAPE  H19S16212   5.526   2.185   8.105  1.1256  0.9083  0.3829
  147SAPE  C22016213   5.705   2.061   8.170 -0.6077  0.0559 -0.7382
  147SAPE  H20R16214   5.698   2.097   8.274  1.1064  0.3358 -0.6952
  147SAPE  H20S16215   5.782   2.132   8.133 -1.2580  1.2888  0.2348
  147SAPE  H20T16216   5.736   1.954   8.165 -1.2016 -0.2550  1.3588
  147SAPE   C3316217   6.367   1.033   7.005  0.3956 -1.5585 -0.3052
  147SAPE   H3X16218   6.298   1.113   7.040  2.1195  0.3512 -1.0811
  147SAPE   H3Y16219   6.460   1.090   6.983 -0.9008  0.7927 -0.0770
  147SAPE   C3416220   6.386   0.931   7.118  1.1435 -0.4150 -0.0516
  147SAPE   H4X16221   6.428   0.839   7.073  2.3657 -1.0675  2.2683
  147SAPE   H4Y16222   6.282   0.907   7.148  1.0837  0.8306  0.8146
  147SAPE   C3516223   6.446   0.991   7.243 -0.2162 -0.7653  0.0068
  147SAPE   H5X16224   6.396   1.085   7.273  1.3930  0.3269 -0.6197
  147SAPE   H5Y16225   6.545   1.028   7.208 -0.4881 -1.6025 -1.7785
  147SAPE   C3616226   6.446   0.891   7.361 -0.2758  0.0707 -0.4006
  147SAPE   H6X16227   6.552   0.880   7.392 -0.2354 -2.0760 -1.1389
  147SAPE   H6Y16228   6.429   0.786   7.329  1.5215 -0.1592 -0.7405
  147SAPE   C3716229   6.361   0.934   7.476  0.3288 -0.8569  0.2397
  147SAPE   H7X16230   6.256   0.901   7.464  0.3610 -0.8374 -0.1085
  147SAPE   H7Y16231   6.362   1.045   7.473  0.4973 -0.8626  0.0513
  147SAPE   C3816232   6.403   0.878   7.609 -0.0490 -0.5568 -0.3717
  147SAPE   H8X16233   6.355   0.926   7.697  0.6721 -0.2608 -0.1290
  147SAPE   H8Y16234   6.512   0.881   7.627  0.1547 -3.7875 -0.4974
  147SAPE   C3916235   6.372   0.727   7.610  0.2034  0.3651 -0.2196
  147SAPE   H9X16236   6.420   0.699   7.707  2.0936 -0.4717 -1.3375
  147SAPE   H9Y16237   6.420   0.672   7.527  0.1219 -0.3124  0.1821
  147SAPE  C31016238   6.221   0.690   7.621  0.3449 -0.5691 -0.5540
  147SAPE  H10X16239   6.175   0.664   7.523 -1.4098 -0.1902  0.1396
  147SAPE  H10Y16240   6.161   0.771   7.667  2.0719  0.4629 -0.0539
  147SAPE  C31116241   6.184   0.576   7.725 -0.2579  0.2529 -0.3795
  147SAPE  H11X16242   6.081   0.539   7.707  0.2920 -2.1267  1.0426
  147SAPE  H11Y16243   6.185   0.614   7.829  0.6512  0.7386 -0.5584
  147SAPE  C31216244   6.278   0.452   7.716  0.0441  0.3736  0.8941
  147SAPE  H12X16245   6.378   0.495   7.739 -0.3108  0.6918  1.9294
  147SAPE  H12Y16246   6.289   0.410   7.614  1.8229  2.0583  0.3354
  147SAPE  C31316247   6.249   0.325   7.806  0.2227  0.3446  0.5703
  147SAPE  H13X16248   6.325   0.245   7.788  0.3026 -0.0336  2.4412
  147SAPE  H13Y16249   6.160   0.270   7.768 -0.8229  2.4111 -0.1378
  147SAPE  C31416250   6.220   0.356   7.952  0.7437 -0.2938  0.0650
  147SAPE  H14X16251   6.132   0.423   7.958 -0.2845 -1.4560 -1.3779
  147SAPE  H14Y16252   6.309   0.414   7.984  0.4294 -0.1739  0.7442
  147SAPE  C31516253   6.205   0.224   8.028 -0.0983  0.7776 -0.1890
  147SAPE  H15X16254   6.307   0.180   8.020  0.1346  0.9995  1.2693
  147SAPE  H15Y16255   6.132   0.158   7.978  0.5345  0.8588 -1.2558
  147SAPE  C31616256   6.170   0.232   8.180 -0.4585  0.0305  0.2706
  147SAPE  H16X16257   6.066   0.269   8.193 -0.6214 -1.1167  2.7040
  147SAPE  H16Y16258   6.247   0.294   8.231 -2.9975  3.2617  0.5038
  147SAPE  C31716259   6.179   0.084   8.232  0.7207  0.4149 -0.5474
  147SAPE  H17X16260   6.272   0.042   8.189  0.1847  1.2005 -2.5762
  147SAPE  H17Y16261   6.094   0.023   8.195  0.2370  0.6307  0.1773
  147SAPE  C31816262   6.196   0.073   8.385  0.3233 -0.3214  0.4666
  147SAPE  H18X16263   6.287   0.129   8.413  0.0733  0.1301  0.3944
  147SAPE  H18Y16264   6.201  -0.031   8.423  1.5868 -1.1612 -1.8103
  147SAPE  H18Z16265   6.112   0.129   8.433  1.7943  0.7906  1.8471
  148SAPE     N16266   5.274   5.151   6.504 -0.2590  0.3786  0.2421
  148SAPE   HN116267   5.287   5.241   6.453  0.7759  1.0584  1.6371
  148SAPE   HN216268   5.255   5.180   6.602 -0.0469  2.5333 -0.3003
  148SAPE   HN316269   5.367   5.105   6.501 -1.2131 -1.7813  1.5890
  148SAPE   C1216270   5.171   5.063   6.451  0.0616 -0.3173  0.5488
  148SAPE  H12A16271   5.186   4.965   6.502  1.6020  0.1913  1.1231
  148SAPE  H12B16272   5.181   5.049   6.342  0.6376 -0.7097  0.6512
  148SAPE   C1116273   5.025   5.116   6.470  0.5860  0.5313  0.8050
  148SAPE  H11A16274   4.953   5.068   6.401  2.6685  0.4137 -1.4587
  148SAPE  H11B16275   5.019   5.219   6.429 -0.6331  0.9186  1.8975
  148SAPE     P16276   5.005   5.193   6.719 -0.1155 -0.3512  0.2568
  148SAPE   O1316277   4.905   5.166   6.823  0.0163 -0.2739 -0.1489
  148SAPE   O1416278   5.147   5.189   6.749  0.5157  0.7338 -0.0927
  148SAPE   O1216279   4.981   5.105   6.595  0.0495  0.0707  0.6019
  148SAPE   O1116280   4.981   5.340   6.660  0.4026  0.0500 -0.3725
  148SAPE    C116281   5.078   5.435   6.618  0.0700 -0.1369 -0.1004
  148SAPE    HA16282   5.178   5.389   6.597  0.4625  1.7142 -2.7331
  148SAPE    HB16283   5.045   5.480   6.522 -0.2806 -0.3544 -0.0825
  148SAPE    C216284   5.094   5.548   6.720  0.5450 -0.6023 -0.0265
  148SAPE    HS16285   5.180   5.612   6.691  0.6142 -1.1571 -1.0635
  148SAPE   O2116286   5.115   5.504   6.854  0.0887 -0.0263 -0.1852
  148SAPE   C2116287   5.226   5.448   6.870 -0.1047  0.8576 -0.8346
  148SAPE   O2216288   5.313   5.440   6.789  0.0390 -0.0449  0.4193
  148SAPE   C2216289   5.243   5.392   7.012 -0.6204 -0.2857 -0.2604
  148SAPE   H2R16290   5.228   5.283   6.998 -1.0360 -0.3810  0.8276
  148SAPE   H2S16291   5.349   5.408   7.039 -0.6331  0.7854 -0.7791
  148SAPE    C316292   4.971   5.647   6.714 -0.0174  0.0371  0.0379
  148SAPE    HX16293   4.888   5.584   6.753 -1.0151  0.7983 -0.7895
  148SAPE    HY16294   4.952   5.671   6.608 -1.5785  0.0640  0.2984
  148SAPE   O3116295   5.006   5.765   6.789 -0.0354  0.2313  0.0169
  148SAPE   C3116296   4.899   5.848   6.818 -0.7525  0.1086 -0.5714
  148SAPE   O3216297   4.781   5.825   6.784 -0.4653 -0.2188  0.3615
  148SAPE   C3216298   4.940   5.947   6.918 -0.3368 -0.6615 -0.0572
  148SAPE   H2X16299   4.896   6.042   6.883  1.4573 -0.2462 -1.3064
  148SAPE   H2Y16300   5.050   5.937   6.933 -0.0529  0.9852 -0.8795
  148SAPE   C2316301   5.145   5.448   7.122  0.8786  0.3477  0.0208
  148SAPE   H3R16302   5.171   5.390   7.213  1.5500 -2.6655 -1.9498
  148SAPE   H3S16303   5.040   5.434   7.087 -0.3770  3.4267  2.1045
  148SAPE   C2416304   5.177   5.601   7.153 -0.9318 -0.2116  0.4461
  148SAPE   H4R16305   5.184   5.672   7.067 -1.0754 -2.2556 -1.3574
  148SAPE   H4S16306   5.277   5.606   7.200 -0.5826 -2.1199  0.0171
  148SAPE   C2516307   5.069   5.641   7.255 -0.5164  0.9317  0.8699
  148SAPE   H5R16308   4.965   5.637   7.217 -0.7363  0.3238  1.5258
  148SAPE   C2616309   5.084   5.673   7.384  0.3166  0.0419 -0.1518
  148SAPE   H6R16310   4.997   5.718   7.433 -1.0748  0.8179 -3.1143
  148SAPE   C2716311   5.217   5.675   7.464  0.2962  0.2111  0.6330
  148SAPE   H7R16312   5.245   5.768   7.517  0.9841  0.2839  0.1646
  148SAPE   H7S16313   5.304   5.670   7.395  0.3855  1.0120  0.6729
  148SAPE   C2816314   5.217   5.563   7.560  0.3617  0.7048 -0.1910
  148SAPE   H8R16315   5.209   5.467   7.507 -0.9067  0.2028  0.8380
  148SAPE   C2916316   5.214   5.557   7.697 -0.6067  0.3452 -0.1467
  148SAPE   H9R16317   5.226   5.458   7.745  0.4122  0.2188 -0.6331
  148SAPE  C21016318   5.224   5.675   7.794  0.8825 -0.3300  0.4991
  148SAPE  H10R16319   5.157   5.665   7.882  0.0412  4.0723  0.5816
  148SAPE  H10S16320   5.184   5.771   7.754  1.1312 -0.6269 -0.4734
  148SAPE  C21116321   5.364   5.689   7.838  0.0391 -0.4429 -0.1132
  148SAPE  H11R16322   5.435   5.689   7.754 -0.5072 -0.8591 -0.5809
  148SAPE  C21216323   5.412   5.678   7.961  0.7823 -0.5260  0.0244
  148SAPE  H12R16324   5.519   5.680   7.985  0.7281 -0.8460  0.3001
  148SAPE  C21316325   5.325   5.662   8.087 -0.0219  0.5692 -0.6623
  148SAPE  H13R16326   5.228   5.715   8.070 -1.5541 -0.7851  2.8876
  148SAPE  H13S16327   5.372   5.712   8.174  0.7719 -1.7407  0.3365
  148SAPE  C21416328   5.281   5.522   8.135 -0.7408  0.7689 -0.3279
  148SAPE  H14R16329   5.175   5.493   8.125 -0.1396 -0.9042 -2.5723
  148SAPE  C21516330   5.374   5.434   8.186 -0.2481 -0.2426 -0.3337
  148SAPE  H15R16331   5.339   5.332   8.208  1.2523 -0.5041  1.0039
  148SAPE  C21616332   5.522   5.453   8.190  0.4390 -0.4065 -1.3191
  148SAPE  H16R16333   5.549   5.556   8.158  0.5950  0.0596  0.1894
  148SAPE  H16S16334   5.563   5.377   8.120 -0.0261 -0.4333 -1.5692
  148SAPE  C21716335   5.581   5.436   8.328 -0.0117  0.2259  0.9242
  148SAPE  H17R16336   5.570   5.332   8.366  0.8733 -0.3032 -0.2016
  148SAPE  H17S16337   5.522   5.495   8.401 -1.9997 -0.6510  0.1035
  148SAPE  C21816338   5.729   5.475   8.339  0.1961 -0.3833 -0.2923
  148SAPE  H18R16339   5.787   5.425   8.258  0.0638  0.1800 -0.7344
  148SAPE  H18S16340   5.770   5.434   8.434 -0.0012  0.0871  0.0023
  148SAPE  C21916341   5.746   5.630   8.332 -0.5806 -0.9656  0.2034
  148SAPE  H19R16342   5.681   5.681   8.406 -1.3693  0.1946 -1.2293
  148SAPE  H19S16343   5.732   5.657   8.225  1.2614 -2.1881 -0.4096
  148SAPE  C22016344   5.890   5.676   8.357 -0.1572  0.2090  0.0956
  148SAPE  H20R16345   5.969   5.602   8.330  0.4244  1.2297 -1.1556
  148SAPE  H20S16346   5.901   5.718   8.459 -0.1707 -0.8478  0.5411
  148SAPE  H20T16347   5.910   5.760   8.287 -2.5573  0.1236 -0.7913
  148SAPE   C3316348   4.874   5.919   7.055  0.0388 -0.6716 -0.0008
  148SAPE   H3X16349   4.942   5.846   7.104  1.1955 -0.1780 -0.8287
  148SAPE   H3Y16350   4.769   5.883   7.051 -0.0279 -0.3639 -1.1416
  148SAPE   C3416351   4.888   6.043   7.146 -0.7461  0.8438  0.5069
  148SAPE   H4X16352   4.804   6.107   7.112  1.1091  2.8150 -0.5282
  148SAPE   H4Y16353   4.978   6.105   7.130  1.1360 -0.9811  3.0206
  148SAPE   C3516354   4.873   5.998   7.294 -0.2450  0.4803 -0.3937
  148SAPE   H5X16355   4.958   5.934   7.324 -0.3205  1.8339  3.1773
  148SAPE   H5Y16356   4.778   5.944   7.315  0.5503 -0.3762  1.0930
  148SAPE   C3616357   4.893   6.123   7.383  0.3203  0.4235 -0.4474
  148SAPE   H6X16358   4.829   6.208   7.351  0.5430  0.8411  0.2087
  148SAPE   H6Y16359   5.000   6.148   7.369  0.2160  1.5228  0.6054
  148SAPE   C3716360   4.875   6.081   7.531  0.5987  0.7242  0.4068
  148SAPE   H7X16361   4.937   5.990   7.548 -1.5308 -1.1371 -1.1928
  148SAPE   H7Y16362   4.771   6.043   7.542  0.0494  2.3549  1.0752
  148SAPE   C3816363   4.897   6.193   7.626 -0.3217 -0.4819 -0.0784
  148SAPE   H8X16364   4.821   6.266   7.594 -0.0924  0.5341  1.5673
  148SAPE   H8Y16365   4.997   6.242   7.621 -0.5429 -0.1199 -1.2828
  148SAPE   C3916366   4.887   6.157   7.776  0.1177 -0.1031 -0.0134
  148SAPE   H9X16367   4.969   6.085   7.799  0.6077  0.9896  1.8823
  148SAPE   H9Y16368   4.789   6.104   7.777  1.0338 -1.8745 -0.7836
  148SAPE  C31016369   4.891   6.284   7.869 -0.4708  0.6205  0.5491
  148SAPE  H10X16370   4.817   6.352   7.822  0.2110  0.2045 -1.1880
  148SAPE  H10Y16371   4.992   6.329   7.864  0.9499 -2.3859  0.1746
  148SAPE  C31116372   4.861   6.261   8.019 -0.1850 -0.2282 -0.2057
  148SAPE  H11X16373   4.941   6.204   8.070  0.4085  1.9298  1.4292
  148SAPE  H11Y16374   4.762   6.212   8.026  0.4565 -1.3579  1.1918
  148SAPE  C31216375   4.830   6.395   8.079  0.2040 -0.3786  0.8528
  148SAPE  H12X16376   4.733   6.431   8.037  0.0248 -0.3373  1.3043
  148SAPE  H12Y16377   4.912   6.461   8.046 -0.3578  0.6809  1.5255
  148SAPE  C31316378   4.803   6.403   8.226 -0.5753  0.3910 -0.7219
  148SAPE  H13X16379   4.895   6.388   8.287 -0.1444  0.6754 -1.2795
  148SAPE  H13Y16380   4.728   6.337   8.272  0.5727 -0.0777  0.5443
  148SAPE  C31416381   4.780   6.553   8.260  0.2522  0.1557 -0.3650
  148SAPE  H14X16382   4.675   6.586   8.242  0.8579  1.7067 -1.2140
  148SAPE  H14Y16383   4.831   6.622   8.189  1.4736  0.4695  0.7709
  148SAPE  C31516384   4.819   6.592   8.406 -0.0594  1.1836  0.5414
  148SAPE  H15X16385   4.930   6.582   8.401 -0.1613 -0.3174  0.8591
  148SAPE  H15Y16386   4.771   6.513   8.467  1.7447 -1.0428 -0.7675
  148SAPE  C31616387   4.775   6.735   8.450  0.4016  0.0742 -0.2532
  148SAPE  H16X16388   4.670   6.747   8.415 -0.1931  1.5703  1.8667
  148SAPE  H16Y16389   4.837   6.805   8.390 -0.9673  0.1891 -1.6060
  148SAPE  C31716390   4.798   6.755   8.594 -1.1129 -0.7906  0.1876
  148SAPE  H17X16391   4.907   6.764   8.616 -1.3550 -1.9546  2.0038
  148SAPE  H17Y16392   4.768   6.662   8.647  0.5241 -1.0820  0.6724
  148SAPE  C31816393   4.714   6.864   8.649  0.0722  0.0011  0.2446
  148SAPE  H18X16394   4.736   6.890   8.755 -0.2518  2.6877 -0.2763
  148SAPE  H18Y16395   4.603   6.860   8.641  0.1703 -1.1343 -0.9826
  148SAPE  H18Z16396   4.744   6.953   8.590  1.0831  0.1123  0.8967
  149SAPE     N16397   4.579   0.212   6.177  0.0737 -0.3060 -0.6187
  149SAPE   HN116398   4.524   0.169   6.100  1.3465  0.8321 -2.2402
  149SAPE   HN216399   4.525   0.285   6.228 -0.0909 -1.0555  0.3198
  149SAPE   HN316400   4.662   0.258   6.134 -0.4541  0.5086 -0.8026
  149SAPE   C1216401   4.627   0.113   6.277  0.8184 -0.3819 -0.3010
  149SAPE  H12A16402   4.642   0.014   6.230 -2.7304 -1.0789 -0.2816
  149SAPE  H12B16403   4.544   0.085   6.346 -0.1767 -2.6204 -2.2542
  149SAPE   C1116404   4.744   0.156   6.373 -0.3121  0.1715 -0.2890
  149SAPE  H11A16405   4.754   0.072   6.445 -0.4606  1.0840  0.8285
  149SAPE  H11B16406   4.710   0.250   6.423  0.0320 -0.3644  0.9674
  149SAPE     P16407   4.957   0.079   6.259 -0.0074  0.4854 -0.5185
  149SAPE   O1316408   4.895  -0.016   6.172 -0.4421 -0.0240  0.6185
  149SAPE   O1416409   5.078   0.140   6.202  0.0797  0.0798 -0.4939
  149SAPE   O1216410   4.857   0.193   6.305  0.4585  0.5445  0.3877
  149SAPE   O1116411   5.004   0.013   6.395  0.5609 -0.6627  0.2642
  149SAPE    C116412   5.055   0.109   6.495 -0.1558  0.5175  0.7280
  149SAPE    HA16413   5.164   0.115   6.478 -0.1588 -1.5506 -0.3743
  149SAPE    HB16414   5.006   0.209   6.501  0.0835  0.5528  2.7897
  149SAPE    C216415   5.038   0.060   6.642  0.5762 -1.3478 -0.4681
  149SAPE    HS16416   5.083  -0.041   6.644  1.9694 -0.7923 -1.7233
  149SAPE   O2116417   4.897   0.088   6.676 -0.4499  0.4767 -0.3071
  149SAPE   C2116418   4.833   0.002   6.750 -0.1004  0.9420 -0.4095
  149SAPE   O2216419   4.883  -0.105   6.782 -0.1058 -0.1305 -0.1046
  149SAPE   C2216420   4.695   0.053   6.794 -0.8426  0.6721  0.9137
  149SAPE   H2R16421   4.637   0.085   6.706 -2.7415 -0.3948  1.7063
  149SAPE   H2S16422   4.642  -0.036   6.835 -0.3568  0.5587  1.3036
  149SAPE    C316423   5.123   0.139   6.741  0.7876  0.3288 -0.2924
  149SAPE    HX16424   5.073   0.237   6.754 -0.4458 -0.0328 -1.9493
  149SAPE    HY16425   5.225   0.156   6.699  1.4584 -1.2244  0.6324
  149SAPE   O3116426   5.128   0.064   6.864  0.2051  0.0675 -0.2416
  149SAPE   C3116427   5.210   0.134   6.949  0.2429 -0.4206 -0.8207
  149SAPE   O3216428   5.253   0.245   6.927  0.0893  0.2613 -0.4009
  149SAPE   C3216429   5.204   0.065   7.090 -0.4142  0.7069  0.5942
  149SAPE   H2X16430   5.268  -0.025   7.080  0.1958  1.2467 -0.6997
  149SAPE   H2Y16431   5.100   0.028   7.106 -0.3425 -0.3223 -1.1001
  149SAPE   C2316432   4.711   0.165   6.892 -0.2056 -0.1528  0.5907
  149SAPE   H3R16433   4.609   0.207   6.900  0.7846  2.4097  0.6574
  149SAPE   H3S16434   4.770   0.251   6.855  1.3014 -0.9111  1.1242
  149SAPE   C2416435   4.777   0.106   7.025  0.5697 -0.6434  0.2236
  149SAPE   H4R16436   4.881   0.073   7.002 -0.0680 -1.9392 -0.9855
  149SAPE   H4S16437   4.713   0.021   7.055 -0.3100  0.1240  0.5488
  149SAPE   C2516438   4.774   0.224   7.120  0.6675  0.4890 -0.2140
  149SAPE   H5R16439   4.836   0.310   7.093 -1.7524  1.7423 -2.1644
  149SAPE   C2616440   4.703   0.228   7.233 -0.7073  0.4164 -0.1251
  149SAPE   H6R16441   4.714   0.312   7.303  0.2359 -0.1831  0.4792
  149SAPE   C2716442   4.611   0.120   7.287 -0.5001 -0.3753  0.6413
  149SAPE   H7R16443   4.651   0.072   7.379  0.0082 -1.0488  0.0765
  149SAPE   H7S16444   4.600   0.036   7.215  2.5699  0.3915 -0.9116
  149SAPE   C2816445   4.482   0.194   7.318  0.1934 -0.9167 -0.0246
  149SAPE   H8R16446   4.435   0.249   7.235  3.2751  3.0198  0.5152
  149SAPE   C2916447   4.414   0.207   7.438 -0.1303 -0.4052  0.2333
  149SAPE   H9R16448   4.316   0.257   7.438 -0.3653 -0.8604 -0.0954
  149SAPE  C21016449   4.450   0.148   7.575 -0.0066 -0.1196 -0.3277
  149SAPE  H10R16450   4.556   0.116   7.575  0.5460  1.6084 -0.5760
  149SAPE  H10S16451   4.387   0.057   7.590 -2.5000  1.3840 -1.0963
  149SAPE  C21116452   4.415   0.240   7.695 -0.0107 -0.5844  0.6411
  149SAPE  H11R16453   4.465   0.338   7.686 -0.0910 -0.6930 -1.9036
  149SAPE  C21216454   4.312   0.232   7.778 -0.9188  0.8588  1.2336
  149SAPE  H12R16455   4.305   0.312   7.853 -0.0866  2.5040 -0.3558
  149SAPE  C21316456   4.203   0.125   7.794 -0.0293 -0.1274  0.1761
  149SAPE  H13R16457   4.227   0.060   7.881 -0.7762 -0.2515  0.2955
  149SAPE  H13S16458   4.200   0.058   7.705 -1.9439  0.0926  0.0372
  149SAPE  C21416459   4.061   0.170   7.812 -0.2015  0.4013  0.4101
  149SAPE  H14R16460   4.036   0.270   7.773 -2.0178  0.1025  0.7027
  149SAPE  C21516461   3.964   0.100   7.871 -0.0251  0.9291 -0.5246
  149SAPE  H15R16462   3.873   0.141   7.918 -0.2904 -0.3934  0.1565
  149SAPE  C21616463   3.982  -0.043   7.917  0.0837 -0.2056 -0.1646
  149SAPE  H16R16464   4.062  -0.096   7.861 -0.2162  2.6800 -3.6687
  149SAPE  H16S16465   3.893  -0.097   7.878  1.3317 -1.6217 -1.1753
  149SAPE  C21716466   4.009  -0.069   8.067 -0.3837  0.2924  0.2046
  149SAPE  H17R16467   4.107  -0.026   8.099 -0.2494 -0.7859  1.3202
  149SAPE  H17S16468   4.022  -0.178   8.088  1.4812  0.8184  2.1504
  149SAPE  C21816469   3.899  -0.017   8.169 -0.1233  0.3490  0.9299
  149SAPE  H18R16470   3.805  -0.075   8.161 -0.4017  0.9607 -0.5943
  149SAPE  H18S16471   3.880   0.091   8.149  2.0845  0.5908 -0.1840
  149SAPE  C21916472   3.946  -0.015   8.314  0.1640 -0.2290  0.2540
  149SAPE  H19R16473   4.015  -0.101   8.328 -0.1610 -0.3641  1.1263
  149SAPE  H19S16474   3.860  -0.021   8.384 -0.5284 -0.4330 -0.5983
  149SAPE  C22016475   4.002   0.123   8.364 -0.1972  0.2429  0.5677
  149SAPE  H20R16476   3.956   0.218   8.333  1.3461  0.6961 -0.4276
  149SAPE  H20S16477   4.106   0.111   8.328 -0.1529 -0.3633  0.8730
  149SAPE  H20T16478   4.016   0.112   8.474 -1.5502 -1.5917  0.6133
  149SAPE   C3316479   5.235   0.159   7.208  0.0373 -0.1392  0.9771
  149SAPE   H3X16480   5.146   0.224   7.225  0.2304  0.5831 -0.6210
  149SAPE   H3Y16481   5.312   0.237   7.186 -0.5340  1.0110  2.8212
  149SAPE   C3416482   5.292   0.088   7.329 -0.2220  0.3936  0.7237
  149SAPE   H4X16483   5.376   0.018   7.306  1.6943  2.6109  0.5754
  149SAPE   H4Y16484   5.208   0.030   7.373  0.3087 -2.0256 -1.1827
  149SAPE   C3516485   5.358   0.188   7.421  0.6694  0.1456 -0.9551
  149SAPE   H5X16486   5.306   0.282   7.393  0.8457 -0.0081 -1.8545
  149SAPE   H5Y16487   5.467   0.203   7.406  1.0116 -0.3840  0.7931
  149SAPE   C3616488   5.337   0.155   7.573 -0.1620  0.4031  0.0207
  149SAPE   H6X16489   5.396   0.068   7.609 -0.5279  1.0365  2.3569
  149SAPE   H6Y16490   5.229   0.127   7.583  0.0846  0.3022  5.4534
  149SAPE   C3716491   5.367   0.271   7.664 -0.0395 -0.8473 -0.3147
  149SAPE   H7X16492   5.321   0.365   7.628 -0.2382 -0.6253  0.4889
  149SAPE   H7Y16493   5.476   0.292   7.652  0.0980  0.4807  2.4345
  149SAPE   C3816494   5.335   0.258   7.814 -0.5684  0.5680 -0.6378
  149SAPE   H8X16495   5.405   0.181   7.853 -0.0805  1.4118  0.1816
  149SAPE   H8Y16496   5.231   0.225   7.839 -0.4398  0.5330 -0.1324
  149SAPE   C3916497   5.365   0.383   7.893  0.1329 -0.3196  0.1097
  149SAPE   H9X16498   5.338   0.468   7.826  2.6875 -2.0725 -3.4444
  149SAPE   H9Y16499   5.474   0.403   7.903  0.0360 -0.3412  1.4255
  149SAPE  C31016500   5.306   0.382   8.038  0.4597  0.5519 -0.8926
  149SAPE  H10X16501   5.358   0.312   8.106 -1.4843 -0.6697 -0.5601
  149SAPE  H10Y16502   5.200   0.349   8.024 -0.4938  2.9456  0.1054
  149SAPE  C31116503   5.298   0.521   8.111  0.1166  0.4870  0.9443
  149SAPE  H11X16504   5.252   0.590   8.036 -0.1884  0.2403  0.9045
  149SAPE  H11Y16505   5.404   0.538   8.139  1.4023 -1.2929 -2.3187
  149SAPE  C31216506   5.205   0.532   8.234 -0.2419  0.2312  0.5164
  149SAPE  H12X16507   5.229   0.625   8.289 -2.1825 -0.4270  2.6185
  149SAPE  H12Y16508   5.226   0.444   8.299 -1.0364 -1.6474 -1.6263
  149SAPE  C31316509   5.059   0.539   8.200  0.3214  0.2177 -0.0756
  149SAPE  H13X16510   5.024   0.449   8.146  0.3733 -0.8158  1.5218
  149SAPE  H13Y16511   5.030   0.623   8.134  2.2075  0.4012 -0.7301
  149SAPE  C31416512   4.978   0.554   8.333 -0.0022  0.0266 -0.2215
  149SAPE  H14X16513   4.995   0.662   8.355  1.2669 -0.3098  0.4745
  149SAPE  H14Y16514   5.024   0.489   8.409  0.1831  1.3642  0.8471
  149SAPE  C31516515   4.821   0.517   8.333 -0.4374  0.2068  0.1396
  149SAPE  H15X16516   4.809   0.409   8.306  1.4022  0.1551 -0.6303
  149SAPE  H15Y16517   4.775   0.575   8.250  1.9532  1.1496 -0.6194
  149SAPE  C31616518   4.746   0.542   8.468  0.4410 -0.5836 -0.3474
  149SAPE  H16X16519   4.773   0.647   8.493  2.4473 -0.8621 -1.0882
  149SAPE  H16Y16520   4.795   0.475   8.542  1.3184  1.0100  0.5750
  149SAPE  C31716521   4.597   0.528   8.453  1.1726  0.4485  0.2349
  149SAPE  H17X16522   4.580   0.427   8.409 -2.4046  1.3633 -0.8265
  149SAPE  H17Y16523   4.554   0.595   8.376  0.5951 -1.2287 -0.9608
  149SAPE  C31816524   4.516   0.530   8.583  0.7996  0.1797  0.0330
  149SAPE  H18X16525   4.589   0.557   8.662 -0.2373 -2.1005  1.8749
  149SAPE  H18Y16526   4.486   0.424   8.595 -0.2197 -0.0335 -3.3579
  149SAPE  H18Z16527   4.425   0.593   8.578  1.7039  1.4408 -2.5266
  150SAPE     N16528   3.099   0.504   6.492  0.4201 -0.7156 -0.0936
  150SAPE   HN116529   3.048   0.465   6.574 -2.1182  1.3009 -0.5745
  150SAPE   HN216530   3.053   0.461   6.409 -0.0912 -0.7706  0.2174
  150SAPE   HN316531   3.201   0.486   6.488  1.2861  2.9294  1.4546
  150SAPE   C1216532   3.107   0.648   6.489  0.0561 -0.2870 -1.0964
  150SAPE  H12A16533   3.161   0.680   6.581  1.3234 -3.3664 -0.6444
  150SAPE  H12B16534   3.007   0.696   6.486 -0.7424 -1.6736  0.8210
  150SAPE   C1116535   3.201   0.679   6.373 -0.1579  0.1351  0.5160
  150SAPE  H11A16536   3.214   0.788   6.387  1.7876  0.0418 -0.3316
  150SAPE  H11B16537   3.149   0.669   6.275 -1.8856 -2.1157  1.5632
  150SAPE     P16538   3.457   0.687   6.323 -0.2357  0.5658  0.3906
  150SAPE   O1316539   3.581   0.600   6.317 -0.2048 -0.0207  0.1236
  150SAPE   O1416540   3.424   0.759   6.195  0.2626  0.0244 -0.2369
  150SAPE   O1216541   3.330   0.614   6.375  0.0225  0.1510 -0.2086
  150SAPE   O1116542   3.480   0.801   6.425 -0.1269 -0.0768  0.8326
  150SAPE    C116543   3.444   0.797   6.560 -0.6377 -0.4564 -0.3336
  150SAPE    HA16544   3.350   0.853   6.577 -1.1278 -1.4376  0.2746
  150SAPE    HB16545   3.445   0.694   6.601  1.4744  0.2070  1.4537
  150SAPE    C216546   3.553   0.863   6.640  0.1788  0.2298 -0.0456
  150SAPE    HS16547   3.534   0.840   6.747  0.9943 -0.8543 -0.1177
  150SAPE   O2116548   3.567   1.002   6.605 -0.0064  0.1164 -0.2905
  150SAPE   C2116549   3.567   1.082   6.709 -0.1929 -0.1847 -0.6511
  150SAPE   O2216550   3.535   1.059   6.821 -0.1293  0.6689  0.1046
  150SAPE   C2216551   3.595   1.221   6.653  1.2213 -0.6631  0.1637
  150SAPE   H2R16552   3.706   1.223   6.646  1.2126 -0.4414  0.0649
  150SAPE   H2S16553   3.558   1.218   6.548  0.7911 -2.0174  0.3393
  150SAPE    C316554   3.695   0.793   6.624 -0.4147  0.7469 -0.1060
  150SAPE    HX16555   3.766   0.853   6.686 -0.5644 -1.3242  2.2189
  150SAPE    HY16556   3.738   0.808   6.523  0.4221  0.4486  0.2014
  150SAPE   O3116557   3.693   0.652   6.662  0.4637  0.2735  0.3433
  150SAPE   C3116558   3.808   0.594   6.664  0.9106  0.2119  0.5808
  150SAPE   O3216559   3.912   0.645   6.617 -0.8973 -0.1413  0.5999
  150SAPE   C3216560   3.802   0.453   6.709 -0.5857  0.2235 -0.0473
  150SAPE   H2X16561   3.862   0.389   6.641  0.2357 -0.3918  1.2191
  150SAPE   H2Y16562   3.699   0.412   6.700 -0.1767 -0.6474 -0.9739
  150SAPE   C2316563   3.545   1.350   6.722 -0.6545  0.1680  0.4616
  150SAPE   H3R16564   3.434   1.354   6.716 -0.7062 -1.7638 -0.3411
  150SAPE   H3S16565   3.586   1.440   6.670  0.2826  0.6571  1.9671
  150SAPE   C2416566   3.606   1.376   6.865  0.6486 -0.3989 -0.0842
  150SAPE   H4R16567   3.568   1.300   6.937 -0.9161  1.2938  0.9619
  150SAPE   H4S16568   3.570   1.479   6.885  3.7429  0.6616  0.5661
  150SAPE   C2516569   3.755   1.390   6.861 -0.3039 -0.0097 -0.0968
  150SAPE   H5R16570   3.807   1.378   6.764  1.3985  1.3490  0.5828
  150SAPE   C2616571   3.834   1.412   6.964 -0.0590  0.3178 -0.3929
  150SAPE   H6R16572   3.943   1.421   6.957  0.1153  1.1903  2.2688
  150SAPE   C2716573   3.783   1.441   7.102 -0.3215 -0.0152 -0.4759
  150SAPE   H7R16574   3.690   1.385   7.126 -0.5720  0.1756 -0.9851
  150SAPE   H7S16575   3.778   1.552   7.096 -0.0397 -0.0771 -3.1132
  150SAPE   C2816576   3.876   1.389   7.204 -0.4138  0.0851  0.3343
  150SAPE   H8R16577   3.965   1.336   7.168  0.0152  1.8010 -1.3092
  150SAPE   C2916578   3.871   1.410   7.339  0.0905  0.1492  1.1586
  150SAPE   H9R16579   3.940   1.353   7.402  1.4531  1.7159  1.1414
  150SAPE  C21016580   3.763   1.489   7.399  0.2934 -0.2496 -0.1149
  150SAPE  H10R16581   3.740   1.438   7.494  1.5726 -2.1063 -0.7302
  150SAPE  H10S16582   3.673   1.486   7.334 -1.6109  2.5280  2.1437
  150SAPE  C21116583   3.812   1.632   7.415 -0.4845 -0.1691  0.0725
  150SAPE  H11R16584   3.843   1.679   7.321  0.2392 -2.0165 -0.6694
  150SAPE  C21216585   3.838   1.688   7.535 -0.3135  0.1160  0.4198
  150SAPE  H12R16586   3.876   1.791   7.532  0.8037 -0.2686  0.8922
  150SAPE  C21316587   3.823   1.631   7.672  0.4722 -0.0864 -0.2209
  150SAPE  H13R16588   3.714   1.611   7.677 -0.3280  3.4419 -1.1757
  150SAPE  H13S16589   3.848   1.709   7.746 -2.0037 -2.8475  3.9622
  150SAPE  C21416590   3.895   1.501   7.702 -1.1160  0.1883  0.9766
  150SAPE  H14R16591   3.854   1.408   7.662  0.1059 -0.0579  0.2735
  150SAPE  C21516592   3.979   1.483   7.807 -0.2374 -0.0587  0.4094
  150SAPE  H15R16593   4.025   1.386   7.833 -1.9326 -0.9686  0.0966
  150SAPE  C21616594   4.020   1.573   7.920  0.0550 -0.2422 -0.6735
  150SAPE  H16R16595   4.053   1.669   7.876  0.1562  0.2539  0.4401
  150SAPE  H16S16596   4.111   1.543   7.976 -0.1911 -1.4785 -0.8944
  150SAPE  C21716597   3.900   1.601   8.019  0.1703  0.5118  0.0327
  150SAPE  H17R16598   3.810   1.639   7.967 -0.5447 -1.0033  0.1103
  150SAPE  H17S16599   3.932   1.686   8.083  2.0367  0.4621 -0.7630
  150SAPE  C21816600   3.854   1.482   8.095 -0.5330 -0.3979  0.4689
  150SAPE  H18R16601   3.944   1.417   8.101 -1.0950 -1.0856  1.8653
  150SAPE  H18S16602   3.774   1.425   8.044  1.3434 -0.4510 -2.7086
  150SAPE  C21916603   3.822   1.519   8.238  0.9466  0.0340 -0.6513
  150SAPE  H19R16604   3.896   1.585   8.287 -0.2697  1.0889 -0.1617
  150SAPE  H19S16605   3.825   1.425   8.296  0.8351 -0.1915 -1.0068
  150SAPE  C22016606   3.679   1.563   8.265  0.1917  0.7300  0.8063
  150SAPE  H20R16607   3.607   1.479   8.253  1.1489 -0.2797  1.8990
  150SAPE  H20S16608   3.647   1.647   8.200  0.6391 -0.4016 -0.9603
  150SAPE  H20T16609   3.667   1.587   8.373  1.7980 -0.9304  1.3993
  150SAPE   C3316610   3.856   0.436   6.857 -0.0558 -0.4129  0.5090
  150SAPE   H3X16611   3.803   0.357   6.915  2.1310 -1.9825  0.5160
  150SAPE   H3Y16612   3.842   0.535   6.904  4.1195  0.9326 -0.6128
  150SAPE   C3416613   4.003   0.392   6.864  0.7021  0.2878 -0.1814
  150SAPE   H4X16614   4.053   0.483   6.824  0.2871  0.0088 -1.3729
  150SAPE   H4Y16615   4.023   0.314   6.788  0.8084  1.0020 -0.8970
  150SAPE   C3516616   4.044   0.356   7.011 -0.2615  0.4396 -0.0679
  150SAPE   H5X16617   4.155   0.369   7.013 -0.3656  1.4574  0.0006
  150SAPE   H5Y16618   4.022   0.254   7.048  0.4451  0.4977  0.5346
  150SAPE   C3616619   3.982   0.440   7.130 -0.0837  0.5405  0.5108
  150SAPE   H6X16620   3.873   0.415   7.129 -0.2164  0.9237  2.0342
  150SAPE   H6Y16621   3.989   0.550   7.116 -0.5423  0.3590 -1.4129
  150SAPE   C3716622   4.050   0.400   7.271 -0.0683 -0.1790  0.7350
  150SAPE   H7X16623   4.159   0.387   7.255 -0.2633 -0.5355 -0.4289
  150SAPE   H7Y16624   4.011   0.297   7.287  1.4683 -1.1584 -1.4242
  150SAPE   C3816625   4.015   0.489   7.389 -0.1044  0.2547 -0.8240
  150SAPE   H8X16626   3.911   0.522   7.371 -0.1967  1.0382  0.9009
  150SAPE   H8Y16627   4.074   0.583   7.383 -1.1433  0.8406 -2.3242
  150SAPE   C3916628   4.031   0.418   7.523 -0.3522  0.2262  0.0734
  150SAPE   H9X16629   4.137   0.387   7.532 -1.0145 -2.5429 -0.6471
  150SAPE   H9Y16630   3.976   0.322   7.517  2.2658 -1.2723 -3.2447
  150SAPE  C31016631   4.007   0.500   7.650  0.0646  0.3828  1.0965
  150SAPE  H10X16632   4.019   0.609   7.631  0.7612  0.1726  0.2926
  150SAPE  H10Y16633   4.079   0.469   7.729 -0.2237 -0.1134  1.1697
  150SAPE  C31116634   3.861   0.491   7.712 -0.2397  0.6932  0.4759
  150SAPE  H11X16635   3.821   0.387   7.713  2.3528 -0.5957 -3.6533
  150SAPE  H11Y16636   3.789   0.553   7.656  0.4930  0.3735 -0.8678
  150SAPE  C31216637   3.865   0.547   7.856  0.1151  0.1465  0.2660
  150SAPE  H12X16638   3.899   0.653   7.865  0.3505  0.3293 -2.0724
  150SAPE  H12Y16639   3.948   0.501   7.915 -1.2902 -0.5908  1.7344
  150SAPE  C31316640   3.724   0.537   7.931 -0.5239  0.2690 -0.6585
  150SAPE  H13X16641   3.676   0.441   7.904  1.3056 -0.4396 -1.5478
  150SAPE  H13Y16642   3.659   0.624   7.911  0.6310  0.9241 -1.6902
  150SAPE  C31416643   3.749   0.536   8.087 -0.2570 -0.5678  0.4645
  150SAPE  H14X16644   3.796   0.634   8.110  1.1892 -1.4142  1.3224
  150SAPE  H14Y16645   3.805   0.444   8.117 -2.0983 -2.3821 -1.3755
  150SAPE  C31516646   3.624   0.529   8.177 -0.5492 -0.3796  0.2343
  150SAPE  H15X16647   3.572   0.431   8.166  0.7561 -1.3444  2.1118
  150SAPE  H15Y16648   3.557   0.614   8.151  0.8769  0.4454 -0.9035
  150SAPE  C31616649   3.679   0.547   8.320 -0.6795  0.4406  0.1032
  150SAPE  H16X16650   3.723   0.648   8.328  0.4354  0.0070 -0.4178
  150SAPE  H16Y16651   3.768   0.481   8.328  0.7861  2.2041 -0.9490
  150SAPE  C31716652   3.576   0.525   8.428  0.6066  0.0355  0.3348
  150SAPE  H17X16653   3.615   0.567   8.524  0.6811  0.2100  0.2292
  150SAPE  H17Y16654   3.563   0.415   8.442  2.1271 -0.2615 -0.3794
  150SAPE  C31816655   3.444   0.589   8.398  0.2786 -0.3124  0.5343
  150SAPE  H18X16656   3.372   0.565   8.479 -0.6719 -1.4064 -0.6046
  150SAPE  H18Y16657   3.393   0.547   8.309  0.8862  0.4695 -0.2132
  150SAPE  H18Z16658   3.457   0.699   8.382  2.7403 -0.5696  0.3639
  151SAPE     N16659   6.622   0.188   6.482  0.1546  0.3283  0.0762
  151SAPE   HN116660   6.635   0.289   6.503 -0.3634  0.8550 -1.9628
  151SAPE   HN216661   6.561   0.180   6.399  0.4720 -0.8226 -0.0639
  151SAPE   HN316662   6.569   0.144   6.560  0.2887 -0.1957 -0.1228
  151SAPE   C1216663   6.741   0.110   6.458  0.0204  0.0631 -0.3627
  151SAPE  H12A16664   6.820   0.146   6.527 -0.5373  0.9745 -0.1734
  151SAPE  H12B16665   6.770   0.127   6.353 -1.0852 -0.1255 -0.7183
  151SAPE   C1116666   6.716  -0.043   6.470  0.4394 -0.3337  0.5611
  151SAPE  H11A16667   6.658  -0.064   6.563  1.8053 -0.1318  1.4913
  151SAPE  H11B16668   6.813  -0.097   6.470  1.8905  1.7406 -4.4641
  151SAPE     P16669   6.571  -0.219   6.326 -0.1581  0.3695 -0.5111
  151SAPE   O1316670   6.438  -0.194   6.277 -0.5044 -0.6032  0.2180
  151SAPE   O1416671   6.662  -0.310   6.252  0.1194 -0.5362 -0.8981
  151SAPE   O1216672   6.644  -0.088   6.350 -0.3011 -0.4801 -0.4266
  151SAPE   O1116673   6.549  -0.273   6.473  0.0519 -0.3988 -0.6969
  151SAPE    C116674   6.652  -0.340   6.542  0.3146  0.4912  0.2969
  151SAPE    HA16675   6.755  -0.328   6.501  0.2934  1.8084  0.5904
  151SAPE    HB16676   6.653  -0.303   6.647  0.7703 -0.8171  0.7757
  151SAPE    C216677   6.629  -0.496   6.543  0.0607 -0.8253 -0.0463
  151SAPE    HS16678   6.614  -0.531   6.439  2.2653  1.2668 -1.1333
  151SAPE   O2116679   6.502  -0.515   6.621 -0.9317 -0.1672 -0.1336
  151SAPE   C2116680   6.456  -0.639   6.614 -0.2761  0.3281  0.0117
  151SAPE   O2216681   6.514  -0.720   6.544 -0.0492  0.3742  0.0988
  151SAPE   C2216682   6.330  -0.668   6.700 -0.3566 -0.8861  0.1142
  151SAPE   H2R16683   6.317  -0.585   6.772  0.7122  0.7053 -1.4261
  151SAPE   H2S16684   6.238  -0.667   6.637 -2.3786 -0.7027  2.8973
  151SAPE    C316685   6.757  -0.567   6.601 -0.2034 -0.6182 -0.3986
  151SAPE    HX16686   6.830  -0.549   6.520 -0.3705  0.9404 -0.2347
  151SAPE    HY16687   6.743  -0.677   6.609  1.0792 -0.6833  1.6719
  151SAPE   O3116688   6.801  -0.500   6.722 -0.5072  0.2984  0.2013
  151SAPE   C3116689   6.927  -0.527   6.759  0.0385  0.4043 -0.2475
  151SAPE   O3216690   6.990  -0.619   6.712  0.3721 -0.4952 -0.0253
  151SAPE   C3216691   6.964  -0.443   6.881 -0.1035 -0.4335  0.1724
  151SAPE   H2X16692   6.943  -0.335   6.869  0.6031 -0.4842 -1.9903
  151SAPE   H2Y16693   7.075  -0.454   6.881 -0.1014 -0.4510 -0.2005
  151SAPE   C2316694   6.329  -0.806   6.768 -1.0846 -0.5974 -0.7769
  151SAPE   H3R16695   6.347  -0.879   6.686  0.6881 -0.5293 -0.4752
  151SAPE   H3S16696   6.231  -0.822   6.819  0.5126 -2.3553  1.9859
  151SAPE   C2416697   6.435  -0.825   6.882 -0.3578 -0.0632  0.3944
  151SAPE   H4R16698   6.522  -0.784   6.827 -0.3878  0.7367  0.9202
  151SAPE   H4S16699   6.442  -0.934   6.904 -1.3205 -0.3519 -0.6192
  151SAPE   C2516700   6.400  -0.746   7.003 -0.5572 -0.4037 -0.7378
  151SAPE   H5R16701   6.433  -0.643   6.985 -1.3406 -0.2010 -1.0064
  151SAPE   C2616702   6.351  -0.785   7.117  0.3653  1.1013 -1.4949
  151SAPE   H6R16703   6.311  -0.718   7.194 -0.3305 -1.8316  0.9324
  151SAPE   C2716704   6.308  -0.927   7.160 -0.5897 -0.4596 -0.4341
  151SAPE   H7R16705   6.320  -0.999   7.076  0.5788 -0.5426 -0.2127
  151SAPE   H7S16706   6.199  -0.937   7.180 -0.1358 -2.8222  1.3739
  151SAPE   C2816707   6.378  -0.976   7.286  0.3229  0.0299  0.7448
  151SAPE   H8R16708   6.473  -1.029   7.268 -1.1706 -1.7818 -2.8892
  151SAPE   C2916709   6.317  -0.976   7.407 -0.0599 -0.2500 -0.2423
  151SAPE   H9R16710   6.378  -1.011   7.491 -1.7060 -1.0013  0.6942
  151SAPE  C21016711   6.175  -0.935   7.448 -0.3659 -0.4812 -0.7906
  151SAPE  H10R16712   6.123  -1.014   7.506  0.8649 -0.9811 -0.3286
  151SAPE  H10S16713   6.121  -0.890   7.362 -0.3056  0.0632 -0.5480
  151SAPE  C21116714   6.170  -0.816   7.546 -0.2415 -0.2918  0.4212
  151SAPE  H11R16715   6.145  -0.721   7.497  0.4859 -0.3759 -0.1326
  151SAPE  C21216716   6.190  -0.807   7.681  0.0440 -0.3291 -0.6272
  151SAPE  H12R16717   6.180  -0.710   7.733  0.9749 -0.8073  0.4990
  151SAPE  C21316718   6.229  -0.920   7.777  0.3913  0.1958  0.6470
  151SAPE  H13R16719   6.260  -1.000   7.706 -0.7457 -0.3535  0.7402
  151SAPE  H13S16720   6.132  -0.956   7.817  1.0489 -1.2418  1.0108
  151SAPE  C21416721   6.324  -0.906   7.890 -0.0680 -0.0699  0.1279
  151SAPE  H14R16722   6.424  -0.948   7.875  0.5436  0.7403  1.7159
  151SAPE  C21516723   6.308  -0.848   8.004 -0.3889  0.1870 -0.2449
  151SAPE  H15R16724   6.379  -0.855   8.087 -0.9493 -0.0415  0.2283
  151SAPE  C21616725   6.176  -0.793   8.058  0.6710  0.4020  0.2752
  151SAPE  H16R16726   6.084  -0.832   8.009  1.1274 -0.0189 -0.2415
  151SAPE  H16S16727   6.170  -0.682   8.053 -2.5685  0.4693  2.5734
  151SAPE  C21716728   6.156  -0.817   8.208  0.3914  0.3319 -0.0290
  151SAPE  H17R16729   6.243  -0.799   8.275  0.5474 -1.9615  0.4354
  151SAPE  H17S16730   6.155  -0.927   8.219  3.0761  0.1206 -0.9698
  151SAPE  C21816731   6.030  -0.750   8.255  0.3508 -0.1243 -0.0563
  151SAPE  H18R16732   5.945  -0.790   8.196 -2.8267 -0.5192  4.3157
  151SAPE  H18S16733   6.045  -0.640   8.248 -4.4471  0.6725 -0.8738
  151SAPE  C21916734   6.006  -0.794   8.406 -0.1282 -0.7658 -0.2715
  151SAPE  H19R16735   6.077  -0.743   8.475  1.3345 -2.7977 -0.1767
  151SAPE  H19S16736   6.023  -0.902   8.426 -1.2005 -0.7369  0.8941
  151SAPE  C22016737   5.866  -0.773   8.451 -0.0793 -0.1798  0.6588
  151SAPE  H20R16738   5.825  -0.672   8.429  1.0358  0.5454  1.7897
  151SAPE  H20S16739   5.808  -0.852   8.400  1.3789  0.7178 -2.6624
  151SAPE  H20T16740   5.847  -0.790   8.560  0.8060 -0.9095  0.7085
  151SAPE   C3316741   6.908  -0.503   7.012  0.2004  0.3081 -0.8089
  151SAPE   H3X16742   6.881  -0.610   7.000  1.6763  0.0302 -1.8165
  151SAPE   H3Y16743   6.812  -0.453   7.037 -1.6416 -3.0116 -0.5528
  151SAPE   C3416744   7.013  -0.497   7.124 -0.6174  0.2577  0.0243
  151SAPE   H4X16745   7.077  -0.408   7.107 -1.7221  0.9800 -0.5379
  151SAPE   H4Y16746   7.079  -0.586   7.118 -1.5551 -0.5381  1.0455
  151SAPE   C3516747   6.958  -0.514   7.266  0.2804 -0.0097 -0.6755
  151SAPE   H5X16748   6.905  -0.611   7.275 -0.1387  0.3289  0.8199
  151SAPE   H5Y16749   6.887  -0.435   7.300  0.0887 -0.6462  0.4479
  151SAPE   C3616750   7.076  -0.526   7.369  0.3333 -0.0451 -0.0440
  151SAPE   H6X16751   7.131  -0.429   7.372  3.6395 -1.8026  2.4469
  151SAPE   H6Y16752   7.143  -0.609   7.336  3.2211  0.9753  2.7482
  151SAPE   C3716753   7.029  -0.560   7.513  0.7387 -0.0095  0.2175
  151SAPE   H7X16754   7.117  -0.604   7.564  2.3178  1.6037 -0.9557
  151SAPE   H7Y16755   6.937  -0.622   7.518 -0.7555  2.1838  1.8307
  151SAPE   C3816756   7.009  -0.440   7.608  0.0864  0.3188 -1.0177
  151SAPE   H8X16757   6.940  -0.364   7.564  0.6499  0.3307 -1.9050
  151SAPE   H8Y16758   7.107  -0.391   7.626  0.5548 -0.7696 -0.4848
  151SAPE   C3916759   6.939  -0.473   7.741  0.1468 -0.0512  0.0674
  151SAPE   H9X16760   7.002  -0.546   7.796 -0.5188  0.4282  1.5009
  151SAPE   H9Y16761   6.844  -0.526   7.717 -0.2148  0.0713  1.1915
  151SAPE  C31016762   6.920  -0.343   7.816  0.0661 -0.1607 -0.2252
  151SAPE  H10X16763   6.853  -0.275   7.758  1.4458  0.2874 -1.3524
  151SAPE  H10Y16764   7.019  -0.303   7.846  0.1574 -1.8430  1.9184
  151SAPE  C31116765   6.855  -0.364   7.954 -0.2238  0.1146  0.4143
  151SAPE  H11X16766   6.747  -0.387   7.938 -0.1930 -0.3866  0.8977
  151SAPE  H11Y16767   6.855  -0.264   8.004  1.3285 -0.0194  0.7438
  151SAPE  C31216768   6.929  -0.457   8.056  0.6874  0.2644  0.0713
  151SAPE  H12X16769   6.920  -0.561   8.018  5.1300  0.1014 -1.0467
  151SAPE  H12Y16770   6.878  -0.442   8.153 -0.9038  1.1650 -0.8571
  151SAPE  C31316771   7.076  -0.432   8.068 -0.5610  0.3860  0.3927
  151SAPE  H13X16772   7.097  -0.328   8.099  0.4213  0.0194  1.0008
  151SAPE  H13Y16773   7.128  -0.448   7.971 -1.5850  1.1790 -0.2961
  151SAPE  C31416774   7.153  -0.526   8.166 -0.5742 -0.0408  0.5337
  151SAPE  H14X16775   7.261  -0.501   8.173 -0.0833 -2.2439  2.0105
  151SAPE  H14Y16776   7.156  -0.628   8.121 -0.1170  0.3537 -0.3582
  151SAPE  C31516777   7.095  -0.526   8.309  0.6302  0.1249  0.0713
  151SAPE  H15X16778   7.034  -0.617   8.330  0.9385  0.1010  0.8682
  151SAPE  H15Y16779   7.026  -0.440   8.322 -1.1240 -1.2552  0.3308
  151SAPE  C31616780   7.211  -0.519   8.411 -0.0774 -0.3188  0.3588
  151SAPE  H16X16781   7.267  -0.424   8.394 -0.9749  0.2646  0.6057
  151SAPE  H16Y16782   7.280  -0.602   8.387 -0.4184 -0.6325  0.4530
  151SAPE  C31716783   7.162  -0.525   8.555  0.1052 -0.0059  0.6429
  151SAPE  H17X16784   7.086  -0.606   8.556 -0.0512  0.1166 -0.2209
  151SAPE  H17Y16785   7.109  -0.431   8.582 -2.5103 -0.2253 -2.9751
  151SAPE  C31816786   7.273  -0.565   8.652 -0.7701  0.1856  1.1292
  151SAPE  H18X16787   7.327  -0.660   8.630  0.8405  0.7783  2.4379
  151SAPE  H18Y16788   7.256  -0.554   8.761  2.6521 -2.6235  2.1151
  151SAPE  H18Z16789   7.351  -0.487   8.644  1.1139 -1.7476 -0.8591
  152SAPE     N16790   3.573   4.644   6.340  0.3507  0.0492 -0.5014
  152SAPE   HN116791   3.602   4.637   6.240 -0.5749  3.1716 -1.0933
  152SAPE   HN216792   3.626   4.724   6.380  1.7471 -0.9382 -0.2929
  152SAPE   HN316793   3.613   4.568   6.399 -1.2108  1.8593  3.1876
  152SAPE   C1216794   3.431   4.648   6.379  1.1170 -0.0247 -0.3731
  152SAPE  H12A16795   3.383   4.734   6.327  0.6231 -0.9303 -1.4386
  152SAPE  H12B16796   3.433   4.666   6.489  0.8251 -3.1253  0.2236
  152SAPE   C1116797   3.353   4.520   6.348  0.0817 -0.2145 -0.1709
  152SAPE  H11A16798   3.249   4.557   6.358 -0.2926  0.4001 -4.3490
  152SAPE  H11B16799   3.372   4.447   6.429  1.8835  0.3726 -0.0183
  152SAPE     P16800   3.405   4.316   6.189  0.0110  0.1166 -0.1766
  152SAPE   O1316801   3.335   4.285   6.058 -0.6267  0.5119 -0.6827
  152SAPE   O1416802   3.547   4.286   6.188  0.1141  0.0316  0.5528
  152SAPE   O1216803   3.373   4.470   6.218 -0.5663 -0.0785  0.0397
  152SAPE   O1116804   3.328   4.240   6.301  0.0725  0.0999  0.1926
  152SAPE    C116805   3.328   4.093   6.305  0.5810 -0.0935 -0.5555
  152SAPE    HA16806   3.241   4.046   6.254  1.6727 -1.7755 -0.9579
  152SAPE    HB16807   3.421   4.044   6.271  0.5470  1.4462 -3.0916
  152SAPE    C216808   3.314   4.057   6.452 -0.0877  0.2798  0.2586
  152SAPE    HS16809   3.215   4.103   6.473 -0.6996 -0.6045 -0.6117
  152SAPE   O2116810   3.420   4.115   6.526  0.1807 -0.7811 -0.0096
  152SAPE   C2116811   3.380   4.187   6.630  1.1667  0.1349 -0.5946
  152SAPE   O2216812   3.271   4.178   6.681 -0.1972  1.3731  0.7117
  152SAPE   C2216813   3.500   4.257   6.693 -0.0776 -0.4286 -0.0696
  152SAPE   H2R16814   3.584   4.219   6.632  1.4399  1.2964  0.8294
  152SAPE   H2S16815   3.508   4.364   6.661 -0.7270  0.2450  1.8916
  152SAPE    C316816   3.313   3.902   6.489 -0.3238  0.4168 -0.5018
  152SAPE    HX16817   3.409   3.865   6.449 -0.0839  1.1291 -0.6072
  152SAPE    HY16818   3.231   3.859   6.427 -0.1182  1.1339 -1.2867
  152SAPE   O3116819   3.292   3.881   6.637 -0.1714 -0.0674  0.2696
  152SAPE   C3116820   3.171   3.852   6.667  0.3539 -0.5820 -0.4261
  152SAPE   O3216821   3.075   3.843   6.591 -0.0144 -0.1314  0.5618
  152SAPE   C3216822   3.151   3.857   6.823  0.0099  0.9319  0.3168
  152SAPE   H2X16823   3.066   3.927   6.838  0.5139  1.5969  0.1379
  152SAPE   H2Y16824   3.244   3.889   6.875 -0.6953  1.6886  1.1427
  152SAPE   C2316825   3.521   4.235   6.847 -0.3328  0.2128  0.0504
  152SAPE   H3R16826   3.628   4.254   6.869  1.2187 -4.6542 -2.0060
  152SAPE   H3S16827   3.512   4.130   6.881 -0.9993  0.2551  0.0058
  152SAPE   C2416828   3.430   4.332   6.920 -0.2823 -0.4402  0.6734
  152SAPE   H4R16829   3.331   4.346   6.871  1.8274  1.6263 -3.4850
  152SAPE   H4S16830   3.477   4.433   6.916 -0.7869 -0.1020  2.1763
  152SAPE   C2516831   3.401   4.280   7.057 -0.1834  0.5164  0.0878
  152SAPE   H5R16832   3.365   4.177   7.074 -1.4389  0.7569 -0.9682
  152SAPE   C2616833   3.429   4.341   7.174 -0.6285  0.5886 -0.0865
  152SAPE   H6R16834   3.405   4.287   7.266  0.5007  0.4013  0.1046
  152SAPE   C2716835   3.492   4.482   7.192 -0.3624 -0.1505  0.0640
  152SAPE   H7R16836   3.499   4.513   7.298  0.4908  0.5563 -0.1851
  152SAPE   H7S16837   3.423   4.555   7.144  0.1486  0.9444  0.9535
  152SAPE   C2816838   3.634   4.488   7.139  0.3663  0.1095  0.5831
  152SAPE   H8R16839   3.666   4.410   7.068  2.2043  2.2161 -1.0641
  152SAPE   C2916840   3.722   4.585   7.172 -0.5655  0.4695  0.1444
  152SAPE   H9R16841   3.827   4.568   7.143  0.4580  0.4988  3.5086
  152SAPE  C21016842   3.707   4.701   7.270  0.5993 -0.1911  0.6200
  152SAPE  H10R16843   3.758   4.676   7.366  1.9860 -0.2947 -0.1182
  152SAPE  H10S16844   3.603   4.736   7.290  1.8173  2.4818  2.9241
  152SAPE  C21116845   3.761   4.832   7.206 -0.5029  0.1621 -0.3121
  152SAPE  H11R16846   3.754   4.831   7.097 -0.3747 -1.7352 -0.3310
  152SAPE  C21216847   3.823   4.937   7.270 -0.2763 -0.4472  0.3498
  152SAPE  H12R16848   3.862   5.021   7.212 -1.4221 -0.5107 -0.5596
  152SAPE  C21316849   3.856   4.942   7.415 -0.6992  0.1327  0.1323
  152SAPE  H13R16850   3.951   4.999   7.424 -0.8749  0.0346  3.7944
  152SAPE  H13S16851   3.875   4.839   7.453  3.2468  0.9819  0.9053
  152SAPE  C21416852   3.752   5.001   7.498 -0.4734  0.0417  0.4361
  152SAPE  H14R16853   3.652   4.984   7.456  0.9816  0.9457 -3.8149
  152SAPE  C21516854   3.771   5.075   7.611 -0.5211 -1.3819 -0.8462
  152SAPE  H15R16855   3.674   5.111   7.649 -0.9772 -2.0705 -1.3439
  152SAPE  C21616856   3.899   5.113   7.681 -0.5504  0.4786  0.3938
  152SAPE  H16R16857   3.959   5.183   7.619  1.8456  1.9129  3.9782
  152SAPE  H16S16858   3.969   5.028   7.697 -0.4767  0.4637  0.0145
  152SAPE  C21716859   3.875   5.185   7.813  0.1906  0.8348 -0.2338
  152SAPE  H17R16860   3.815   5.278   7.805  1.6000  2.4210  4.4296
  152SAPE  H17S16861   3.971   5.221   7.857  1.2093 -0.6434 -1.1483
  152SAPE  C21816862   3.814   5.104   7.927  0.2435  0.5955  0.0964
  152SAPE  H18R16863   3.868   5.007   7.928 -1.7027 -0.5684 -0.4427
  152SAPE  H18S16864   3.708   5.082   7.899  0.7662  0.0757 -1.5385
  152SAPE  C21916865   3.823   5.164   8.074 -0.2624  0.3058 -0.3347
  152SAPE  H19R16866   3.753   5.250   8.068 -0.3537  0.3611  1.1630
  152SAPE  H19S16867   3.922   5.211   8.091 -0.5473  0.2791  1.5953
  152SAPE  C22016868   3.800   5.067   8.185 -0.0842  0.2627 -0.6130
  152SAPE  H20R16869   3.823   5.105   8.287 -1.1335  0.2903 -0.3710
  152SAPE  H20S16870   3.869   4.981   8.172  0.1854  0.6362 -1.7499
  152SAPE  H20T16871   3.694   5.034   8.179 -0.3153  0.1543  2.4751
  152SAPE   C3316872   3.118   3.719   6.884 -0.3625  0.1459  0.4636
  152SAPE   H3X16873   3.193   3.645   6.847 -0.6954  0.6590 -1.3212
  152SAPE   H3Y16874   3.020   3.686   6.844  0.6422 -1.2786 -0.9663
  152SAPE   C3416875   3.119   3.707   7.036  0.7740 -0.5921 -0.2915
  152SAPE   H4X16876   3.227   3.697   7.059  1.3994  5.0211  0.7721
  152SAPE   H4Y16877   3.053   3.623   7.063 -0.1878 -0.8105 -2.9740
  152SAPE   C3516878   3.065   3.835   7.101 -0.5581  0.8411  0.0423
  152SAPE   H5X16879   2.964   3.848   7.055 -1.3032 -2.1118  0.6452
  152SAPE   H5Y16880   3.131   3.918   7.069 -0.3243  0.5434 -0.2592
  152SAPE   C3616881   3.048   3.820   7.255  0.6350  0.6315  0.6188
  152SAPE   H6X16882   2.986   3.731   7.279  1.5340 -0.1799  0.0634
  152SAPE   H6Y16883   3.010   3.916   7.296  0.5609  1.0343 -0.3570
  152SAPE   C3716884   3.178   3.797   7.318 -0.7740  0.2237 -0.4365
  152SAPE   H7X16885   3.259   3.873   7.306  0.3595 -0.4471  2.2497
  152SAPE   H7Y16886   3.230   3.710   7.274  0.4117 -0.7941  2.6825
  152SAPE   C3816887   3.172   3.764   7.471  0.0954 -0.7800  0.3801
  152SAPE   H8X16888   3.275   3.742   7.508  0.3513  0.2491  0.3117
  152SAPE   H8Y16889   3.113   3.670   7.479 -0.9974 -0.1410  0.0120
  152SAPE   C3916890   3.106   3.868   7.560  0.0925  0.3279 -0.0817
  152SAPE   H9X16891   3.007   3.904   7.525 -1.4661 -3.6748 -0.3055
  152SAPE   H9Y16892   3.168   3.961   7.560 -1.0139  1.0842 -0.1414
  152SAPE  C31016893   3.075   3.822   7.707 -0.5148  0.1664 -0.4784
  152SAPE  H10X16894   3.010   3.901   7.750  1.7072  2.1182 -0.5182
  152SAPE  H10Y16895   3.171   3.823   7.762 -0.9182  0.2105  0.2278
  152SAPE  C31116896   3.019   3.680   7.723 -0.0574  0.5720 -0.5587
  152SAPE  H11X16897   3.091   3.609   7.677  2.1419  1.6427  1.0274
  152SAPE  H11Y16898   2.929   3.665   7.661  1.4719 -0.9367 -2.5539
  152SAPE  C31216899   2.989   3.647   7.866 -0.2395 -0.3007 -0.0829
  152SAPE  H12X16900   2.905   3.574   7.863 -0.3838 -0.1470  0.2429
  152SAPE  H12Y16901   2.961   3.743   7.914  1.2230 -1.0726  2.5245
  152SAPE  C31316902   3.115   3.594   7.938 -0.5562  0.6106 -0.1465
  152SAPE  H13X16903   3.181   3.679   7.966  0.7324 -0.3346 -0.2291
  152SAPE  H13Y16904   3.168   3.529   7.866 -0.5134  0.0960  0.3390
  152SAPE  C31416905   3.084   3.520   8.071  0.4875  0.5913 -1.1554
  152SAPE  H14X16906   3.179   3.489   8.119 -0.0252 -1.0362 -1.1325
  152SAPE  H14Y16907   3.020   3.430   8.057 -0.4346  0.9253  0.5978
  152SAPE  C31516908   2.985   3.611   8.152  0.3570  0.5443 -0.9478
  152SAPE  H15X16909   2.895   3.640   8.094 -0.1417  0.5128 -0.2050
  152SAPE  H15Y16910   3.038   3.704   8.181  0.9985  0.3633 -1.5229
  152SAPE  C31616911   2.949   3.550   8.281  0.3012 -0.0014  0.1059
  152SAPE  H16X16912   2.876   3.467   8.269  1.8133 -1.5281  1.0136
  152SAPE  H16Y16913   2.892   3.628   8.335 -0.0878  0.9695 -1.6023
  152SAPE  C31716914   3.065   3.488   8.365  0.6274 -0.4203 -0.2162
  152SAPE  H17X16915   3.148   3.562   8.369  0.7253 -0.5037 -0.6196
  152SAPE  H17Y16916   3.096   3.390   8.323  1.5318 -0.6513  0.9687
  152SAPE  C31816917   3.029   3.443   8.508  0.1011  0.4581 -0.2092
  152SAPE  H18X16918   3.112   3.382   8.551  0.3365  0.5449 -0.5424
  152SAPE  H18Y16919   2.937   3.381   8.514 -0.9756  2.0674  0.5894
  152SAPE  H18Z16920   3.006   3.522   8.582  0.1061  0.2742 -0.0093
  153SAPE     N16921   0.655   3.208   6.226  0.4563 -0.2081 -0.0938
  153SAPE   HN116922   0.723   3.129   6.224  1.4582  0.6528 -0.5959
  153SAPE   HN216923   0.605   3.197   6.135 -1.4302 -2.7392  1.1177
  153SAPE   HN316924   0.705   3.299   6.233  0.4094 -0.0033 -1.8406
  153SAPE   C1216925   0.557   3.200   6.341 -0.3724 -0.0372  0.3452
  153SAPE  H12A16926   0.622   3.200   6.431 -0.2070 -1.4324  0.2434
  153SAPE  H12B16927   0.513   3.099   6.329 -0.2264 -0.0734  0.1058
  153SAPE   C1116928   0.451   3.310   6.356  0.2707  1.0380  0.9665
  153SAPE  H11A16929   0.506   3.406   6.361  1.0808  0.7163 -1.0674
  153SAPE  H11B16930   0.386   3.291   6.445  0.4433 -3.1707  0.4179
  153SAPE     P16931   0.274   3.433   6.209 -0.2380  0.0475 -0.0327
  153SAPE   O1316932   0.360   3.535   6.148  0.2742 -0.6896  0.1301
  153SAPE   O1416933   0.153   3.400   6.132  0.3796  0.1504  0.2062
  153SAPE   O1216934   0.372   3.311   6.236 -0.0227  0.1089  0.9763
  153SAPE   O1116935   0.237   3.483   6.353 -0.7403  0.0444  0.6798
  153SAPE    C116936   0.121   3.422   6.413  0.1683  0.2865  0.4167
  153SAPE    HA16937   0.104   3.317   6.379 -1.5148 -0.0602  2.1347
  153SAPE    HB16938   0.142   3.404   6.521 -0.0621  0.0192  0.4203
  153SAPE    C216939  -0.005   3.503   6.400 -0.0752 -0.1636  0.7744
  153SAPE    HS16940  -0.014   3.526   6.291 -0.2279 -1.3025  0.5264
  153SAPE   O2116941   0.015   3.618   6.482  0.3064  0.3466 -0.9955
  153SAPE   C2116942  -0.051   3.729   6.449  0.1716  0.2323  0.5238
  153SAPE   O2216943  -0.129   3.746   6.355  0.2915 -0.5535 -0.4544
  153SAPE   C2216944  -0.017   3.845   6.538  1.1404  0.1418  0.4238
  153SAPE   H2R16945   0.093   3.863   6.534  1.1342  0.1779  0.4200
  153SAPE   H2S16946  -0.063   3.937   6.496  1.1983  1.6344  3.3738
  153SAPE    C316947  -0.143   3.433   6.436  0.0568 -0.3671 -0.3011
  153SAPE    HX16948  -0.153   3.337   6.382 -2.5027 -0.3507  0.0219
  153SAPE    HY16949  -0.227   3.497   6.400 -1.0171 -1.9370 -0.6996
  153SAPE   O3116950  -0.139   3.384   6.574  0.0721 -0.3083 -0.8848
  153SAPE   C3116951  -0.183   3.471   6.662  0.1493  0.0946 -0.2454
  153SAPE   O3216952  -0.260   3.562   6.627  0.4288  0.6395  0.9371
  153SAPE   C3216953  -0.131   3.454   6.804 -0.1536 -0.0795 -0.2140
  153SAPE   H2X16954  -0.026   3.490   6.811  0.2575 -1.0945 -0.9901
  153SAPE   H2Y16955  -0.139   3.348   6.836  0.0122  0.7364  2.8928
  153SAPE   C2316956  -0.068   3.823   6.685  0.1348 -0.4951 -0.2720
  153SAPE   H3R16957  -0.007   3.742   6.730  1.2597 -0.5706 -1.8190
  153SAPE   H3S16958  -0.174   3.790   6.683  0.4295 -1.4652 -2.0997
  153SAPE   C2416959  -0.048   3.946   6.769  0.2714  0.0697 -0.9280
  153SAPE   H4R16960  -0.107   3.938   6.863  1.8223 -0.7771  0.0164
  153SAPE   H4S16961  -0.104   4.029   6.722  0.1468  0.4993 -0.0557
  153SAPE   C2516962   0.093   3.982   6.798 -0.2863 -0.5316  0.7619
  153SAPE   H5R16963   0.158   3.994   6.711  0.9032 -1.4486  1.4997
  153SAPE   C2616964   0.151   4.002   6.920 -0.4773 -0.3816  0.6791
  153SAPE   H6R16965   0.258   4.027   6.914 -0.3105 -1.0231  0.9542
  153SAPE   C2716966   0.085   3.994   7.057  0.2124 -0.3427  0.5564
  153SAPE   H7R16967   0.083   3.894   7.105  1.0713  0.2443  1.8730
  153SAPE   H7S16968  -0.024   4.014   7.047  0.4354  0.5712 -0.2659
  153SAPE   C2816969   0.144   4.097   7.156  0.0373  0.2323  0.5791
  153SAPE   H8R16970   0.159   4.196   7.111  0.7267 -0.2264 -0.2423
  153SAPE   C2916971   0.200   4.074   7.280  0.3250 -0.4325  0.8796
  153SAPE   H9R16972   0.249   4.153   7.339 -1.0161  2.1379 -1.2398
  153SAPE  C21016973   0.203   3.946   7.350 -0.2230 -0.0677  0.5351
  153SAPE  H10R16974   0.202   3.863   7.277  0.5850 -0.2771  0.7579
  153SAPE  H10S16975   0.102   3.942   7.396 -1.3403 -3.2216 -1.8431
  153SAPE  C21116976   0.323   3.929   7.448 -0.1609 -0.0098  0.9883
  153SAPE  H11R16977   0.419   3.895   7.405  0.5189 -0.6621  2.9376
  153SAPE  C21216978   0.315   3.956   7.577 -0.0542  0.0125 -0.4650
  153SAPE  H12R16979   0.404   3.951   7.641  0.1316 -1.2190 -0.8020
  153SAPE  C21316980   0.189   4.004   7.642 -0.4537  0.3954  0.1225
  153SAPE  H13R16981   0.131   4.074   7.578  1.4459  2.2517  0.3064
  153SAPE  H13S16982   0.218   4.093   7.701 -1.3632  1.0343 -0.3698
  153SAPE  C21416983   0.108   3.909   7.721  0.4601 -0.4949  1.2419
  153SAPE  H14R16984   0.060   3.831   7.659  0.9977  0.1740 -0.0530
  153SAPE  C21516985   0.101   3.892   7.856  0.1302 -0.6864  0.6681
  153SAPE  H15R16986   0.030   3.819   7.897 -1.5207  0.2847 -0.3324
  153SAPE  C21616987   0.174   3.977   7.960 -0.7978  0.5873 -0.0711
  153SAPE  H16R16988   0.254   4.042   7.919 -1.1019  0.6408 -0.5815
  153SAPE  H16S16989   0.224   3.906   8.031 -1.9940  0.7733  1.0002
  153SAPE  C21716990   0.074   4.067   8.029  0.0082  0.4147 -0.3860
  153SAPE  H17R16991  -0.004   4.112   7.963  0.6485  1.2617 -0.5853
  153SAPE  H17S16992   0.127   4.150   8.081  0.7588 -0.8353  0.9036
  153SAPE  C21816993   0.001   3.984   8.137  0.1103 -0.3848  0.0341
  153SAPE  H18R16994   0.085   3.929   8.184  1.4158  0.0369 -1.7256
  153SAPE  H18S16995  -0.065   3.907   8.092 -0.1071 -0.7444  0.9418
  153SAPE  C21916996  -0.075   4.059   8.248 -0.3644 -0.0509 -0.5049
  153SAPE  H19R16997  -0.164   4.111   8.207  0.6217  1.3454 -0.9520
  153SAPE  H19S16998  -0.013   4.145   8.282 -1.8997  0.5608  0.8554
  153SAPE  C22016999  -0.096   3.974   8.382 -0.4015  0.0880  0.8479
  153SAPE  H20R17000  -0.149   3.879   8.361 -1.7376  0.8938  0.4342
  153SAPE  H20S17001  -0.166   4.026   8.451 -1.6865 -0.8504  0.2898
  153SAPE  H20T17002   0.002   3.967   8.435 -0.4642  1.1666  1.1308
  153SAPE   C3317003  -0.226   3.534   6.900 -0.0695 -0.2184 -0.0062
  153SAPE   H3X17004  -0.330   3.500   6.883 -0.6404  0.9658  0.9503
  153SAPE   H3Y17005  -0.232   3.640   6.868 -0.1964 -0.0013  0.7032
  153SAPE   C3417006  -0.180   3.520   7.042 -0.2234 -0.1147  0.3318
  153SAPE   H4X17007  -0.180   3.413   7.071  2.1253 -0.7661 -1.7736
  153SAPE   H4Y17008  -0.266   3.570   7.091 -1.3354  1.1569 -2.6747
  153SAPE   C3517009  -0.040   3.574   7.080  0.2673 -0.4450 -0.1032
  153SAPE   H5X17010  -0.008   3.658   7.015 -3.7899  1.4212 -0.0046
  153SAPE   H5Y17011   0.030   3.488   7.074  0.1676 -0.6844  1.6918
  153SAPE   C3617012  -0.046   3.629   7.222  0.1714  0.9132  0.0551
  153SAPE   H6X17013  -0.117   3.712   7.242 -0.3314  0.3078  0.8532
  153SAPE   H6Y17014   0.057   3.666   7.239  1.4110 -2.0365 -0.4013
  153SAPE   C3717015  -0.071   3.521   7.337 -0.5637  0.1000  0.4531
  153SAPE   H7X17016   0.013   3.451   7.318  0.9275  1.4188  1.8932
  153SAPE   H7Y17017  -0.166   3.467   7.316  0.1005 -2.1859  2.7633
  153SAPE   C3817018  -0.072   3.581   7.471  0.8492 -0.0829 -0.2976
  153SAPE   H8X17019  -0.168   3.634   7.487  1.0695  0.3554 -0.4199
  153SAPE   H8Y17020   0.009   3.657   7.461 -0.9430  2.0520  0.5533
  153SAPE   C3917021  -0.054   3.488   7.597  0.2562  0.0186 -0.7514
  153SAPE   H9X17022   0.039   3.428   7.593  1.4365  1.6927  0.3297
  153SAPE   H9Y17023  -0.139   3.417   7.587  0.2651 -0.2970  1.1265
  153SAPE  C31017024  -0.061   3.570   7.728  0.2109 -0.3621 -1.1877
  153SAPE  H10X17025  -0.128   3.658   7.716 -2.1552 -2.2475 -2.8924
  153SAPE  H10Y17026   0.040   3.614   7.742  0.5418 -1.2004 -0.9242
  153SAPE  C31117027  -0.096   3.469   7.838 -0.3096 -0.8036 -0.3593
  153SAPE  H11X17028  -0.042   3.373   7.822  2.0950  0.3691  0.2277
  153SAPE  H11Y17029  -0.205   3.449   7.829 -0.8676  1.6504  0.1833
  153SAPE  C31217030  -0.073   3.518   7.982 -0.7795 -0.5576  0.0908
  153SAPE  H12X17031  -0.108   3.440   8.054  1.9285 -2.0422 -0.0329
  153SAPE  H12Y17032  -0.135   3.603   8.016 -1.5617 -0.6212 -1.1439
  153SAPE  C31317033   0.078   3.545   8.015 -0.4566  0.5699 -0.9110
  153SAPE  H13X17034   0.117   3.629   7.953  3.3004 -0.4157 -0.1559
  153SAPE  H13Y17035   0.146   3.462   7.985 -3.1249 -1.2816 -2.1983
  153SAPE  C31417036   0.108   3.605   8.157 -0.0361  0.2273  0.5379
  153SAPE  H14X17037   0.018   3.662   8.187  0.2275  0.4945  0.8328
  153SAPE  H14Y17038   0.196   3.673   8.151 -1.4306  2.1244  1.0235
  153SAPE  C31517039   0.114   3.500   8.268 -0.8335  0.1414 -0.0645
  153SAPE  H15X17040   0.176   3.414   8.235 -0.7197 -1.1773  3.1924
  153SAPE  H15Y17041   0.016   3.455   8.295  0.4134 -4.7092 -2.4794
  153SAPE  C31617042   0.192   3.550   8.392  0.6571 -0.5760 -0.8696
  153SAPE  H16X17043   0.152   3.653   8.404  3.5249  0.6984 -1.3426
  153SAPE  H16Y17044   0.294   3.577   8.357  0.4278  0.6711 -0.6376
  153SAPE  C31717045   0.176   3.462   8.512 -0.3943 -0.5159 -0.4991
  153SAPE  H17X17046   0.070   3.430   8.522 -0.6648 -0.3772 -2.4683
  153SAPE  H17Y17047   0.193   3.520   8.605  0.8013  1.0503 -1.6429
  153SAPE  C31817048   0.253   3.336   8.506 -0.1457 -0.6832 -0.7739
  153SAPE  H18X17049   0.203   3.264   8.575 -1.4028 -1.0527 -2.0467
  153SAPE  H18Y17050   0.361   3.359   8.521 -0.3759  0.8513 -1.3557
  153SAPE  H18Z17051   0.245   3.303   8.401  1.2286  1.5112 -1.6270
  154SAPE     N17052   4.661   2.497   6.106  0.8466 -0.6488 -0.1017
  154SAPE   HN117053   4.623   2.582   6.152 -4.1454 -2.8875  0.5659
  154SAPE   HN217054   4.602   2.423   6.150 -0.6924  0.4930 -0.1543
  154SAPE   HN317055   4.763   2.481   6.117  0.4584 -2.3409  1.2814
  154SAPE   C1217056   4.628   2.503   5.960 -0.3369 -0.4431 -0.5350
  154SAPE  H12A17057   4.700   2.434   5.910  1.6781  1.8835 -1.0819
  154SAPE  H12B17058   4.655   2.602   5.916  0.6141 -0.8767 -0.9703
  154SAPE   C1117059   4.484   2.460   5.940 -0.6299 -0.2462  1.1206
  154SAPE  H11A17060   4.463   2.365   5.993  1.9102 -1.1311  0.6606
  154SAPE  H11B17061   4.470   2.456   5.830  1.6440 -0.4767  0.7790
  154SAPE     P17062   4.247   2.536   6.003  0.2664  0.2139  0.0276
  154SAPE   O1317063   4.175   2.658   6.010 -0.6992 -0.5145  0.6937
  154SAPE   O1417064   4.199   2.439   5.900  0.0091  0.0767  0.0351
  154SAPE   O1217065   4.403   2.562   6.001  0.0865  0.1073  0.3471
  154SAPE   O1117066   4.238   2.474   6.147  0.0102 -0.5932  0.1158
  154SAPE    C117067   4.249   2.333   6.179 -0.2779 -0.5525  0.4113
  154SAPE    HA17068   4.223   2.262   6.097  0.1135 -0.4691  0.2102
  154SAPE    HB17069   4.352   2.317   6.217  0.0364  1.0302  0.2918
  154SAPE    C217070   4.162   2.310   6.310  0.3883 -0.4578  0.7341
  154SAPE    HS17071   4.064   2.345   6.272 -0.1179 -1.5287  1.0108
  154SAPE   O2117072   4.213   2.392   6.416  0.3103 -0.2381 -0.2860
  154SAPE   C2117073   4.149   2.388   6.526 -1.1260 -0.3367 -0.5521
  154SAPE   O2217074   4.043   2.341   6.551  0.3173 -0.2501  0.4270
  154SAPE   C2217075   4.232   2.473   6.635 -0.3444  0.4210 -0.3516
  154SAPE   H2R17076   4.318   2.405   6.652 -1.0834 -1.0811 -2.3031
  154SAPE   H2S17077   4.264   2.571   6.592 -0.3193  0.5630 -0.0120
  154SAPE    C317078   4.142   2.161   6.345  0.5448 -0.5040 -0.3906
  154SAPE    HX17079   4.092   2.107   6.262  2.0246 -1.2949 -0.8032
  154SAPE    HY17080   4.069   2.154   6.429  0.4855  1.1362 -0.2780
  154SAPE   O3117081   4.266   2.103   6.381 -0.4726  0.7167  0.5825
  154SAPE   C3117082   4.262   1.969   6.402  0.3112 -0.4614  0.0038
  154SAPE   O3217083   4.171   1.898   6.393  0.9306  0.4576  0.0824
  154SAPE   C3217084   4.395   1.918   6.447 -0.4457 -0.8890 -0.4080
  154SAPE   H2X17085   4.453   1.882   6.359  1.4159 -1.8480  1.1293
  154SAPE   H2Y17086   4.371   1.842   6.524 -3.4736  0.7191  0.3755
  154SAPE   C2317087   4.166   2.494   6.770  0.7274 -0.2467  0.2178
  154SAPE   H3R17088   4.243   2.513   6.848  0.9145  1.1262 -0.2762
  154SAPE   H3S17089   4.117   2.399   6.802 -2.6526  1.3838  0.2937
  154SAPE   C2417090   4.060   2.606   6.757  0.8707 -0.3282  0.6072
  154SAPE   H4R17091   4.000   2.610   6.851  0.0750  0.9404  0.0786
  154SAPE   H4S17092   3.989   2.569   6.681  0.3177 -2.1768  1.9624
  154SAPE   C2517093   4.115   2.739   6.729  0.8937  0.2913  0.1356
  154SAPE   H5R17094   4.095   2.768   6.624 -0.2978 -3.0842 -0.6813
  154SAPE   C2617095   4.181   2.810   6.820  0.2447 -0.5796  0.1503
  154SAPE   H6R17096   4.206   2.913   6.792 -2.5542 -0.0867 -0.8271
  154SAPE   C2717097   4.197   2.769   6.969 -0.2133  0.4473 -0.0669
  154SAPE   H7R17098   4.155   2.672   7.003 -0.3450  1.4440  2.8896
  154SAPE   H7S17099   4.134   2.838   7.029 -0.9318  0.0799 -0.3798
  154SAPE   C2817100   4.338   2.782   7.016 -0.1780  0.1564  0.1907
  154SAPE   H8R17101   4.423   2.785   6.946 -0.2324 -0.9997  0.0555
  154SAPE   C2917102   4.382   2.782   7.144  0.3887 -0.0437 -0.4733
  154SAPE   H9R17103   4.489   2.777   7.168  0.5935  1.8284 -0.8606
  154SAPE  C21017104   4.299   2.754   7.265  0.6891 -0.4543  0.0884
  154SAPE  H10R17105   4.318   2.651   7.302  0.7259  0.2479  2.1054
  154SAPE  H10S17106   4.193   2.739   7.236  0.5031 -0.0913  0.5687
  154SAPE  C21117107   4.318   2.848   7.385 -0.0375  0.7113 -0.0952
  154SAPE  H11R17108   4.257   2.940   7.379 -0.6875  0.3256  0.5043
  154SAPE  C21217109   4.403   2.835   7.487 -0.2781 -0.7557  0.3398
  154SAPE  H12R17110   4.406   2.909   7.569  1.6516 -0.1458 -0.2292
  154SAPE  C21317111   4.498   2.718   7.517  0.2215  0.1293  0.3540
  154SAPE  H13R17112   4.498   2.654   7.426 -0.6448  2.8602 -1.6915
  154SAPE  H13S17113   4.457   2.659   7.602  1.3212 -2.2235 -0.6565
  154SAPE  C21417114   4.638   2.765   7.552 -0.1594  0.2101 -0.7085
  154SAPE  H14R17115   4.681   2.801   7.457 -1.7682  0.0445 -1.5250
  154SAPE  C21517116   4.691   2.788   7.674  0.0534  0.3870 -0.2451
  154SAPE  H15R17117   4.790   2.835   7.676 -0.1197  0.8456 -1.6457
  154SAPE  C21617118   4.618   2.766   7.806  0.1704  0.4884 -0.4561
  154SAPE  H16R17119   4.673   2.689   7.865  2.6966  1.3738 -1.4971
  154SAPE  H16S17120   4.519   2.717   7.793  0.9794 -2.3735  2.5918
  154SAPE  C21717121   4.610   2.892   7.882 -0.1164 -0.4532 -0.2181
  154SAPE  H17R17122   4.591   2.985   7.824 -0.3737  1.6084  2.8930
  154SAPE  H17S17123   4.711   2.908   7.926 -0.6245 -0.4427  0.9803
  154SAPE  C21817124   4.497   2.887   7.989  0.0566 -0.6794  0.3542
  154SAPE  H18R17125   4.521   2.956   8.072 -1.8605 -2.0178  2.1212
  154SAPE  H18S17126   4.495   2.788   8.040 -1.8762 -1.3621 -0.9132
  154SAPE  C21917127   4.359   2.909   7.923 -0.0492  0.1867  0.2628
  154SAPE  H19R17128   4.375   2.940   7.817  1.2047 -0.6545  0.1864
  154SAPE  H19S17129   4.298   2.991   7.967 -0.9545 -1.2872  1.8791
  154SAPE  C22017130   4.265   2.791   7.922  0.0793  0.3021  0.9780
  154SAPE  H20R17131   4.317   2.705   7.876 -1.9573 -0.2296 -0.4419
  154SAPE  H20S17132   4.177   2.809   7.857  0.9144 -3.4409 -1.5145
  154SAPE  H20T17133   4.234   2.769   8.026  1.4148  0.5144  1.4499
  154SAPE   C3317134   4.483   2.031   6.496 -0.9282 -0.0314 -0.3154
  154SAPE   H3X17135   4.500   2.105   6.415  1.0133 -1.4144 -1.2531
  154SAPE   H3Y17136   4.589   1.997   6.497 -0.8019  0.3064 -1.0320
  154SAPE   C3417137   4.442   2.092   6.632  0.5709 -0.3450  0.4220
  154SAPE   H4X17138   4.438   2.017   6.713  1.8756 -2.0667 -1.0308
  154SAPE   H4Y17139   4.344   2.146   6.631  0.1850 -1.0145 -1.1448
  154SAPE   C3517140   4.556   2.188   6.668  0.4306 -1.0946 -0.3656
  154SAPE   H5X17141   4.561   2.275   6.600 -1.5325 -1.1973 -0.7049
  154SAPE   H5Y17142   4.649   2.128   6.659  0.2182 -1.8779  1.8698
  154SAPE   C3617143   4.540   2.253   6.813 -0.1607 -0.8100  0.3871
  154SAPE   H6X17144   4.559   2.171   6.885  0.9382 -0.6388  0.3145
  154SAPE   H6Y17145   4.437   2.291   6.827  0.0661  0.1722 -0.4832
  154SAPE   C3717146   4.637   2.366   6.852 -0.0853 -0.6311 -0.1528
  154SAPE   H7X17147   4.617   2.448   6.780 -1.2445 -0.6054  0.1831
  154SAPE   H7Y17148   4.742   2.331   6.839  0.0715 -0.8985  1.5563
  154SAPE   C3817149   4.590   2.431   6.987 -0.1489 -0.1791  0.5931
  154SAPE   H8X17150   4.487   2.470   6.969  1.2683  4.1168  0.7713
  154SAPE   H8Y17151   4.642   2.524   7.020 -0.8582  0.7953 -0.9466
  154SAPE   C3917152   4.602   2.340   7.106  0.2290  0.1110  0.3815
  154SAPE   H9X17153   4.690   2.273   7.097 -0.3286 -0.4734 -1.0850
  154SAPE   H9Y17154   4.520   2.264   7.115  0.9707 -0.5585  1.8417
  154SAPE  C31017155   4.610   2.416   7.238 -0.2961 -0.1252  0.3864
  154SAPE  H10X17156   4.519   2.476   7.260 -1.5415 -1.4050 -1.0230
  154SAPE  H10Y17157   4.699   2.481   7.222 -1.9338  2.3340  0.7129
  154SAPE  C31117158   4.637   2.326   7.358 -0.1965 -0.2586 -0.4477
  154SAPE  H11X17159   4.737   2.281   7.344 -0.5038 -0.6535 -1.3980
  154SAPE  H11Y17160   4.563   2.245   7.340  2.0679 -2.5801  0.1028
  154SAPE  C31217161   4.602   2.388   7.491  0.0449 -0.4115 -0.1774
  154SAPE  H12X17162   4.503   2.440   7.495  0.2455 -0.0736  0.7191
  154SAPE  H12Y17163   4.667   2.476   7.512 -2.2891  1.3243  0.2231
  154SAPE  C31317164   4.616   2.307   7.618 -0.2262 -0.0241  0.5063
  154SAPE  H13X17165   4.720   2.266   7.610  0.6252  2.2511 -1.2238
  154SAPE  H13Y17166   4.543   2.224   7.606  0.2935 -1.1042  3.7780
  154SAPE  C31417167   4.597   2.386   7.743 -0.0359  0.3178 -0.3262
  154SAPE  H14X17168   4.494   2.421   7.763  0.7460  1.8464  1.2874
  154SAPE  H14Y17169   4.658   2.479   7.743 -0.3885  0.5640 -1.4220
  154SAPE  C31517170   4.629   2.302   7.864 -0.1125  0.2961  0.3280
  154SAPE  H15X17171   4.578   2.203   7.861  2.1446 -0.9077 -0.9713
  154SAPE  H15Y17172   4.590   2.358   7.952 -0.9504 -1.7531  1.3485
  154SAPE  C31617173   4.780   2.276   7.902  0.2994  0.4237 -0.2915
  154SAPE  H16X17174   4.822   2.374   7.934 -0.1582 -0.0857  2.0331
  154SAPE  H16Y17175   4.838   2.232   7.818  1.8594  0.3004  0.8086
  154SAPE  C31717176   4.792   2.169   8.010  0.5204  0.0174  0.6472
  154SAPE  H17X17177   4.900   2.145   8.016  0.2766 -1.9021 -1.4741
  154SAPE  H17Y17178   4.751   2.068   7.986 -0.4618  0.4933  0.2374
  154SAPE  C31817179   4.738   2.204   8.145  0.9085  0.1575 -0.4240
  154SAPE  H18X17180   4.633   2.169   8.146  0.7999  0.2104 -3.2150
  154SAPE  H18Y17181   4.753   2.313   8.160 -0.0234  0.3888 -1.0776
  154SAPE  H18Z17182   4.793   2.148   8.224  1.4633  1.8653  0.4446
  155SAPE     N17183   5.984   2.803   6.590 -0.0475  0.5799 -0.2704
  155SAPE   HN117184   6.001   2.903   6.611  2.0401 -0.0097  1.3057
  155SAPE   HN217185   5.893   2.779   6.547 -1.3215  0.5153  2.2543
  155SAPE   HN317186   5.977   2.752   6.681  2.1896  2.3944  1.0270
  155SAPE   C1217187   6.100   2.762   6.496  0.0038  0.0772 -0.6040
  155SAPE  H12A17188   6.194   2.791   6.548  0.3639 -1.2338 -0.4939
  155SAPE  H12B17189   6.092   2.816   6.399  2.5124  0.5839 -0.6046
  155SAPE   C1117190   6.098   2.616   6.470  0.3397 -0.9838 -0.0618
  155SAPE  H11A17191   6.099   2.560   6.566 -1.2111  0.3072  0.7479
  155SAPE  H11B17192   6.195   2.590   6.422  1.9815  1.6718  1.5813
  155SAPE     P17193   5.917   2.455   6.393  0.4011  0.1356 -0.1275
  155SAPE   O1317194   5.798   2.455   6.306 -0.3563 -0.2985  0.0252
  155SAPE   O1417195   6.017   2.348   6.381  0.0139 -0.3275 -0.0284
  155SAPE   O1217196   5.990   2.598   6.387  0.4355 -0.2351  0.6211
  155SAPE   O1117197   5.866   2.467   6.540  0.4157  0.3496 -0.4136
  155SAPE    C117198   5.784   2.363   6.605  0.0436 -0.5339  0.4297
  155SAPE    HA17199   5.676   2.391   6.611 -0.0808 -0.3029 -1.8936
  155SAPE    HB17200   5.778   2.275   6.537 -0.3218 -0.2764  0.1250
  155SAPE    C217201   5.838   2.331   6.747  1.0427  0.2879 -0.5287
  155SAPE    HS17202   5.784   2.239   6.778 -2.9838  3.2329  2.1640
  155SAPE   O2117203   5.798   2.440   6.839 -0.2377 -0.8180  0.3081
  155SAPE   C2117204   5.694   2.410   6.911  0.2765  0.4147 -0.1976
  155SAPE   O2217205   5.604   2.329   6.887 -0.9649  0.6297 -0.1799
  155SAPE   C2217206   5.689   2.495   7.036  0.3177 -0.6017  0.2169
  155SAPE   H2R17207   5.776   2.454   7.093  1.1814 -2.2275 -2.1261
  155SAPE   H2S17208   5.709   2.598   6.998 -1.6266 -0.7296 -1.3074
  155SAPE    C317209   5.993   2.301   6.742 -0.2293  0.4688 -0.1566
  155SAPE    HX17210   6.057   2.392   6.734  0.7383 -0.2775 -1.2171
  155SAPE    HY17211   6.006   2.233   6.655 -3.1644  1.5121 -1.5376
  155SAPE   O3117212   6.028   2.229   6.865  0.3756  0.0168  0.0499
  155SAPE   C3117213   6.055   2.317   6.969 -0.0241  0.2874  0.2068
  155SAPE   O3217214   6.075   2.435   6.955  0.6307  0.9646  0.8159
  155SAPE   C3217215   6.079   2.242   7.096  0.0863  0.0669 -0.1162
  155SAPE   H2X17216   5.986   2.190   7.127 -1.2543 -0.4298 -4.2483
  155SAPE   H2Y17217   6.108   2.322   7.168  0.1707 -0.8846  0.9178
  155SAPE   C2317218   5.564   2.490   7.127  0.6424  0.1439  0.4911
  155SAPE   H3R17219   5.527   2.386   7.135 -0.1941  0.2922 -1.0680
  155SAPE   H3S17220   5.482   2.548   7.080 -0.5834 -0.2747  2.0304
  155SAPE   C2417221   5.586   2.535   7.276 -0.1328  0.7858  0.0985
  155SAPE   H4R17222   5.650   2.455   7.317 -1.6063  0.8111  2.6402
  155SAPE   H4S17223   5.487   2.532   7.325  0.5888 -3.0716  1.6173
  155SAPE   C2517224   5.649   2.672   7.296 -0.1573 -0.1014  0.3859
  155SAPE   H5R17225   5.586   2.761   7.283  0.1161  0.3041  1.7073
  155SAPE   C2617226   5.778   2.688   7.330 -0.3656  0.1363  0.1909
  155SAPE   H6R17227   5.822   2.788   7.318  0.3362 -0.2759 -0.8825
  155SAPE   C2717228   5.884   2.576   7.342  0.6785 -0.3001  0.3535
  155SAPE   H7R17229   5.984   2.611   7.309  0.6961 -0.9544 -0.3083
  155SAPE   H7S17230   5.866   2.483   7.284  3.9260  0.6101 -2.4475
  155SAPE   C2817231   5.887   2.544   7.491  0.1949 -0.2461  0.0072
  155SAPE   H8R17232   5.818   2.580   7.569  2.3478 -0.6792  2.2434
  155SAPE   C2917233   5.974   2.449   7.532 -0.3078  0.1615 -0.3639
  155SAPE   H9R17234   5.966   2.426   7.639 -1.8963 -0.0544 -0.5102
  155SAPE  C21017235   6.069   2.366   7.453 -0.3543  0.6887 -0.0931
  155SAPE  H10R17236   6.113   2.422   7.367  0.4874  0.9385  0.4844
  155SAPE  H10S17237   6.016   2.281   7.406 -0.2120  0.8706 -0.5888
  155SAPE  C21117238   6.192   2.321   7.534  0.2419  0.1445 -0.4309
  155SAPE  H11R17239   6.281   2.386   7.533 -0.2733  0.8701 -1.2327
  155SAPE  C21217240   6.201   2.219   7.625 -0.0323  0.1887 -0.0032
  155SAPE  H12R17241   6.301   2.195   7.666 -1.2195 -1.7495  1.9559
  155SAPE  C21317242   6.098   2.111   7.659  0.1397 -0.3887 -0.6636
  155SAPE  H13R17243   6.105   2.046   7.569 -0.6043  1.3117 -1.9974
  155SAPE  H13S17244   5.998   2.160   7.656 -0.1457 -0.9207 -0.0483
  155SAPE  C21417245   6.138   2.030   7.781  0.3081  0.3756 -0.3607
  155SAPE  H14R17246   6.139   1.920   7.770 -1.9922  0.1279  1.1129
  155SAPE  C21517247   6.147   2.072   7.910  0.6124  0.3443  0.5780
  155SAPE  H15R17248   6.171   2.001   7.991  0.6009 -1.1417 -0.6809
  155SAPE  C21617249   6.134   2.216   7.957  0.8247  0.5378  0.0589
  155SAPE  H16R17250   6.043   2.263   7.914  1.3652 -0.0780 -1.8310
  155SAPE  H16S17251   6.216   2.272   7.906 -0.5190  1.4396 -1.1771
  155SAPE  C21717252   6.146   2.228   8.114 -0.2439 -0.2523  0.2463
  155SAPE  H17R17253   6.240   2.194   8.163 -0.1978 -2.1943 -1.1039
  155SAPE  H17S17254   6.068   2.156   8.144 -0.3684  0.0142  0.5738
  155SAPE  C21817255   6.091   2.361   8.158 -0.0757  0.4475 -0.1451
  155SAPE  H18R17256   5.993   2.379   8.110 -0.1921  0.5883  0.1374
  155SAPE  H18S17257   6.153   2.444   8.116  0.4270  1.4527  2.3773
  155SAPE  C21917258   6.077   2.373   8.313 -0.7622  0.2901  0.5280
  155SAPE  H19R17259   6.171   2.342   8.364  0.0254  2.1981  0.3165
  155SAPE  H19S17260   5.995   2.308   8.349  0.0655  0.0945  2.1653
  155SAPE  C22017261   6.061   2.522   8.355 -0.4270  0.3469  0.3682
  155SAPE  H20R17262   5.954   2.551   8.346 -0.0583  1.3376 -0.9895
  155SAPE  H20S17263   6.116   2.588   8.285  1.2744 -0.8939  0.4619
  155SAPE  H20T17264   6.089   2.543   8.461 -0.1162 -0.3843  0.4382
  155SAPE   C3317265   6.179   2.119   7.083  0.1937  0.5213 -0.1323
  155SAPE   H3X17266   6.277   2.144   7.036  0.7449  3.1719  2.1389
  155SAPE   H3Y17267   6.125   2.040   7.027  0.3799 -1.0950  1.8854
  155SAPE   C3417268   6.214   2.060   7.219 -0.0519  0.2337  0.1179
  155SAPE   H4X17269   6.125   2.013   7.266  0.5149 -0.7539  0.2402
  155SAPE   H4Y17270   6.257   2.134   7.290  1.8468 -0.0215 -0.7191
  155SAPE   C3517271   6.315   1.946   7.215  0.0986 -0.6204  0.1817
  155SAPE   H5X17272   6.410   1.987   7.173  0.2714 -1.4012 -0.2186
  155SAPE   H5Y17273   6.283   1.865   7.146  0.5342  0.1139 -0.9147
  155SAPE   C3617274   6.344   1.897   7.361  0.2826  0.1197  0.2141
  155SAPE   H6X17275   6.341   1.987   7.425  0.8353  0.5050 -0.2895
  155SAPE   H6Y17276   6.445   1.851   7.366  0.7388  0.6350 -2.5222
  155SAPE   C3717277   6.240   1.798   7.407  0.5571  0.0601  0.4686
  155SAPE   H7X17278   6.246   1.706   7.345  0.6596 -1.2848  2.4011
  155SAPE   H7Y17279   6.136   1.835   7.393  1.0925  1.0304 -1.3462
  155SAPE   C3817280   6.258   1.750   7.555 -0.2661  0.0862 -0.2710
  155SAPE   H8X17281   6.266   1.834   7.627 -1.8595 -1.4811  1.8694
  155SAPE   H8Y17282   6.349   1.688   7.570  0.4305  1.3898  1.1520
  155SAPE   C3917283   6.138   1.668   7.593 -0.2052 -0.5756  0.4778
  155SAPE   H9X17284   6.136   1.585   7.519  1.0078  0.5917 -0.9270
  155SAPE   H9Y17285   6.045   1.724   7.570  2.1227  2.3051 -3.1837
  155SAPE  C31017286   6.149   1.623   7.735  0.5101  0.1263 -0.0104
  155SAPE  H10X17287   6.133   1.694   7.819  1.9973 -1.5175  1.7640
  155SAPE  H10Y17288   6.249   1.580   7.757  0.1500 -1.8161 -1.7946
  155SAPE  C31117289   6.041   1.513   7.758  1.2303  0.6295  0.0464
  155SAPE  H11X17290   6.072   1.478   7.859  1.6684  2.8939  0.7704
  155SAPE  H11Y17291   6.051   1.437   7.678 -0.9175 -2.3531  2.3691
  155SAPE  C31217292   5.906   1.581   7.754  0.1228  0.3743  0.3817
  155SAPE  H12X17293   5.878   1.616   7.652 -1.5370  0.3322  0.7905
  155SAPE  H12Y17294   5.899   1.665   7.827  2.9052 -0.1117  1.3300
  155SAPE  C31317295   5.801   1.480   7.797  0.5081 -0.0832 -0.5482
  155SAPE  H13X17296   5.808   1.384   7.742  1.1356  0.4890 -1.4933
  155SAPE  H13Y17297   5.705   1.531   7.773  0.8604 -0.2580 -2.4319
  155SAPE  C31417298   5.808   1.444   7.948  0.2803  0.0689  0.2058
  155SAPE  H14X17299   5.794   1.533   8.013 -1.2520 -2.9416  4.4983
  155SAPE  H14Y17300   5.908   1.403   7.974 -0.2020  0.6318  3.3602
  155SAPE  C31517301   5.700   1.341   7.991 -0.1602 -0.8041 -0.4545
  155SAPE  H15X17302   5.682   1.272   7.906 -1.7070  2.1038 -2.6247
  155SAPE  H15Y17303   5.603   1.393   8.002  0.5220  0.5586 -0.7200
  155SAPE  C31617304   5.747   1.276   8.113 -1.7740 -0.1214 -0.3126
  155SAPE  H16X17305   5.744   1.350   8.196 -1.9684  0.2581 -0.6533
  155SAPE  H16Y17306   5.849   1.233   8.106 -1.2860  1.0996 -0.9939
  155SAPE  C31717307   5.655   1.167   8.152 -0.4715  0.1801  0.3775
  155SAPE  H17X17308   5.661   1.096   8.067 -2.5544 -0.0609  0.3795
  155SAPE  H17Y17309   5.549   1.198   8.160 -0.8987 -1.5090  2.2519
  155SAPE  C31817310   5.707   1.079   8.266 -0.0772  0.0149 -0.1038
  155SAPE  H18X17311   5.634   1.003   8.300  2.1397 -1.7814  0.8185
  155SAPE  H18Y17312   5.728   1.146   8.352  0.8144  0.0263 -0.3235
  155SAPE  H18Z17313   5.794   1.017   8.237 -0.8102 -0.7612 -0.7089
  156SAPE     N17314   3.857   4.023   6.381 -0.3175 -0.5875 -0.5212
  156SAPE   HN117315   3.920   3.942   6.365 -1.4387 -1.2371 -1.7923
  156SAPE   HN217316   3.915   4.109   6.387 -0.8300 -0.3172  2.2959
  156SAPE   HN317317   3.811   4.002   6.472 -0.9860 -2.3623 -1.2173
  156SAPE   C1217318   3.744   4.024   6.282  0.3128  0.5239  0.1669
  156SAPE  H12A17319   3.777   4.049   6.179  2.5542 -2.9569 -0.1120
  156SAPE  H12B17320   3.667   4.096   6.319  0.7080  1.2938 -0.4837
  156SAPE   C1117321   3.693   3.876   6.276  0.3151 -0.4433  0.2120
  156SAPE  H11A17322   3.749   3.821   6.197  1.2101  1.2863 -0.4127
  156SAPE  H11B17323   3.587   3.871   6.245 -0.2145  2.3354  1.3430
  156SAPE     P17324   3.695   3.652   6.423  0.2393  0.4623  0.0449
  156SAPE   O1317325   3.566   3.609   6.368  0.7013 -0.2181  0.6686
  156SAPE   O1417326   3.819   3.591   6.378 -0.0702 -0.0840  0.3861
  156SAPE   O1217327   3.712   3.805   6.399  0.6473  0.1501  0.5625
  156SAPE   O1117328   3.686   3.634   6.582  0.3287  0.3469 -0.1288
  156SAPE    C117329   3.765   3.707   6.673  0.1138 -0.4575 -0.7319
  156SAPE    HA17330   3.804   3.641   6.753  1.1421  0.7512 -0.1924
  156SAPE    HB17331   3.857   3.748   6.627 -0.4348  1.6111 -0.1137
  156SAPE    C217332   3.674   3.824   6.741  0.5727  1.3104 -0.1694
  156SAPE    HS17333   3.622   3.870   6.654  0.7665 -0.6388 -1.3900
  156SAPE   O2117334   3.761   3.914   6.812 -0.1440 -0.5086 -0.2909
  156SAPE   C2117335   3.800   4.018   6.743  0.6877  0.3443 -0.5400
  156SAPE   O2217336   3.782   4.036   6.628  0.3523  0.1684  0.7655
  156SAPE   C2217337   3.856   4.116   6.844 -0.9636  0.4976 -0.1695
  156SAPE   H2R17338   3.815   4.211   6.801 -0.7928  1.1658  1.1139
  156SAPE   H2S17339   3.814   4.104   6.946  0.9593  1.1630  0.7298
  156SAPE    C317340   3.563   3.751   6.820  0.0236  0.4279 -1.0628
  156SAPE    HX17341   3.496   3.706   6.744 -0.3262  0.8164 -0.9852
  156SAPE    HY17342   3.522   3.832   6.883  1.8151 -0.5757  1.5716
  156SAPE   O3117343   3.617   3.661   6.920 -0.1231  0.3675 -0.1890
  156SAPE   C3117344   3.562   3.540   6.920  0.0503 -0.2406 -0.5649
  156SAPE   O3217345   3.463   3.506   6.859  0.4441  0.0249 -0.5300
  156SAPE   C3217346   3.636   3.450   7.030  1.2868  0.5812  1.0883
  156SAPE   H2X17347   3.743   3.445   7.001  1.1566  0.6615  0.5821
  156SAPE   H2Y17348   3.587   3.351   7.040 -1.6370  1.9742  1.3705
  156SAPE   C2317349   4.008   4.118   6.836 -0.3795 -0.6328 -0.0316
  156SAPE   H3R17350   4.043   4.178   6.749 -0.9508 -2.1192 -1.3264
  156SAPE   H3S17351   4.055   4.018   6.825  1.0791  0.1251 -1.1449
  156SAPE   C2417352   4.068   4.183   6.966 -0.7531 -0.5403  0.1404
  156SAPE   H4R17353   4.024   4.283   6.982  0.2085 -0.0339 -0.3334
  156SAPE   H4S17354   4.178   4.199   6.962 -0.7490 -0.0846  1.5544
  156SAPE   C2517355   4.039   4.095   7.081 -0.0405  0.2651  0.3787
  156SAPE   H5R17356   4.036   3.988   7.056  0.1554  0.3785 -0.1414
  156SAPE   C2617357   4.004   4.116   7.210 -0.0408  0.3486 -0.3264
  156SAPE   H6R17358   3.972   4.024   7.260 -0.8062 -0.1416 -1.6784
  156SAPE   C2717359   3.973   4.246   7.277  0.4664 -0.0005 -0.0300
  156SAPE   H7R17360   3.864   4.264   7.280  0.4534 -0.0988  0.0668
  156SAPE   H7S17361   4.008   4.336   7.221  0.6701 -0.2598 -0.3206
  156SAPE   C2817362   4.032   4.267   7.413  0.4863 -0.2105  0.2624
  156SAPE   H8R17363   4.140   4.244   7.409  0.9503  1.2835  2.4813
  156SAPE   C2917364   3.968   4.310   7.525 -0.3958  0.3174  0.6793
  156SAPE   H9R17365   4.029   4.333   7.614 -1.6892  0.0635  1.6759
  156SAPE  C21017366   3.821   4.345   7.533 -1.1008  0.2293  0.0577
  156SAPE  H10R17367   3.761   4.269   7.586  0.8429 -2.6662 -1.6135
  156SAPE  H10S17368   3.778   4.359   7.431 -1.4285  1.1637  0.3081
  156SAPE  C21117369   3.803   4.474   7.616  0.5026  0.5339  0.8195
  156SAPE  H11R17370   3.860   4.562   7.584  2.1396 -0.9369 -0.4477
  156SAPE  C21217371   3.723   4.487   7.725 -0.0382  0.2335 -0.4522
  156SAPE  H12R17372   3.698   4.590   7.754 -1.2257 -0.3480  0.7046
  156SAPE  C21317373   3.630   4.382   7.790  0.1167 -0.5771  0.1268
  156SAPE  H13R17374   3.656   4.275   7.778 -0.0315 -0.5523 -0.4446
  156SAPE  H13S17375   3.532   4.403   7.743 -0.5944 -0.6012  1.5411
  156SAPE  C21417376   3.618   4.413   7.933  0.0716 -0.4431  0.2195
  156SAPE  H14R17377   3.716   4.430   7.981 -0.2283 -0.8020  0.9835
  156SAPE  C21517378   3.506   4.441   7.999 -0.5575  0.0494 -0.2674
  156SAPE  H15R17379   3.515   4.445   8.108 -2.0280  0.3101 -0.1451
  156SAPE  C21617380   3.360   4.423   7.957 -0.4529 -0.2261 -0.0018
  156SAPE  H16R17381   3.358   4.404   7.848  2.6476  2.1555 -0.6142
  156SAPE  H16S17382   3.310   4.518   7.985 -0.3648 -0.7914  2.2608
  156SAPE  C21717383   3.293   4.306   8.024  0.3012  0.3528 -0.2034
  156SAPE  H17R17384   3.351   4.211   8.022  1.7549  1.1577  1.1436
  156SAPE  H17S17385   3.214   4.285   7.949  0.6255 -2.4723  0.1281
  156SAPE  C21817386   3.230   4.324   8.163  0.2527 -0.4418  0.1389
  156SAPE  H18R17387   3.160   4.239   8.174 -0.1036 -0.0429  1.0324
  156SAPE  H18S17388   3.173   4.420   8.156  0.2858 -0.5382 -2.6126
  156SAPE  C21917389   3.324   4.307   8.269  0.4501 -0.4706 -0.1076
  156SAPE  H19R17390   3.351   4.399   8.325  0.6264 -0.8864  0.4911
  156SAPE  H19S17391   3.422   4.272   8.230  0.5886  0.4753 -0.6410
  156SAPE  C22017392   3.271   4.213   8.383 -0.7172  0.3921  0.9146
  156SAPE  H20R17393   3.359   4.188   8.447 -1.5852 -0.8582  1.6528
  156SAPE  H20S17394   3.234   4.118   8.341  2.0924 -0.2688 -0.3277
  156SAPE  H20T17395   3.200   4.259   8.455 -1.1698 -0.2419  0.8778
  156SAPE   C3317396   3.618   3.510   7.176  0.1846  0.7547 -0.0883
  156SAPE   H3X17397   3.670   3.608   7.177  0.4427  0.8195  4.7394
  156SAPE   H3Y17398   3.679   3.447   7.244 -0.0132 -0.2455 -0.8067
  156SAPE   C3417399   3.475   3.500   7.235  0.0613  0.3199  0.0803
  156SAPE   H4X17400   3.449   3.392   7.243 -0.5386  0.4849  0.3604
  156SAPE   H4Y17401   3.405   3.535   7.156  0.0550 -0.8415 -0.4576
  156SAPE   C3517402   3.450   3.550   7.373 -0.6846  0.1565  0.0727
  156SAPE   H5X17403   3.341   3.537   7.391 -0.5237  1.4328  2.2654
  156SAPE   H5Y17404   3.472   3.659   7.369 -0.1685  0.0620  0.2996
  156SAPE   C3617405   3.523   3.476   7.483  0.6972 -0.3751 -0.3775
  156SAPE   H6X17406   3.632   3.483   7.463  0.8883  0.1196  0.7546
  156SAPE   H6Y17407   3.489   3.371   7.473  0.0794 -0.1991 -0.1767
  156SAPE   C3717408   3.505   3.523   7.626 -0.5497  0.4067 -0.3308
  156SAPE   H7X17409   3.395   3.526   7.640 -0.7424  0.7824 -1.8428
  156SAPE   H7Y17410   3.550   3.621   7.653  1.9882 -0.3920 -1.3634
  156SAPE   C3817411   3.561   3.414   7.729 -0.1818 -0.5277 -0.3195
  156SAPE   H8X17412   3.669   3.399   7.713  0.2337  0.9155  0.9139
  156SAPE   H8Y17413   3.507   3.320   7.705 -0.6821  0.2015 -2.2684
  156SAPE   C3917414   3.534   3.457   7.872  0.1273  0.3654 -0.2154
  156SAPE   H9X17415   3.426   3.478   7.892  0.1788  2.1749 -1.5486
  156SAPE   H9Y17416   3.578   3.556   7.899  1.3117 -0.4821  1.0809
  156SAPE  C31017417   3.565   3.342   7.977 -0.0245 -0.9662  0.0720
  156SAPE  H10X17418   3.673   3.326   7.996  0.7898  2.1483 -1.2974
  156SAPE  H10Y17419   3.514   3.254   7.930 -0.7280  0.4120 -1.8769
  156SAPE  C31117420   3.513   3.384   8.110 -0.3239 -0.3686  0.6727
  156SAPE  H11X17421   3.406   3.408   8.094  0.1065  0.7557 -0.7482
  156SAPE  H11Y17422   3.560   3.480   8.141  0.3333 -1.1435  2.1760
  156SAPE  C31217423   3.523   3.281   8.221  0.4084 -0.2669 -0.1694
  156SAPE  H12X17424   3.624   3.296   8.264  1.2616  0.0288 -2.1605
  156SAPE  H12Y17425   3.520   3.177   8.180 -0.8878 -0.0722 -0.6337
  156SAPE  C31317426   3.405   3.301   8.322  0.5109 -0.4305  0.9698
  156SAPE  H13X17427   3.306   3.293   8.273  0.5519  0.9274  0.6224
  156SAPE  H13Y17428   3.409   3.402   8.368  1.8861 -0.3815  0.7962
  156SAPE  C31417429   3.417   3.196   8.429  0.8640 -0.4676 -0.6670
  156SAPE  H14X17430   3.391   3.100   8.380 -0.9650 -0.2963 -0.0941
  156SAPE  H14Y17431   3.342   3.221   8.506  2.1185  0.5857  0.2641
  156SAPE  C31517432   3.559   3.176   8.502  0.6871 -0.2901  0.1536
  156SAPE  H15X17433   3.595   3.275   8.538 -1.5305  0.2124  1.1605
  156SAPE  H15Y17434   3.620   3.130   8.421 -0.2513  0.4481 -1.0048
  156SAPE  C31617435   3.565   3.066   8.610 -0.2779 -0.3446 -0.1686
  156SAPE  H16X17436   3.548   2.969   8.560  1.1202 -0.4978 -0.3862
  156SAPE  H16Y17437   3.488   3.083   8.689  0.9733  0.9178  0.8379
  156SAPE  C31717438   3.704   3.060   8.678 -0.9197 -0.1467  0.1499
  156SAPE  H17X17439   3.792   3.070   8.611 -0.2629 -1.5010  0.7641
  156SAPE  H17Y17440   3.704   2.960   8.726  0.8139  0.6150  1.8557
  156SAPE  C31817441   3.722   3.179   8.778  0.0530 -0.1876  0.0179
  156SAPE  H18X17442   3.686   3.145   8.878 -0.2554 -1.6646 -0.5622
  156SAPE  H18Y17443   3.667   3.270   8.746 -1.6040 -1.0724  0.2178
  156SAPE  H18Z17444   3.831   3.200   8.782 -0.1100  0.7993 -0.5705
  157SAPE     N17445   0.875   6.072   5.993  0.1995 -0.2158 -0.6827
  157SAPE   HN117446   0.863   5.968   5.994  1.3638 -0.5568 -4.4542
  157SAPE   HN217447   0.885   6.104   5.894 -0.1162 -0.7352 -0.8879
  157SAPE   HN317448   0.959   6.101   6.047  0.3527 -0.8852 -0.5421
  157SAPE   C1217449   0.754   6.145   6.036 -0.6182  0.3798  0.2243
  157SAPE  H12A17450   0.672   6.089   5.986 -0.9327  0.2395  0.8816
  157SAPE  H12B17451   0.753   6.254   6.015 -3.5668  0.8813  2.2625
  157SAPE   C1117452   0.730   6.124   6.189 -0.3622  0.0935 -0.7924
  157SAPE  H11A17453   0.645   6.186   6.224 -0.3508  0.6255 -1.6628
  157SAPE  H11B17454   0.821   6.166   6.237  0.4693 -0.3678 -1.8997
  157SAPE     P17455   0.756   5.927   6.360  0.1866  0.0128  0.6258
  157SAPE   O1317456   0.721   5.787   6.355  0.4640 -0.9034  0.3770
  157SAPE   O1417457   0.898   5.958   6.378 -0.1381  0.2741  0.1727
  157SAPE   O1217458   0.708   5.988   6.220 -0.2663  0.1282 -0.6682
  157SAPE   O1117459   0.656   5.996   6.459 -0.3772  0.0480 -0.1334
  157SAPE    C117460   0.665   6.122   6.527 -0.1761 -0.1628  0.5145
  157SAPE    HA17461   0.762   6.171   6.503 -0.6111  0.6610  0.3986
  157SAPE    HB17462   0.584   6.194   6.502  1.0405  0.9131 -0.5233
  157SAPE    C217463   0.667   6.103   6.681  0.0393 -0.7183  0.1835
  157SAPE    HS17464   0.705   6.195   6.732 -1.0531  0.5972 -1.2764
  157SAPE   O2117465   0.759   6.001   6.710 -0.1673  0.6742 -0.2032
  157SAPE   C2117466   0.882   6.032   6.716 -0.4657  0.0923 -0.8420
  157SAPE   O2217467   0.931   6.146   6.709  0.7008  0.4596 -0.1764
  157SAPE   C2217468   0.973   5.907   6.721  0.1758  0.0961  0.2837
  157SAPE   H2R17469   0.994   5.878   6.616  0.8677  0.7644  0.2233
  157SAPE   H2S17470   1.071   5.940   6.761  0.4243 -1.2263  0.8189
  157SAPE    C317471   0.532   6.063   6.734  0.1430 -0.0084  0.5509
  157SAPE    HX17472   0.515   5.956   6.708  4.5079 -0.9399  0.6017
  157SAPE    HY17473   0.450   6.115   6.681  1.8743  0.3131 -2.0271
  157SAPE   O3117474   0.528   6.078   6.876 -0.0677 -0.4844 -0.5888
  157SAPE   C3117475   0.523   6.200   6.929 -0.5873  0.4435  0.5609
  157SAPE   O3217476   0.513   6.304   6.869  0.5918 -0.7812 -0.4608
  157SAPE   C3217477   0.562   6.189   7.078  1.0007 -0.6920 -0.2788
  157SAPE   H2X17478   0.632   6.103   7.079  0.6907 -0.9728 -1.1369
  157SAPE   H2Y17479   0.469   6.160   7.132  0.7943  0.1871 -0.1500
  157SAPE   C2317480   0.908   5.799   6.811 -0.6014 -0.3151  0.0248
  157SAPE   H3R17481   0.808   5.758   6.788 -1.0927 -0.6698  2.5697
  157SAPE   H3S17482   0.906   5.839   6.915 -1.1170  0.0174 -0.1102
  157SAPE   C2417483   0.999   5.668   6.825  0.5694  0.7010 -0.5485
  157SAPE   H4R17484   0.986   5.615   6.728  0.0481  0.4674 -0.3554
  157SAPE   H4S17485   0.951   5.607   6.905 -0.7145  1.5905 -0.6040
  157SAPE   C2517486   1.149   5.697   6.849  0.4748  0.0033  0.2724
  157SAPE   H5R17487   1.203   5.760   6.777  3.1916 -2.1432  0.2878
  157SAPE   C2617488   1.212   5.660   6.964  0.4317 -0.1222 -0.1842
  157SAPE   H6R17489   1.319   5.686   6.970 -0.1672  2.2753  0.8227
  157SAPE   C2717490   1.152   5.587   7.085  0.4156  0.6407  0.3225
  157SAPE   H7R17491   1.051   5.624   7.111 -0.2092 -1.2035  0.6922
  157SAPE   H7S17492   1.199   5.628   7.177  1.2020 -0.8250  0.6184
  157SAPE   C2817493   1.157   5.435   7.075 -0.2075 -0.2373  0.0475
  157SAPE   H8R17494   1.141   5.400   6.972  1.0243  2.4347 -1.1618
  157SAPE   C2917495   1.190   5.347   7.172 -0.5892 -0.0479  0.0133
  157SAPE   H9R17496   1.176   5.245   7.132  1.4078 -0.3045 -0.1403
  157SAPE  C21017497   1.230   5.370   7.312 -0.0510  0.0929 -1.2030
  157SAPE  H10R17498   1.162   5.313   7.380  0.5598  1.0487  0.2705
  157SAPE  H10S17499   1.204   5.477   7.330 -0.0943  0.4685 -3.2320
  157SAPE  C21117500   1.379   5.336   7.331 -0.2054  0.7790  0.2687
  157SAPE  H11R17501   1.451   5.351   7.250  0.9345 -2.5569  0.5082
  157SAPE  C21217502   1.426   5.285   7.445 -0.9098 -0.2106 -0.2849
  157SAPE  H12R17503   1.534   5.265   7.454 -1.2844 -1.7104  1.5742
  157SAPE  C21317504   1.351   5.256   7.573 -0.0116 -0.4575 -0.4306
  157SAPE  H13R17505   1.401   5.174   7.629  1.2960  0.2102 -0.5847
  157SAPE  H13S17506   1.252   5.222   7.537  0.2656 -0.6182 -1.0609
  157SAPE  C21417507   1.339   5.383   7.652 -0.4786  0.0753 -0.6504
  157SAPE  H14R17508   1.359   5.477   7.598  2.0695  0.1572  0.3380
  157SAPE  C21517509   1.316   5.385   7.785 -0.0888 -0.5569 -0.4329
  157SAPE  H15R17510   1.319   5.487   7.827 -3.8783 -0.6895  0.5724
  157SAPE  C21617511   1.295   5.277   7.889 -0.4050  0.0679  0.6598
  157SAPE  H16R17512   1.278   5.182   7.835 -0.1457 -0.1723  1.0037
  157SAPE  H16S17513   1.205   5.299   7.950 -1.4219  1.3257 -1.1721
  157SAPE  C21717514   1.424   5.243   7.975  0.0981 -0.1001  0.9297
  157SAPE  H17R17515   1.506   5.226   7.903 -3.0328  0.1384 -3.0621
  157SAPE  H17S17516   1.407   5.150   8.033  0.1829 -0.3481  0.5627
  157SAPE  C21817517   1.468   5.350   8.077 -0.2713 -0.1591  1.0578
  157SAPE  H18R17518   1.388   5.382   8.147 -1.4728 -3.5056  1.3913
  157SAPE  H18S17519   1.488   5.440   8.015 -0.5466 -0.6406  0.2524
  157SAPE  C21917520   1.599   5.323   8.158  0.8451  0.4222 -0.0187
  157SAPE  H19R17521   1.679   5.341   8.083  1.8786  0.7307  1.1152
  157SAPE  H19S17522   1.608   5.218   8.193 -0.1141  0.2780 -0.1998
  157SAPE  C22017523   1.602   5.426   8.271  0.4275  0.0650  0.5543
  157SAPE  H20R17524   1.504   5.430   8.323 -0.1629 -1.0606 -0.4320
  157SAPE  H20S17525   1.629   5.522   8.222  1.2295  0.1706  1.1825
  157SAPE  H20T17526   1.686   5.403   8.341  1.6487 -0.4799 -1.0152
  157SAPE   C3317527   0.615   6.330   7.139 -0.2263 -0.7440  0.0897
  157SAPE   H3X17528   0.533   6.406   7.141  0.9822  0.5836  0.8298
  157SAPE   H3Y17529   0.681   6.371   7.059 -0.6164  1.2192  0.7208
  157SAPE   C3417530   0.685   6.311   7.270  0.4476  0.2178  0.8745
  157SAPE   H4X17531   0.766   6.235   7.261  0.8289  0.7504 -0.6396
  157SAPE   H4Y17532   0.618   6.254   7.337  0.5721 -0.0449  0.7755
  157SAPE   C3517533   0.733   6.445   7.335 -0.0557  0.7511  0.7747
  157SAPE   H5X17534   0.718   6.527   7.262 -0.5764  0.2352  0.2882
  157SAPE   H5Y17535   0.838   6.443   7.372 -0.2998 -0.7800  1.4694
  157SAPE   C3617536   0.657   6.482   7.464  0.6320  0.4218 -0.1110
  157SAPE   H6X17537   0.547   6.472   7.462  0.8018 -1.9250 -1.5338
  157SAPE   H6Y17538   0.670   6.586   7.501 -0.9514  1.3890 -2.0975
  157SAPE   C3717539   0.701   6.394   7.592  0.5367  0.2465  0.0582
  157SAPE   H7X17540   0.807   6.422   7.607  0.3597  0.3541  1.2292
  157SAPE   H7Y17541   0.691   6.286   7.567 -3.0463  0.8228 -1.7585
  157SAPE   C3817542   0.627   6.427   7.720  0.1590 -0.5140  0.2881
  157SAPE   H8X17543   0.520   6.407   7.698 -0.3537 -1.8742  3.4530
  157SAPE   H8Y17544   0.651   6.535   7.727  0.9522 -0.7893  2.6559
  157SAPE   C3917545   0.673   6.363   7.847  0.3795  0.0775  0.0274
  157SAPE   H9X17546   0.641   6.258   7.835  0.0585  0.1846 -0.0697
  157SAPE   H9Y17547   0.613   6.415   7.925  1.5703 -0.0223  1.0387
  157SAPE  C31017548   0.817   6.360   7.878 -0.7396  0.1272  0.6975
  157SAPE  H10X17549   0.854   6.465   7.874  1.8661 -0.6690  1.7568
  157SAPE  H10Y17550   0.868   6.289   7.810 -3.6307 -0.4456 -1.0644
  157SAPE  C31117551   0.844   6.318   8.023 -0.1397 -0.4169  0.4097
  157SAPE  H11X17552   0.954   6.320   8.043  0.0592 -1.0617 -0.5271
  157SAPE  H11Y17553   0.831   6.209   8.040  4.8714 -1.5594 -1.1976
  157SAPE  C31217554   0.789   6.418   8.129 -0.0780 -0.1277 -0.3912
  157SAPE  H12X17555   0.683   6.383   8.125  0.5616 -2.1947 -0.5886
  157SAPE  H12Y17556   0.798   6.517   8.079  0.2187  0.1122  0.1385
  157SAPE  C31317557   0.853   6.419   8.266  0.8282 -0.4979  1.0838
  157SAPE  H13X17558   0.818   6.513   8.315  0.7677 -1.2661  2.5641
  157SAPE  H13Y17559   0.963   6.431   8.256  0.5496  0.8067 -1.0711
  157SAPE  C31417560   0.821   6.300   8.350  0.2994 -0.3684  0.0437
  157SAPE  H14X17561   0.887   6.217   8.316  1.7170  0.7566 -0.0444
  157SAPE  H14Y17562   0.719   6.256   8.350 -0.2879  0.9612 -0.5669
  157SAPE  C31517563   0.862   6.337   8.497 -0.2461  0.6760 -0.1650
  157SAPE  H15X17564   0.828   6.435   8.538  1.8102  1.9699 -1.3614
  157SAPE  H15Y17565   0.970   6.355   8.481  0.0058  0.7675  1.4826
  157SAPE  C31617566   0.845   6.220   8.595 -0.8242 -0.2431  0.0536
  157SAPE  H16X17567   0.905   6.131   8.568 -0.7689  0.3647 -1.9479
  157SAPE  H16Y17568   0.742   6.178   8.591 -1.0467  0.3968 -1.7645
  157SAPE  C31717569   0.878   6.254   8.739 -0.1881 -0.8406 -0.6625
  157SAPE  H17X17570   0.821   6.344   8.770  0.3967 -0.4204 -0.7836
  157SAPE  H17Y17571   0.983   6.292   8.737 -0.6230  0.5502  0.9161
  157SAPE  C31817572   0.861   6.135   8.841  0.4703  1.0943  0.2658
  157SAPE  H18X17573   0.872   6.166   8.947 -3.1953  0.1581  1.0670
  157SAPE  H18Y17574   0.928   6.053   8.809 -0.0748  0.6225  0.3173
  157SAPE  H18Z17575   0.757   6.109   8.810  1.3493 -1.1659 -0.9984
  158SAPE     N17576   3.916   3.351   6.297  0.2669  0.4804 -0.5297
  158SAPE   HN117577   3.877   3.438   6.340  1.2775  0.0799  1.2640
  158SAPE   HN217578   3.949   3.377   6.201 -1.9990 -1.1438 -1.8504
  158SAPE   HN317579   3.836   3.285   6.292 -0.8566  1.7226  0.3891
  158SAPE   C1217580   4.026   3.315   6.390  0.9586  0.4392  0.2643
  158SAPE  H12A17581   3.975   3.282   6.483  0.6246 -1.0493 -0.4148
  158SAPE  H12B17582   4.097   3.400   6.404  2.3793 -0.7689  0.6864
  158SAPE   C1117583   4.100   3.192   6.331 -0.2250  0.3270 -0.3423
  158SAPE  H11A17584   4.158   3.140   6.410  0.2404  1.5502  0.1562
  158SAPE  H11B17585   4.172   3.230   6.254  0.0550  0.4057 -0.0431
  158SAPE     P17586   3.958   2.969   6.343 -0.2718  0.1924  0.0643
  158SAPE   O1317587   3.837   2.916   6.279  0.5219  0.5807 -0.3004
  158SAPE   O1417588   4.064   2.875   6.343 -0.5657  0.3723  0.4030
  158SAPE   O1217589   4.006   3.101   6.269  0.0023 -0.4460  0.2097
  158SAPE   O1117590   3.928   2.999   6.501 -0.9066 -0.3697  0.0569
  158SAPE    C117591   3.792   3.039   6.537 -0.3773  0.4063 -0.2813
  158SAPE    HA17592   3.792   3.146   6.508  0.5759  0.8303  1.1916
  158SAPE    HB17593   3.707   2.991   6.483 -0.9179  2.6281 -1.5528
  158SAPE    C217594   3.762   3.027   6.693  0.0517  0.5353 -0.0802
  158SAPE    HS17595   3.676   3.096   6.700 -0.7263 -0.5354  1.5736
  158SAPE   O2117596   3.869   3.078   6.777 -0.0924  0.2051  0.5352
  158SAPE   C2117597   3.821   3.129   6.895  0.2231  0.2622 -0.3053
  158SAPE   O2217598   3.701   3.132   6.920  0.0320 -1.0408  0.2418
  158SAPE   C2217599   3.938   3.155   6.993  0.1468  0.4660 -0.3036
  158SAPE   H2R17600   4.009   3.074   6.964 -1.2106 -0.7674 -0.3386
  158SAPE   H2S17601   3.971   3.258   6.970 -1.1804  0.6848 -1.3426
  158SAPE    C317602   3.732   2.872   6.723 -0.0050  0.0299 -1.1571
  158SAPE    HX17603   3.823   2.829   6.677  1.4911  0.2962  1.3701
  158SAPE    HY17604   3.645   2.828   6.668 -1.4937  1.6737 -0.2209
  158SAPE   O3117605   3.730   2.845   6.865 -0.0365  0.0068 -0.0220
  158SAPE   C3117606   3.603   2.825   6.914  0.2956 -0.0689 -0.1614
  158SAPE   O3217607   3.500   2.849   6.853  0.2372 -0.3207  0.1644
  158SAPE   C3217608   3.609   2.793   7.061  0.2998 -0.0811 -0.7751
  158SAPE   H2X17609   3.689   2.859   7.102 -0.3849  0.6827 -0.6263
  158SAPE   H2Y17610   3.614   2.683   7.077 -0.8152 -0.2584 -1.5611
  158SAPE   C2317611   3.905   3.150   7.144  0.4056 -0.3500  0.2665
  158SAPE   H3R17612   3.795   3.134   7.143  0.2439  0.7281 -1.2227
  158SAPE   H3S17613   3.914   3.251   7.189 -0.9351 -0.6562  1.2869
  158SAPE   C2417614   3.989   3.050   7.221  0.3567  0.4144 -0.4486
  158SAPE   H4R17615   3.974   3.088   7.324  0.3087  1.0281 -0.6773
  158SAPE   H4S17616   4.095   3.063   7.191  0.4631 -0.0164 -0.2696
  158SAPE   C2517617   3.935   2.910   7.206 -0.8216 -1.1278  0.8067
  158SAPE   H5R17618   3.945   2.859   7.109 -2.9902  1.0313 -0.6544
  158SAPE   C2617619   3.895   2.830   7.300  0.4534 -0.2832 -0.2831
  158SAPE   H6R17620   3.858   2.730   7.273  1.3938 -0.3058 -1.6051
  158SAPE   C2717621   3.886   2.850   7.450 -0.0134 -0.3845 -0.0064
  158SAPE   H7R17622   3.783   2.874   7.484 -0.3370  0.0895 -1.2546
  158SAPE   H7S17623   3.947   2.938   7.478  0.4354 -1.2455  1.8814
  158SAPE   C2817624   3.951   2.738   7.531  0.2226 -0.7428  0.9672
  158SAPE   H8R17625   4.038   2.691   7.484 -1.5176 -3.0129 -0.1737
  158SAPE   C2917626   3.900   2.692   7.644  0.1669  0.4341  0.0703
  158SAPE   H9R17627   3.946   2.607   7.696 -1.4071 -0.6804 -0.2919
  158SAPE  C21017628   3.773   2.739   7.714  0.4938 -0.1582  0.1928
  158SAPE  H10R17629   3.726   2.644   7.748  1.1097 -0.8921 -0.9744
  158SAPE  H10S17630   3.705   2.778   7.635 -0.4825  0.3549  1.2612
  158SAPE  C21117631   3.780   2.847   7.813 -0.1816 -0.3567 -0.8218
  158SAPE  H11R17632   3.857   2.921   7.789 -1.2154  1.4720  1.2430
  158SAPE  C21217633   3.706   2.879   7.921  0.3671  0.5968  0.4202
  158SAPE  H12R17634   3.728   2.970   7.979 -0.4155  2.4148 -1.9668
  158SAPE  C21317635   3.594   2.800   7.982  0.1538  0.6475 -0.2421
  158SAPE  H13R17636   3.643   2.709   8.022  0.0815  0.4061 -0.6887
  158SAPE  H13S17637   3.537   2.754   7.898  1.4317 -1.4020 -0.0605
  158SAPE  C21417638   3.518   2.888   8.080 -0.8752  0.0642 -0.1658
  158SAPE  H14R17639   3.450   2.964   8.041 -0.0425  0.8337 -0.1440
  158SAPE  C21517640   3.530   2.878   8.213  0.1388  0.0012 -0.1082
  158SAPE  H15R17641   3.471   2.950   8.272 -2.1129  0.0819 -2.3050
  158SAPE  C21617642   3.614   2.788   8.292 -0.5317 -0.6864 -0.0873
  158SAPE  H16R17643   3.654   2.849   8.375 -1.3063  1.7340 -1.3942
  158SAPE  H16S17644   3.707   2.759   8.239 -0.8857 -0.5965 -0.7750
  158SAPE  C21717645   3.544   2.662   8.344 -0.1449  0.5455  0.6043
  158SAPE  H17R17646   3.630   2.604   8.384 -2.3987 -0.8452  3.8030
  158SAPE  H17S17647   3.498   2.614   8.255 -2.2920  0.4113  1.7328
  158SAPE  C21817648   3.445   2.680   8.461  0.1001 -0.0457  0.4315
  158SAPE  H18R17649   3.355   2.733   8.423  0.8842  1.5676  0.7441
  158SAPE  H18S17650   3.489   2.754   8.531  1.3796 -0.7454  0.3888
  158SAPE  C21917651   3.409   2.543   8.543  0.0470  0.1441  0.7937
  158SAPE  H19R17652   3.371   2.581   8.640 -1.3323  1.7873 -0.3289
  158SAPE  H19S17653   3.500   2.481   8.556  0.5922  0.9315  0.8610
  158SAPE  C22017654   3.298   2.467   8.469 -0.1655 -0.5717  0.2221
  158SAPE  H20R17655   3.341   2.446   8.369  3.0668  0.2672  1.3219
  158SAPE  H20S17656   3.212   2.537   8.462  0.6628  0.3935 -0.4307
  158SAPE  H20T17657   3.269   2.375   8.525 -2.0805 -1.1102 -1.5453
  158SAPE   C3317658   3.479   2.827   7.145 -1.2479 -0.6857 -0.3618
  158SAPE   H3X17659   3.438   2.730   7.182  1.3744 -2.1833 -1.0871
  158SAPE   H3Y17660   3.406   2.876   7.077 -1.0721 -0.6221 -0.5058
  158SAPE   C3417661   3.515   2.906   7.274  0.0816  0.1553 -0.0502
  158SAPE   H4X17662   3.551   3.007   7.244 -1.5268  0.6134 -0.5198
  158SAPE   H4Y17663   3.602   2.851   7.316  0.9678  2.3456  1.1596
  158SAPE   C3517664   3.396   2.912   7.374 -0.6719 -0.6710 -0.2608
  158SAPE   H5X17665   3.353   2.810   7.383  1.0454 -1.3530  0.8879
  158SAPE   H5Y17666   3.320   2.979   7.329 -0.3274  0.4465  0.7626
  158SAPE   C3617667   3.437   2.961   7.514 -0.2918  0.3651  0.1666
  158SAPE   H6X17668   3.470   3.066   7.502  3.3942 -0.7157 -0.4188
  158SAPE   H6Y17669   3.528   2.908   7.551 -1.6786 -1.4947  1.0833
  158SAPE   C3717670   3.316   2.957   7.615 -0.3290  0.6629 -0.3342
  158SAPE   H7X17671   3.231   3.014   7.570 -0.3059  1.1286  0.1991
  158SAPE   H7Y17672   3.288   2.851   7.633 -1.3673  0.9113 -0.4037
  158SAPE   C3817673   3.342   3.025   7.752 -0.8646  0.8763  0.1241
  158SAPE   H8X17674   3.359   3.135   7.746  2.4280  0.4813  0.1722
  158SAPE   H8Y17675   3.419   2.968   7.809 -1.9058 -1.2658 -0.5131
  158SAPE   C3917676   3.220   3.019   7.844  0.3022 -0.5535 -0.8476
  158SAPE   H9X17677   3.198   2.914   7.873 -0.1833 -0.1375  0.3545
  158SAPE   H9Y17678   3.137   3.053   7.778  1.0030 -0.0341 -1.4779
  158SAPE  C31017679   3.208   3.105   7.975  0.1377  0.1176  0.3155
  158SAPE  H10X17680   3.182   3.209   7.945 -0.1528  0.3000  1.1887
  158SAPE  H10Y17681   3.309   3.116   8.020  1.0731 -0.2901 -1.5532
  158SAPE  C31117682   3.105   3.041   8.074 -0.1632 -0.1236  0.1788
  158SAPE  H11X17683   3.143   2.939   8.096  0.7452  0.2130  0.2228
  158SAPE  H11Y17684   3.009   3.038   8.017  0.9115 -0.7864 -1.6956
  158SAPE  C31217685   3.077   3.113   8.203 -0.0869 -0.1675 -0.4949
  158SAPE  H12X17686   3.030   3.211   8.178  1.0084  1.0606  1.9312
  158SAPE  H12Y17687   3.168   3.130   8.265  0.3032 -3.0001 -0.1783
  158SAPE  C31317688   2.989   3.035   8.296  0.4627 -0.2386 -0.4389
  158SAPE  H13X17689   3.038   3.019   8.395 -1.4238 -0.6346  0.4746
  158SAPE  H13Y17690   2.980   2.935   8.248  0.1644  1.2273 -3.7110
  158SAPE  C31417691   2.854   3.097   8.320 -0.6386 -0.0904  0.0732
  158SAPE  H14X17692   2.807   3.101   8.219 -0.7322  1.0112  0.1475
  158SAPE  H14Y17693   2.868   3.202   8.352  1.0378  0.1082 -1.1519
  158SAPE  C31517694   2.757   3.016   8.410 -0.2688  0.2576 -0.1003
  158SAPE  H15X17695   2.793   3.003   8.514  2.7372  0.9763 -0.9722
  158SAPE  H15Y17696   2.761   2.914   8.366  2.5810  1.0304 -1.8853
  158SAPE  C31617697   2.623   3.081   8.417  1.2109 -0.8568  0.2747
  158SAPE  H16X17698   2.544   3.020   8.466  0.4332  1.7520  2.4682
  158SAPE  H16Y17699   2.581   3.089   8.314  0.4087 -0.9698  0.5827
  158SAPE  C31717700   2.610   3.222   8.484 -0.3212  0.3852  0.5215
  158SAPE  H17X17701   2.518   3.274   8.451 -1.5757 -1.1405  1.5170
  158SAPE  H17Y17702   2.698   3.287   8.464  1.9507 -2.1826  1.5678
  158SAPE  C31817703   2.590   3.208   8.634 -0.1820  0.9238 -0.6929
  158SAPE  H18X17704   2.579   3.308   8.680 -0.5500  1.0389 -1.0186
  158SAPE  H18Y17705   2.677   3.157   8.679  0.0167  0.6592 -1.3545
  158SAPE  H18Z17706   2.498   3.150   8.655 -0.5005  0.8426 -2.1603
  159SAPE     N17707   1.521   5.906   6.355  0.2673  0.5284 -0.6926
  159SAPE   HN117708   1.512   5.965   6.270 -0.2085  0.3377 -0.7780
  159SAPE   HN217709   1.439   5.842   6.355  0.6094  0.0810 -0.8878
  159SAPE   HN317710   1.516   5.974   6.433  0.4751  1.4046 -1.4278
  159SAPE   C1217711   1.651   5.824   6.353 -0.0532  0.1065 -0.5566
  159SAPE  H12A17712   1.636   5.733   6.416 -0.3961  0.1492 -0.5700
  159SAPE  H12B17713   1.731   5.879   6.405 -1.4557  0.0192  1.8209
  159SAPE   C1117714   1.683   5.778   6.213  0.9872  0.0364 -0.2154
  159SAPE  H11A17715   1.594   5.721   6.180  0.9800 -0.6729  0.9804
  159SAPE  H11B17716   1.767   5.706   6.218 -0.9853 -2.5192 -1.6174
  159SAPE     P17717   1.835   5.973   6.113 -0.0951  0.0001 -0.2511
  159SAPE   O1317718   1.914   5.918   6.002 -0.0162  0.4232  0.0005
  159SAPE   O1417719   1.802   6.119   6.108 -0.3806 -0.1751  0.2208
  159SAPE   O1217720   1.702   5.880   6.123  0.2530 -0.2997 -0.3442
  159SAPE   O1117721   1.905   5.942   6.253 -0.0657 -0.3857  0.0507
  159SAPE    C117722   2.019   5.857   6.251 -0.6167  0.5850  0.0456
  159SAPE    HA17723   2.034   5.789   6.165  6.2658 -0.0930  1.1817
  159SAPE    HB17724   2.108   5.924   6.248  1.4020 -2.0137 -2.1156
  159SAPE    C217725   2.034   5.775   6.381  0.3938 -0.2399 -0.5310
  159SAPE    HS17726   1.955   5.698   6.387 -0.4110  0.4474 -1.8512
  159SAPE   O2117727   2.044   5.873   6.492 -0.7403 -0.3148  0.7426
  159SAPE   C2117728   1.950   5.840   6.583 -0.1957  0.5115  0.9472
  159SAPE   O2217729   1.864   5.755   6.570  0.6293  0.6066  0.0955
  159SAPE   C2217730   1.958   5.931   6.701  0.5049 -0.5387  0.2686
  159SAPE   H2R17731   2.037   6.007   6.682 -0.7487  0.1393 -2.8969
  159SAPE   H2S17732   1.855   5.973   6.704  1.3813  1.8428 -0.1598
  159SAPE    C317733   2.172   5.698   6.372  0.1733  0.0334  1.1397
  159SAPE    HX17734   2.238   5.787   6.372 -0.7904  0.7797  0.4590
  159SAPE    HY17735   2.175   5.650   6.271 -1.0642  1.8825  0.1486
  159SAPE   O3117736   2.202   5.619   6.484 -0.2282 -0.0814  0.2294
  159SAPE   C3117737   2.155   5.496   6.479  0.4077  0.6153  0.4421
  159SAPE   O3217738   2.079   5.454   6.388  0.0434 -0.2243 -0.0639
  159SAPE   C3217739   2.206   5.415   6.605  0.6398  0.2281  0.5796
  159SAPE   H2X17740   2.227   5.479   6.693 -0.5906 -1.8202  2.4738
  159SAPE   H2Y17741   2.305   5.379   6.569  0.0680 -0.4288 -0.3892
  159SAPE   C2317742   1.994   5.856   6.833  0.1013  0.7060 -0.6676
  159SAPE   H3R17743   1.909   5.786   6.845  0.5989  0.2904  0.6023
  159SAPE   H3S17744   1.981   5.926   6.918  0.0412  2.6310 -2.1843
  159SAPE   C2417745   2.128   5.789   6.827  0.1998  0.8013 -0.1785
  159SAPE   H4R17746   2.201   5.872   6.827  0.1758  0.8218  0.3649
  159SAPE   H4S17747   2.147   5.722   6.740 -0.3203  1.1896 -0.5997
  159SAPE   C2517748   2.140   5.693   6.947 -0.3667 -0.3593  0.3424
  159SAPE   H5R17749   2.160   5.589   6.917 -0.6682 -0.0146 -1.1021
  159SAPE   C2617750   2.131   5.725   7.077 -0.0142  0.2572  0.6080
  159SAPE   H6R17751   2.151   5.653   7.157  1.1411  1.5446  1.5283
  159SAPE   C2717752   2.096   5.855   7.148  0.3419  0.6596 -0.0216
  159SAPE   H7R17753   1.988   5.851   7.173  0.6016  3.4555  2.0350
  159SAPE   H7S17754   2.114   5.953   7.098 -0.4140  0.5817 -0.4619
  159SAPE   C2817755   2.191   5.884   7.259  0.0585  0.5310  0.2299
  159SAPE   H8R17756   2.282   5.935   7.227 -0.6236  0.6093 -1.7140
  159SAPE   C2917757   2.170   5.834   7.382 -0.2448  0.2740  0.0419
  159SAPE   H9R17758   2.245   5.869   7.455 -0.3629  1.1392 -0.2340
  159SAPE  C21017759   2.059   5.755   7.445  0.1458 -0.1878 -0.0068
  159SAPE  H10R17760   2.025   5.680   7.371  0.2177  0.1696 -0.4028
  159SAPE  H10S17761   1.979   5.821   7.486  2.1267  1.1922  1.8833
  159SAPE  C21117762   2.128   5.687   7.564  0.8374  0.4978 -0.5576
  159SAPE  H11R17763   2.219   5.628   7.543  0.4498 -0.7230  1.0173
  159SAPE  C21217764   2.102   5.704   7.698 -0.1193  0.2081 -0.4246
  159SAPE  H12R17765   2.171   5.651   7.766  2.6435  1.7003 -1.9142
  159SAPE  C21317766   1.992   5.789   7.760  0.1039  0.1411 -0.1799
  159SAPE  H13R17767   1.896   5.732   7.765 -0.4574  0.9706 -1.0507
  159SAPE  H13S17768   1.962   5.864   7.684 -1.1355 -1.1565 -1.0266
  159SAPE  C21417769   2.028   5.856   7.890 -0.3639 -0.1729 -0.2416
  159SAPE  H14R17770   2.086   5.948   7.878 -1.5198  0.8324  1.4415
  159SAPE  C21517771   2.008   5.812   8.016 -0.0127 -0.1522  0.0706
  159SAPE  H15R17772   2.038   5.875   8.101 -0.8089 -0.1355  0.3495
  159SAPE  C21617773   1.933   5.687   8.040  0.0123  0.4728 -0.2510
  159SAPE  H16R17774   1.951   5.616   7.956  1.5547 -0.6018  0.9285
  159SAPE  H16S17775   1.826   5.710   8.057  0.5363  1.1941  2.4826
  159SAPE  C21717776   1.988   5.621   8.169  0.2323  0.6704  0.1307
  159SAPE  H17R17777   1.923   5.534   8.194 -1.3013  1.3794 -1.1432
  159SAPE  H17S17778   1.973   5.697   8.249  0.9124 -1.2177  2.1400
  159SAPE  C21817779   2.134   5.580   8.153 -0.1244  0.7691  0.1413
  159SAPE  H18R17780   2.193   5.672   8.136 -1.6308  1.4311 -1.8431
  159SAPE  H18S17781   2.145   5.499   8.077  2.5305  2.2354 -1.1571
  159SAPE  C21917782   2.177   5.525   8.295 -0.0345 -0.6950  0.2385
  159SAPE  H19R17783   2.118   5.432   8.311  0.8380 -1.4268 -0.6604
  159SAPE  H19S17784   2.146   5.600   8.371  1.3551 -0.4824  0.6205
  159SAPE  C22017785   2.324   5.484   8.299  0.1443  0.6997 -0.1624
  159SAPE  H20R17786   2.399   5.559   8.268 -0.0813  0.5922 -0.9931
  159SAPE  H20S17787   2.331   5.408   8.218  1.0899  0.7805 -0.1617
  159SAPE  H20T17788   2.351   5.433   8.394  0.3100  0.6284 -0.2480
  159SAPE   C3317789   2.117   5.295   6.639  0.8242  0.3086 -0.2980
  159SAPE   H3X17790   2.097   5.216   6.564 -1.1390 -0.0533  0.5417
  159SAPE   H3Y17791   2.021   5.347   6.664  0.5793 -0.0122 -0.5659
  159SAPE   C3417792   2.158   5.220   6.772 -0.2799 -0.4780  0.3110
  159SAPE   H4X17793   2.114   5.287   6.849  0.2374 -1.6487  1.6713
  159SAPE   H4Y17794   2.269   5.224   6.781 -0.4300 -0.0586  2.6921
  159SAPE   C3517795   2.115   5.073   6.775  0.1282 -1.5099 -0.9826
  159SAPE   H5X17796   2.140   5.017   6.682  1.4500  0.2097 -1.7146
  159SAPE   H5Y17797   2.006   5.078   6.795  0.4272 -1.8228  0.8652
  159SAPE   C3617798   2.174   4.997   6.897 -0.0453 -0.1696 -0.7192
  159SAPE   H6X17799   2.281   4.986   6.869  0.2125 -0.0201  0.1686
  159SAPE   H6Y17800   2.135   4.894   6.910 -0.6347 -0.2690 -2.9258
  159SAPE   C3717801   2.175   5.085   7.029 -0.6540 -0.2569  0.2323
  159SAPE   H7X17802   2.071   5.100   7.065 -0.8653 -0.3607 -0.3361
  159SAPE   H7Y17803   2.219   5.184   7.004 -1.2976  0.2023  0.8780
  159SAPE   C3817804   2.262   5.014   7.139  0.0994 -0.5315 -0.3252
  159SAPE   H8X17805   2.367   5.006   7.101 -0.5171  0.0025 -2.2782
  159SAPE   H8Y17806   2.223   4.911   7.140 -0.9496 -0.2368  3.3280
  159SAPE   C3917807   2.263   5.073   7.281  0.3563  0.3551  0.1149
  159SAPE   H9X17808   2.159   5.085   7.319  1.2722  2.3701  2.2101
  159SAPE   H9Y17809   2.295   5.179   7.282 -1.8944  1.2646  4.6830
  159SAPE  C31017810   2.361   4.995   7.364  0.2175 -0.3085 -0.0484
  159SAPE  H10X17811   2.461   5.003   7.317  0.7132 -0.6360  0.9209
  159SAPE  H10Y17812   2.333   4.888   7.376 -1.0672 -0.0410 -0.4834
  159SAPE  C31117813   2.380   5.055   7.506  0.5217  0.5817 -0.1100
  159SAPE  H11X17814   2.409   5.162   7.494  3.7895 -0.1315  0.2577
  159SAPE  H11Y17815   2.467   5.003   7.553  0.0398 -1.4203 -1.3410
  159SAPE  C31217816   2.249   5.045   7.588  0.6634  0.7480  0.0046
  159SAPE  H12X17817   2.197   4.948   7.571 -1.5155  2.2120 -2.4055
  159SAPE  H12Y17818   2.168   5.113   7.554 -0.4614 -0.0031  1.0866
  159SAPE  C31317819   2.268   5.069   7.743  0.0015  0.0278 -0.1631
  159SAPE  H13X17820   2.321   5.166   7.757 -2.3039  1.3891 -0.2543
  159SAPE  H13Y17821   2.344   5.001   7.786  1.2869  1.7437  0.3722
  159SAPE  C31417822   2.139   5.054   7.821 -0.3458 -0.1385  0.4096
  159SAPE  H14X17823   2.100   4.950   7.810  1.1265 -0.7929  1.0716
  159SAPE  H14Y17824   2.061   5.121   7.779 -0.6704 -0.3092  0.7350
  159SAPE  C31517825   2.163   5.086   7.972  0.0366 -0.3217 -0.3747
  159SAPE  H15X17826   2.225   5.178   7.978 -1.0447  0.4926 -1.3012
  159SAPE  H15Y17827   2.216   5.003   8.023 -0.5628 -0.1317  0.5686
  159SAPE  C31617828   2.035   5.128   8.041 -0.1088 -0.0774  0.2155
  159SAPE  H16X17829   1.977   5.037   8.065 -0.5752 -0.2370 -1.3664
  159SAPE  H16Y17830   1.966   5.183   7.974 -0.8341 -2.4882 -1.1355
  159SAPE  C31717831   2.053   5.189   8.179 -0.0165  0.3522 -0.0257
  159SAPE  H17X17832   1.953   5.228   8.209 -0.5277 -0.3565 -0.7437
  159SAPE  H17Y17833   2.108   5.284   8.164  1.0089 -0.5150 -2.0815
  159SAPE  C31817834   2.109   5.100   8.297  0.0191  0.7670  0.4474
  159SAPE  H18X17835   2.030   5.029   8.328 -0.9340  0.9527 -1.4177
  159SAPE  H18Y17836   2.136   5.169   8.380 -3.0709  0.3110  1.9826
  159SAPE  H18Z17837   2.196   5.047   8.254  0.4927  0.5770  1.6147
  160SAPE     N17838   1.593   5.038   6.373 -0.1868  0.0699  0.2586
  160SAPE   HN117839   1.492   5.014   6.383  0.0697 -1.1688  0.1245
  160SAPE   HN217840   1.600   5.067   6.273  0.8857 -1.5587 -0.1861
  160SAPE   HN317841   1.629   4.941   6.387  0.6362  0.6008  2.1086
  160SAPE   C1217842   1.622   5.133   6.480  0.0513 -0.4445  0.4410
  160SAPE  H12A17843   1.579   5.091   6.574  1.1150 -1.8255  0.3369
  160SAPE  H12B17844   1.572   5.228   6.452 -0.9084 -0.6692  1.3107
  160SAPE   C1117845   1.774   5.150   6.500  0.0864 -0.3734 -0.3554
  160SAPE  H11A17846   1.781   5.205   6.596 -0.3255  0.0635 -0.5641
  160SAPE  H11B17847   1.820   5.233   6.441 -1.2667  1.0339  0.4913
  160SAPE     P17848   1.937   4.958   6.422  0.4146 -0.0220  0.1457
  160SAPE   O1317849   1.852   4.885   6.321 -0.1700  0.2864  0.4922
  160SAPE   O1417850   2.036   5.052   6.363 -0.4019 -0.1660 -0.2390
  160SAPE   O1217851   1.845   5.026   6.528 -0.0207 -0.2465 -0.4293
  160SAPE   O1117852   2.013   4.849   6.514 -0.3092 -0.3853  0.3955
  160SAPE    C117853   1.938   4.728   6.548 -0.3916  0.0203 -0.1705
  160SAPE    HA17854   1.829   4.748   6.540 -0.4610  0.1236  0.8736
  160SAPE    HB17855   1.970   4.645   6.482  0.2210 -1.5261  1.9857
  160SAPE    C217856   1.963   4.695   6.700 -0.1626  0.5625 -0.1365
  160SAPE    HS17857   1.915   4.596   6.712  1.5084 -0.3271 -0.5409
  160SAPE   O2117858   1.910   4.796   6.792  0.0476  1.0878  0.1423
  160SAPE   C2117859   1.782   4.812   6.784  0.8124  0.0073 -0.3568
  160SAPE   O2217860   1.702   4.732   6.731 -0.4106  0.0626  0.1615
  160SAPE   C2217861   1.740   4.934   6.868  0.5021  0.5496 -0.3419
  160SAPE   H2R17862   1.826   5.004   6.867  0.1345  1.2600  3.1445
  160SAPE   H2S17863   1.662   4.987   6.809  1.0829  1.5712 -0.2050
  160SAPE    C317864   2.112   4.675   6.735 -0.0601  0.0307 -0.0102
  160SAPE    HX17865   2.149   4.779   6.722  2.6335 -0.7325  0.9382
  160SAPE    HY17866   2.166   4.617   6.658  2.1995  1.0892  0.7011
  160SAPE   O3117867   2.140   4.630   6.869 -0.4185 -0.5007 -0.4558
  160SAPE   C3117868   2.142   4.496   6.876 -0.1520 -0.2039 -0.1378
  160SAPE   O3217869   2.122   4.425   6.783  0.4288 -0.4114  0.0927
  160SAPE   C3217870   2.183   4.453   7.013  0.1487 -0.2339  0.1047
  160SAPE   H2X17871   2.279   4.503   7.038  1.3803 -1.5995 -1.6397
  160SAPE   H2Y17872   2.187   4.342   7.015  1.0694 -0.2314 -0.7892
  160SAPE   C2317873   1.681   4.906   7.004  0.1697  0.2558 -0.6344
  160SAPE   H3R17874   1.585   4.854   6.985 -0.0413 -0.0838  1.1763
  160SAPE   H3S17875   1.660   4.999   7.062  1.0532  0.5271 -0.7359
  160SAPE   C2417876   1.760   4.798   7.091 -0.0674 -1.0584  0.0544
  160SAPE   H4R17877   1.774   4.707   7.029  0.1899 -0.6972 -0.4231
  160SAPE   H4S17878   1.693   4.765   7.173 -0.9338 -1.2546 -0.7084
  160SAPE   C2517879   1.894   4.841   7.159 -0.2446  0.2591  0.1614
  160SAPE   H5R17880   1.969   4.847   7.078 -0.4634 -1.0858 -0.1549
  160SAPE   C2617881   1.922   4.859   7.291 -0.1538 -0.0469  0.0193
  160SAPE   H6R17882   2.020   4.900   7.319  0.3030 -1.7832  1.0801
  160SAPE   C2717883   1.841   4.847   7.411  0.3109  0.4266  0.4390
  160SAPE   H7R17884   1.899   4.858   7.505  0.2305 -0.5348  0.6178
  160SAPE   H7S17885   1.794   4.747   7.415 -1.8420  1.3283 -0.9377
  160SAPE   C2817886   1.724   4.944   7.405  0.2446  0.2756  0.9780
  160SAPE   H8R17887   1.698   4.994   7.310 -0.9961 -0.7468  0.7399
  160SAPE   C2917888   1.650   4.985   7.511 -0.2873 -0.1288  0.6602
  160SAPE   H9R17889   1.568   5.057   7.494  2.1456  2.4765 -0.8577
  160SAPE  C21017890   1.675   4.932   7.649  0.1145 -0.3634 -0.6257
  160SAPE  H10R17891   1.728   4.835   7.643 -0.9426 -1.3942  3.4589
  160SAPE  H10S17892   1.580   4.898   7.697  0.0228  1.1514  0.3340
  160SAPE  C21117893   1.736   5.029   7.757 -0.4272  0.1909  0.0125
  160SAPE  H11R17894   1.790   5.115   7.715  1.1466  0.2114  1.9453
  160SAPE  C21217895   1.721   5.026   7.890  0.1601  0.4541  1.0209
  160SAPE  H12R17896   1.751   5.105   7.961  1.0443 -0.7443  2.0337
  160SAPE  C21317897   1.636   4.934   7.975  0.1319 -0.1575  0.1810
  160SAPE  H13R17898   1.574   4.858   7.922 -2.1647  0.3326  1.9545
  160SAPE  H13S17899   1.555   4.989   8.028  0.5785  0.8959 -0.2184
  160SAPE  C21417900   1.710   4.859   8.076 -0.3314 -0.1191  0.5774
  160SAPE  H14R17901   1.798   4.809   8.033  0.6987  1.1696  1.1309
  160SAPE  C21517902   1.696   4.848   8.207 -1.0501  0.0509 -0.0892
  160SAPE  H15R17903   1.773   4.806   8.273  0.4714  0.6067 -1.4395
  160SAPE  C21617904   1.585   4.906   8.293  0.0988 -0.9390 -0.7028
  160SAPE  H16R17905   1.512   4.973   8.243  0.7520 -1.3620 -2.2774
  160SAPE  H16S17906   1.628   4.969   8.373  0.7162  0.1933 -1.8837
  160SAPE  C21717907   1.501   4.803   8.374  0.3502  0.4455 -0.3815
  160SAPE  H17R17908   1.572   4.761   8.448 -1.0296  1.1854  1.4379
  160SAPE  H17S17909   1.456   4.726   8.308 -2.3200  1.1426  0.5137
  160SAPE  C21817910   1.395   4.869   8.469  0.1600  0.6468  0.5583
  160SAPE  H18R17911   1.305   4.882   8.406 -0.8873 -1.4263  1.5053
  160SAPE  H18S17912   1.431   4.962   8.518  3.5309 -0.4634  0.4453
  160SAPE  C21917913   1.354   4.768   8.576  0.0568 -0.0569 -0.8690
  160SAPE  H19R17914   1.350   4.831   8.668  2.0339 -1.1229  0.0076
  160SAPE  H19S17915   1.438   4.698   8.592 -0.9080 -1.0318  0.1114
  160SAPE  C22017916   1.211   4.707   8.551 -0.0288 -0.5950 -0.4393
  160SAPE  H20R17917   1.188   4.642   8.638  0.5515  2.7949  2.4332
  160SAPE  H20S17918   1.203   4.662   8.449 -1.6306 -1.1177 -0.1134
  160SAPE  H20T17919   1.140   4.790   8.530 -2.1611 -1.5728  2.2764
  160SAPE   C3317920   2.078   4.509   7.113  0.4572 -0.3956  0.1479
  160SAPE   H3X17921   1.975   4.467   7.103 -0.3826  1.2745  1.2238
  160SAPE   H3Y17922   2.066   4.618   7.099 -1.0699 -0.4312  0.9480
  160SAPE   C3417923   2.118   4.479   7.255  0.5166  0.3144 -0.3175
  160SAPE   H4X17924   2.228   4.494   7.259  1.0018 -2.3176 -1.4151
  160SAPE   H4Y17925   2.107   4.368   7.251 -0.3361  0.3611  0.3420
  160SAPE   C3517926   2.034   4.534   7.364  0.3552 -0.0474 -0.0092
  160SAPE   H5X17927   1.926   4.521   7.340  0.0376  0.8021  0.8935
  160SAPE   H5Y17928   2.062   4.641   7.362  2.6136 -0.5844  0.2955
  160SAPE   C3617929   2.077   4.491   7.503  0.0545 -0.0271  0.0596
  160SAPE   H6X17930   2.186   4.509   7.515  0.1921 -1.6119  1.7209
  160SAPE   H6Y17931   2.072   4.380   7.501  0.7840 -0.0613 -0.1111
  160SAPE   C3717932   1.998   4.554   7.621 -0.1124 -0.1067  0.7626
  160SAPE   H7X17933   1.891   4.527   7.613  0.0352 -0.3481 -0.5489
  160SAPE   H7Y17934   2.010   4.665   7.627  0.4365 -0.1359  0.3118
  160SAPE   C3817935   2.047   4.505   7.756  0.5214 -0.3236  0.2860
  160SAPE   H8X17936   2.158   4.505   7.766  0.6305  1.2565 -0.4726
  160SAPE   H8Y17937   2.000   4.406   7.769 -1.6549  0.8097  1.6788
  160SAPE   C3917938   1.983   4.585   7.873 -0.1846 -0.2001 -0.8792
  160SAPE   H9X17939   1.876   4.605   7.854 -0.1739  0.8408  0.0229
  160SAPE   H9Y17940   2.037   4.680   7.895  1.1791 -1.3609  1.1642
  160SAPE  C31017941   1.991   4.493   7.996 -0.4530 -0.2590 -0.5231
  160SAPE  H10X17942   2.096   4.459   8.010 -0.3612  0.7054  1.6133
  160SAPE  H10Y17943   1.926   4.403   7.994 -1.0389 -0.3382  5.2707
  160SAPE  C31117944   1.938   4.559   8.122 -0.2300  0.0576  0.4559
  160SAPE  H11X17945   1.838   4.595   8.092  0.0307 -0.0390 -0.5721
  160SAPE  H11Y17946   1.992   4.653   8.146  2.0995 -1.2659  0.7303
  160SAPE  C31217947   1.924   4.464   8.233  0.3533  0.7151 -0.4111
  160SAPE  H12X17948   2.008   4.396   8.256  1.1553  0.5892 -3.3635
  160SAPE  H12Y17949   1.838   4.397   8.211  1.2639 -0.8077  0.5405
  160SAPE  C31317950   1.894   4.537   8.357 -0.3291  0.4249 -0.1257
  160SAPE  H13X17951   1.806   4.601   8.333  0.1904  0.1221 -3.1457
  160SAPE  H13Y17952   1.971   4.602   8.401  1.7735 -1.2184 -1.2033
  160SAPE  C31417953   1.855   4.441   8.477 -0.5436 -0.3709 -0.4688
  160SAPE  H14X17954   1.944   4.382   8.507  1.2563  1.2514 -2.3534
  160SAPE  H14Y17955   1.777   4.367   8.447 -0.3498 -0.7608 -0.0325
  160SAPE  C31517956   1.810   4.531   8.590 -0.5778 -0.4184 -0.1431
  160SAPE  H15X17957   1.724   4.592   8.555  0.6223  1.8263  0.5986
  160SAPE  H15Y17958   1.885   4.611   8.610 -1.1964  0.1976 -0.2339
  160SAPE  C31617959   1.771   4.469   8.720  0.1599  0.2524 -0.2513
  160SAPE  H16X17960   1.690   4.398   8.697  3.0654 -3.1749 -0.7360
  160SAPE  H16Y17961   1.717   4.543   8.782 -1.1365  0.1472 -1.2277
  160SAPE  C31717962   1.890   4.418   8.795  0.0232  0.4733 -0.0458
  160SAPE  H17X17963   1.958   4.505   8.809  0.2718  0.1331  0.9828
  160SAPE  H17Y17964   1.943   4.346   8.730  0.8544  0.8518  0.2105
  160SAPE  C31817965   1.854   4.356   8.931  0.1592 -0.0319 -0.6241
  160SAPE  H18X17966   1.787   4.419   8.993  0.6578  0.1072 -0.2172
  160SAPE  H18Y17967   1.932   4.304   8.991 -0.1641 -1.9859 -1.8202
  160SAPE  H18Z17968   1.788   4.272   8.901  0.9045 -0.6436 -0.5845
  161SOPE     N17969   4.046   0.296  10.784 -0.4048  0.2123 -0.1196
  161SOPE   HN117970   3.943   0.304  10.797 -0.6919 -0.2814 -1.8267
  161SOPE   HN217971   4.066   0.331  10.688 -2.8101  4.3027  0.5997
  161SOPE   HN317972   4.073   0.196  10.781  1.5973  0.7156 -0.6766
  161SOPE   C1217973   4.140   0.376  10.874 -0.2223 -0.4531 -0.2524
  161SOPE  H12A17974   4.213   0.304  10.916 -1.1776  0.3885  3.1946
  161SOPE  H12B17975   4.084   0.419  10.960  0.0304  0.0096 -0.3151
  161SOPE   C1117976   4.207   0.496  10.797 -0.5427  0.3506 -0.1172
  161SOPE  H11A17977   4.271   0.442  10.724  0.0335  0.7905  0.0551
  161SOPE  H11B17978   4.265   0.551  10.875  1.4177 -1.0186 -0.5468
  161SOPE     P17979   4.020   0.693  10.784  0.0943 -0.1332 -0.3308
  161SOPE   O1317980   4.073   0.746  10.914  0.0750  0.4267  0.1413
  161SOPE   O1417981   3.880   0.641  10.780 -0.1506  0.0052  0.0119
  161SOPE   O1217982   4.113   0.577  10.727 -0.4364 -0.3294  0.6853
  161SOPE   O1117983   4.021   0.808  10.688  0.1129 -0.4257 -0.6214
  161SOPE    C117984   4.080   0.836  10.562 -0.4366 -0.5874 -0.3804
  161SOPE    HA17985   4.190   0.848  10.567 -0.3388 -0.5722 -2.0476
  161SOPE    HB17986   4.050   0.942  10.548  3.5577  1.0435  1.9298
  161SOPE    C217987   4.043   0.749  10.438 -0.4973 -0.0836  0.3429
  161SOPE    HS17988   4.082   0.648  10.462 -2.3543 -0.3260  2.7932
  161SOPE   O2117989   4.098   0.816  10.323 -0.7937 -0.3690  0.6953
  161SOPE   C2117990   4.132   0.735  10.224  0.1265  0.5377  0.6151
  161SOPE   O2217991   4.131   0.613  10.224 -0.1209  0.0895  0.2583
  161SOPE   C2217992   4.179   0.813  10.105 -0.0618 -0.4346  0.7966
  161SOPE   H2R17993   4.263   0.872  10.147  0.4420 -1.5266  1.3388
  161SOPE   H2S17994   4.095   0.877  10.069  2.4368  2.1110 -0.9431
  161SOPE    C317995   3.896   0.745  10.431  1.1180 -0.6102  0.5299
  161SOPE    HX17996   3.855   0.848  10.427 -0.6903 -1.2992  0.3796
  161SOPE    HY17997   3.859   0.708  10.529 -0.6221  1.5556  0.7705
  161SOPE   O3117998   3.850   0.681  10.305 -0.1749 -0.6079  0.2021
  161SOPE   C3117999   3.839   0.550  10.320 -0.9953  0.0092  0.3904
  161SOPE   O3218000   3.841   0.490  10.428  0.6342 -0.4170 -0.0026
  161SOPE   C3218001   3.812   0.496  10.181 -0.1823  0.5009  0.4294
  161SOPE   H2X18002   3.903   0.505  10.118 -1.4098 -0.3175 -1.5761
  161SOPE   H2Y18003   3.730   0.561  10.143  1.6596  3.6006  1.4053
  161SOPE   C2318004   4.249   0.712  10.008 -0.5117  0.0162 -0.7774
  161SOPE   H3R18005   4.304   0.631  10.059 -1.2426  0.6542  1.1027
  161SOPE   H3S18006   4.325   0.768   9.949  1.4208 -2.5062 -0.8418
  161SOPE   C2418007   4.154   0.638   9.909  0.0080  0.6929  0.3743
  161SOPE   H4R18008   4.220   0.564   9.858 -0.5838  1.1504 -1.0927
  161SOPE   H4S18009   4.075   0.579   9.961  0.4001  1.7987  2.3218
  161SOPE   C2518010   4.087   0.737   9.820  0.8986  0.1655 -0.3006
  161SOPE   H5R18011   4.038   0.818   9.879  2.2417  0.9184 -0.1800
  161SOPE   H5S18012   4.162   0.790   9.759  3.0297  1.1536  2.9193
  161SOPE   C2618013   3.990   0.667   9.730 -0.6863  0.9698 -0.6546
  161SOPE   H6R18014   4.053   0.619   9.653 -1.8539  1.3550 -1.8906
  161SOPE   H6S18015   3.924   0.595   9.783  2.4176 -1.1973  0.5351
  161SOPE   C2718016   3.905   0.749   9.641  0.0635  0.6238  0.3715
  161SOPE   H7R18017   3.862   0.824   9.711 -0.0807  0.6203  0.2860
  161SOPE   H7S18018   3.962   0.810   9.568 -0.6001  1.0084  0.1732
  161SOPE   C2818019   3.783   0.669   9.572  0.3466 -0.1626  0.2828
  161SOPE   H8R18020   3.812   0.569   9.532 -1.1211 -0.5941  0.2108
  161SOPE   H8S18021   3.705   0.631   9.642 -2.1000 -1.3198 -2.8389
  161SOPE   C2918022   3.724   0.753   9.455 -0.7248  0.0212  0.2118
  161SOPE   H9118023   3.642   0.825   9.469  0.4401  1.3129  0.5901
  161SOPE  C21018024   3.768   0.737   9.326  0.2263  0.3532 -0.3579
  161SOPE  H10118025   3.721   0.793   9.244  1.2012  0.5453 -0.8015
  161SOPE  C21118026   3.871   0.635   9.283  0.3916 -0.0191 -0.2477
  161SOPE  H11R18027   3.826   0.534   9.288 -1.8811  0.9939  0.7153
  161SOPE  H11S18028   3.956   0.624   9.353  1.3324  1.1461 -1.1476
  161SOPE  C21218029   3.917   0.667   9.138 -0.1096 -0.0925  0.1587
  161SOPE  H12R18030   3.838   0.674   9.060 -0.2085 -3.0508 -0.1155
  161SOPE  H12S18031   3.962   0.570   9.109  0.3822 -0.5481  2.2849
  161SOPE  C21318032   4.013   0.787   9.128  0.1991  0.2791  0.3588
  161SOPE  H13R18033   4.092   0.778   9.206 -1.9713  0.5804  2.7199
  161SOPE  H13S18034   3.957   0.879   9.154  0.1408  0.4208 -0.2645
  161SOPE  C21418035   4.079   0.799   8.990 -0.1751 -0.7102 -0.1424
  161SOPE  H14R18036   4.134   0.895   9.001 -1.4534  0.0235  0.0208
  161SOPE  H14S18037   4.007   0.809   8.906  0.0106  3.9284 -0.0321
  161SOPE  C21518038   4.194   0.702   8.953  0.1084 -0.1939  0.2881
  161SOPE  H15R18039   4.144   0.612   8.910  0.1053 -1.1011  2.1051
  161SOPE  H15S18040   4.256   0.670   9.039  1.4121  1.5966  0.0672
  161SOPE  C21618041   4.279   0.758   8.832 -0.2633 -0.4596  0.1281
  161SOPE  H16R18042   4.213   0.770   8.744  1.7953 -3.0125 -1.9308
  161SOPE  H16S18043   4.357   0.684   8.803 -0.5568 -0.3630 -0.9383
  161SOPE  C21718044   4.358   0.891   8.844 -0.2435 -0.7694 -0.2773
  161SOPE  H17R18045   4.427   0.896   8.931  0.3372 -2.1638 -0.6330
  161SOPE  H17S18046   4.282   0.972   8.854  0.1063 -0.6522  2.1081
  161SOPE  C21818047   4.448   0.923   8.725 -0.9236  0.1784 -0.1693
  161SOPE  H18R18048   4.391   0.928   8.629  2.5148 -0.9516 -2.4474
  161SOPE  H18S18049   4.530   0.853   8.700 -0.3844  0.4568  0.8106
  161SOPE  H18T18050   4.492   1.023   8.744 -1.5460  0.5888 -0.8135
  161SOPE   C3318051   3.756   0.355  10.171  0.4576  0.1509 -0.2254
  161SOPE   H3X18052   3.655   0.344  10.215 -0.0484  1.9212 -0.8437
  161SOPE   H3Y18053   3.817   0.272  10.213  0.6974  0.5002  0.1226
  161SOPE   C3418054   3.730   0.326  10.021  0.1924  0.6270 -0.6948
  161SOPE   H4X18055   3.813   0.369   9.959  2.0615  1.7793  2.3814
  161SOPE   H4Y18056   3.636   0.373   9.986  0.4294  1.5320 -0.1410
  161SOPE   C3518057   3.712   0.167  10.012  0.5317  0.0901 -0.2933
  161SOPE   H5X18058   3.667   0.132  10.107 -0.4358  0.2117 -0.7025
  161SOPE   H5Y18059   3.810   0.115  10.002  1.4952  0.8257  3.8457
  161SOPE   C3618060   3.627   0.128   9.893 -1.2266 -0.2899  0.7488
  161SOPE   H6X18061   3.521   0.156   9.912 -1.4405  0.2125 -1.0002
  161SOPE   H6Y18062   3.635   0.017   9.886 -0.9699 -0.2175 -0.3779
  161SOPE   C3718063   3.669   0.197   9.764  0.6281  0.4062 -0.0165
  161SOPE   H7X18064   3.779   0.182   9.752  0.6640  0.0018  0.7141
  161SOPE   H7Y18065   3.644   0.304   9.775 -0.1843  0.1477  0.7983
  161SOPE   C3818066   3.595   0.154   9.636 -0.4411 -0.2435  0.1826
  161SOPE   H8X18067   3.484   0.151   9.646 -0.2443  0.2112  3.6211
  161SOPE   H8Y18068   3.633   0.053   9.609  2.9811  1.2657 -1.2313
  161SOPE   C3918069   3.640   0.249   9.527 -0.2169  0.2917  0.2350
  161SOPE   H9X18070   3.751   0.253   9.516 -0.2177  2.0239  0.5288
  161SOPE   H9Y18071   3.608   0.355   9.533 -0.8530  0.1263 -0.1175
  161SOPE  C31018072   3.584   0.201   9.394  0.2064 -0.6750 -0.4129
  161SOPE  H10X18073   3.475   0.180   9.401 -0.0837  0.7337 -0.3477
  161SOPE  H10Y18074   3.630   0.104   9.367  1.4267 -0.2166 -0.0503
  161SOPE  C31118075   3.604   0.301   9.272  0.8891 -0.2355 -0.2008
  161SOPE  H11X18076   3.711   0.330   9.268  0.6349  1.0668  1.2483
  161SOPE  H11Y18077   3.540   0.388   9.300 -1.0593 -1.8377  0.5416
  161SOPE  C31218078   3.561   0.231   9.141 -0.1032  0.3303 -0.3798
  161SOPE  H12X18079   3.450   0.229   9.129 -0.4251 -1.4839  2.0686
  161SOPE  H12Y18080   3.588   0.124   9.154  1.5710  0.5319 -1.9592
  161SOPE  C31318081   3.650   0.275   9.026 -0.2884 -0.3250  0.4441
  161SOPE  H13X18082   3.661   0.189   8.956 -0.2142  0.6199 -0.7398
  161SOPE  H13Y18083   3.753   0.301   9.059 -0.4819  0.2795  0.5785
  161SOPE  C31418084   3.593   0.394   8.950 -0.6149 -1.0261 -0.5082
  161SOPE  H14X18085   3.584   0.485   9.014  0.9326 -1.0300 -0.2485
  161SOPE  H14Y18086   3.489   0.368   8.919 -0.8466 -0.9458  0.1731
  161SOPE  C31518087   3.679   0.423   8.821  0.5154 -0.6880 -0.4741
  161SOPE  H15X18088   3.628   0.514   8.785 -0.2603 -1.0853 -0.4138
  161SOPE  H15Y18089   3.672   0.336   8.753  0.7309 -1.7596  0.8225
  161SOPE  C31618090   3.830   0.456   8.838 -0.5847  0.2170  0.1125
  161SOPE  H16X18091   3.893   0.368   8.865  1.4202  1.7444  0.6041
  161SOPE  H16Y18092   3.837   0.534   8.916 -1.7422  0.0807  0.3627
  161SOPE  C31718093   3.902   0.522   8.714 -0.5090 -0.2644 -0.4418
  161SOPE  H17X18094   4.006   0.553   8.741  0.0961  0.1003 -2.9813
  161SOPE  H17Y18095   3.853   0.617   8.684  1.6928  0.7556 -1.0777
  161SOPE  C31818096   3.907   0.424   8.599  0.8710  0.3066  0.0377
  161SOPE  H18X18097   3.977   0.455   8.518  2.0906 -1.0843  0.5324
  161SOPE  H18Y18098   3.808   0.437   8.549  1.0226 -0.8738 -0.6034
  161SOPE  H18Z18099   3.935   0.321   8.630 -2.2687 -0.0814  2.0285
  162SOPE     N18100   2.570   0.769  11.104 -0.3895 -0.1822  0.1433
  162SOPE   HN118101   2.594   0.870  11.106  0.4151 -0.3826  1.4370
  162SOPE   HN218102   2.536   0.739  11.197  0.1018 -0.8411  0.1179
  162SOPE   HN318103   2.662   0.723  11.086  0.8849  2.3987 -0.3336
  162SOPE   C1218104   2.476   0.737  10.983 -0.7538  0.2636  0.5638
  162SOPE  H12A18105   2.371   0.742  11.018 -1.0225 -0.2624 -0.1580
  162SOPE  H12B18106   2.502   0.632  10.958 -2.1797 -0.0556  0.3758
  162SOPE   C1118107   2.509   0.818  10.854  0.5400 -0.0019  0.3364
  162SOPE  H11A18108   2.429   0.795  10.780  0.4011  2.1445 -0.2616
  162SOPE  H11B18109   2.601   0.785  10.801 -0.5545  0.0168 -1.6887
  162SOPE     P18110   2.387   1.047  10.891  0.0915  0.2701 -0.0187
  162SOPE   O1318111   2.406   1.173  10.963 -0.2823 -0.0153  0.4086
  162SOPE   O1418112   2.266   0.962  10.914 -0.2612  0.0153 -0.0154
  162SOPE   O1218113   2.514   0.956  10.887  0.2461 -0.1766 -0.1404
  162SOPE   O1118114   2.386   1.082  10.731  0.0211  0.3751 -0.4370
  162SOPE    C118115   2.260   1.127  10.684 -0.9655  0.4453  0.8564
  162SOPE    HA18116   2.252   1.237  10.696 -0.0078  0.8240 -1.4335
  162SOPE    HB18117   2.170   1.082  10.730 -1.1275  2.4481  2.6364
  162SOPE    C218118   2.259   1.113  10.526  0.2024  0.0931  0.0054
  162SOPE    HS18119   2.282   1.007  10.503 -1.1965 -0.0938 -0.6252
  162SOPE   O2118120   2.358   1.200  10.470 -0.2968 -0.5180 -0.2442
  162SOPE   C2118121   2.410   1.163  10.358 -1.1919 -0.1167  0.3068
  162SOPE   O2218122   2.389   1.060  10.293 -0.0944 -0.6533 -0.4073
  162SOPE   C2218123   2.505   1.277  10.309  0.5156  0.3434  0.3185
  162SOPE   H2R18124   2.600   1.254  10.361  1.1038  1.0028 -0.4378
  162SOPE   H2S18125   2.465   1.374  10.346  0.3638  1.4203 -2.4503
  162SOPE    C318126   2.115   1.138  10.476  0.1083 -0.4179  0.0638
  162SOPE    HX18127   2.078   1.237  10.510  1.3751  1.1437 -2.7681
  162SOPE    HY18128   2.051   1.061  10.526  2.6871 -1.8082  1.4373
  162SOPE   O3118129   2.098   1.153  10.334 -0.4842  0.4354  0.4525
  162SOPE   C3118130   2.066   1.043  10.259  0.0938 -0.1884 -1.1676
  162SOPE   O3218131   2.032   0.932  10.296  0.2764  0.6216  0.2929
  162SOPE   C3218132   2.087   1.077  10.109 -0.6241  0.3902 -0.2102
  162SOPE   H2X18133   2.183   1.027  10.083 -0.9952  0.6534 -2.2570
  162SOPE   H2Y18134   2.101   1.187  10.100  1.0206  0.3190  0.9675
  162SOPE   C2318135   2.509   1.272  10.155 -0.1043  1.2972  0.8028
  162SOPE   H3R18136   2.538   1.170  10.121  1.8351  2.2239 -0.4545
  162SOPE   H3S18137   2.579   1.340  10.103  1.4711  0.9977  2.4416
  162SOPE   C2418138   2.376   1.316  10.092  0.0630 -0.1742  0.5338
  162SOPE   H4R18139   2.313   1.224  10.093 -2.2391  1.3066  1.9526
  162SOPE   H4S18140   2.323   1.401  10.140  0.5588  1.6897 -1.9979
  162SOPE   C2518141   2.386   1.372   9.945 -0.4378 -0.1048 -0.3199
  162SOPE   H5R18142   2.465   1.451   9.949 -0.0366 -0.4916 -0.5597
  162SOPE   H5S18143   2.407   1.286   9.878 -0.9396 -1.3780  1.1198
  162SOPE   C2618144   2.252   1.435   9.890 -0.2763  0.3187 -0.9313
  162SOPE   H6R18145   2.177   1.360   9.923 -0.0622  1.4493  2.4286
  162SOPE   H6S18146   2.233   1.532   9.941 -0.5202 -0.8243  1.2526
  162SOPE   C2718147   2.249   1.470   9.741 -0.4212  0.2956  0.4685
  162SOPE   H7R18148   2.309   1.563   9.729 -1.8765  1.0336 -1.8350
  162SOPE   H7S18149   2.305   1.389   9.690 -0.9719  0.2415 -0.0602
  162SOPE   C2818150   2.106   1.484   9.698 -0.4737 -0.1011  0.0669
  162SOPE   H8R18151   2.121   1.541   9.604  1.6676 -0.6930 -0.0033
  162SOPE   H8S18152   2.077   1.380   9.675 -1.5243  0.0837  0.5238
  162SOPE   C2918153   2.009   1.551   9.789 -0.5784  0.0260  0.9826
  162SOPE   H9118154   2.008   1.503   9.888  0.0669 -1.2348  0.4124
  162SOPE  C21018155   1.917   1.647   9.761 -0.0712  0.5297 -0.6614
  162SOPE  H10118156   1.860   1.684   9.848  0.0823  0.0153 -0.3414
  162SOPE  C21118157   1.905   1.714   9.632  0.7704 -0.4897 -0.1267
  162SOPE  H11R18158   2.008   1.728   9.592  0.7161 -0.4790 -0.2641
  162SOPE  H11S18159   1.862   1.817   9.638  0.2356 -0.7495  0.6329
  162SOPE  C21218160   1.806   1.645   9.536  0.3889  0.1983 -0.3272
  162SOPE  H12R18161   1.705   1.659   9.578  0.6167 -2.1716  1.1392
  162SOPE  H12S18162   1.828   1.536   9.536 -0.1988 -0.0070  3.0740
  162SOPE  C21318163   1.823   1.704   9.396 -0.8071  1.0225  0.3618
  162SOPE  H13R18164   1.931   1.687   9.377 -1.0007  1.4376 -1.2302
  162SOPE  H13S18165   1.820   1.814   9.382  0.9024  0.9130 -1.3976
  162SOPE  C21418166   1.736   1.638   9.293 -0.0324 -0.4444 -0.3150
  162SOPE  H14R18167   1.627   1.662   9.296 -0.2573 -1.2456 -1.3957
  162SOPE  H14S18168   1.748   1.528   9.301  1.5316 -0.5220 -2.6890
  162SOPE  C21518169   1.804   1.657   9.155  0.4738 -0.3427  0.0904
  162SOPE  H15R18170   1.767   1.576   9.089  1.5366 -2.6061  2.1381
  162SOPE  H15S18171   1.912   1.631   9.162  0.5885  0.0056 -0.3553
  162SOPE  C21618172   1.783   1.791   9.090  0.5578  0.3904  0.5605
  162SOPE  H16R18173   1.823   1.877   9.147  1.2683  2.3913 -2.6839
  162SOPE  H16S18174   1.676   1.814   9.068  0.7455 -0.1364 -1.0048
  162SOPE  C21718175   1.850   1.809   8.944  0.4367  0.0642  0.9710
  162SOPE  H17R18176   1.786   1.875   8.881  0.6138  0.0684  0.7943
  162SOPE  H17S18177   1.863   1.713   8.890  0.3854  1.7788 -2.3762
  162SOPE  C21818178   1.994   1.869   8.952  0.1498  0.2398  0.5479
  162SOPE  H18R18179   2.029   1.907   8.853 -1.5550  0.0173 -0.1689
  162SOPE  H18S18180   2.067   1.798   8.996  0.9362  1.7468  1.7692
  162SOPE  H18T18181   1.994   1.959   9.017  0.2161  0.4187  0.3052
  162SOPE   C3318182   1.980   1.040  10.016  0.3478  0.9751 -0.5456
  162SOPE   H3X18183   1.878   1.068  10.052  0.8270 -1.2081  2.9201
  162SOPE   H3Y18184   1.970   0.931   9.995  0.8753  0.1890  2.7380
  162SOPE   C3418185   1.984   1.129   9.887  0.2361 -0.8080 -0.2768
  162SOPE   H4X18186   2.091   1.116   9.860  0.2951 -0.7118 -0.0929
  162SOPE   H4Y18187   1.971   1.238   9.899  2.0586 -0.7905  2.5520
  162SOPE   C3518188   1.903   1.071   9.774  0.3266  0.6993  1.0858
  162SOPE   H5X18189   1.798   1.073   9.811  0.2169 -0.0007  0.8172
  162SOPE   H5Y18190   1.930   0.967   9.747  1.6902  1.3278 -0.0519
  162SOPE   C3618191   1.905   1.148   9.642 -0.4452  0.2395 -0.0003
  162SOPE   H6X18192   2.007   1.130   9.603 -1.1712  2.0325 -3.0041
  162SOPE   H6Y18193   1.908   1.258   9.660  1.4957  0.3223 -0.5835
  162SOPE   C3718194   1.803   1.097   9.534  0.1026 -0.3336  0.3164
  162SOPE   H7X18195   1.704   1.140   9.561  0.8232  0.5189  1.7472
  162SOPE   H7Y18196   1.784   0.988   9.533 -2.2365 -0.0723  3.0098
  162SOPE   C3818197   1.838   1.145   9.391  0.0377 -0.1263  0.1103
  162SOPE   H8X18198   1.941   1.114   9.363  2.0428  1.8749  4.4507
  162SOPE   H8Y18199   1.839   1.256   9.394  0.0074 -0.1144 -0.2084
  162SOPE   C3918200   1.724   1.117   9.288  0.0103 -0.2030 -0.1401
  162SOPE   H9X18201   1.625   1.152   9.326 -0.3764 -0.7927 -0.5781
  162SOPE   H9Y18202   1.725   1.008   9.268  1.5530 -0.6314  2.0420
  162SOPE  C31018203   1.737   1.203   9.163  0.2168 -0.1181 -0.2341
  162SOPE  H10X18204   1.841   1.192   9.125 -0.2226  0.6673 -1.7609
  162SOPE  H10Y18205   1.730   1.312   9.182  1.6060 -0.2334  1.1476
  162SOPE  C31118206   1.631   1.165   9.051  0.2439 -0.0585 -0.6731
  162SOPE  H11X18207   1.533   1.176   9.101  0.5450  1.2891 -0.3393
  162SOPE  H11Y18208   1.645   1.056   9.030  1.8645  0.3081 -1.7268
  162SOPE  C31218209   1.631   1.253   8.928 -0.4972 -0.0273  0.2755
  162SOPE  H12X18210   1.727   1.244   8.873 -0.8945  0.0698 -0.4378
  162SOPE  H12Y18211   1.597   1.357   8.948 -2.5799 -0.6333  0.0926
  162SOPE  C31318212   1.526   1.214   8.819 -0.0412  0.0940 -0.7671
  162SOPE  H13X18213   1.423   1.247   8.842  0.1131 -0.3021  0.5790
  162SOPE  H13Y18214   1.513   1.104   8.804 -0.6881  0.2047 -1.0377
  162SOPE  C31418215   1.555   1.265   8.678  0.0542  0.7890 -0.0843
  162SOPE  H14X18216   1.607   1.360   8.703  0.6335 -0.2909  3.3684
  162SOPE  H14Y18217   1.458   1.293   8.633 -0.7813  1.0477  1.7743
  162SOPE  C31518218   1.632   1.167   8.592 -0.0747 -0.1859 -1.0018
  162SOPE  H15X18219   1.577   1.073   8.567  0.7256 -1.8247  2.6061
  162SOPE  H15Y18220   1.730   1.143   8.637  0.0374  3.1484  0.8172
  162SOPE  C31618221   1.667   1.228   8.458  0.7921 -0.2614  0.0265
  162SOPE  H16X18222   1.721   1.320   8.489 -1.4439  0.7335  1.2499
  162SOPE  H16Y18223   1.579   1.249   8.395  0.4334 -0.6571  0.3839
  162SOPE  C31718224   1.763   1.142   8.367  0.5397 -0.2527 -0.2390
  162SOPE  H17X18225   1.698   1.072   8.310  1.2491 -0.9090 -0.2703
  162SOPE  H17Y18226   1.825   1.080   8.436 -1.5968 -0.9833  1.1054
  162SOPE  C31818227   1.834   1.216   8.254  0.0443  0.0259  0.7405
  162SOPE  H18X18228   1.909   1.289   8.292 -0.2931  0.4450  0.6061
  162SOPE  H18Y18229   1.759   1.283   8.206  0.1061  0.7245  1.6084
  162SOPE  H18Z18230   1.885   1.147   8.184 -2.3938 -1.7223  0.5562
  163SOPE     N18231   1.536   4.432  10.887  0.3253 -0.2980  0.6229
  163SOPE   HN118232   1.472   4.359  10.851 -1.8014  1.0076  1.5796
  163SOPE   HN218233   1.553   4.510  10.820  1.5604 -1.1110 -0.0542
  163SOPE   HN318234   1.629   4.400  10.919  0.3882 -0.6108  0.1326
  163SOPE   C1218235   1.469   4.490  11.010 -0.0642 -0.3344 -0.6964
  163SOPE  H12A18236   1.514   4.433  11.094 -1.0196 -0.1697 -0.0606
  163SOPE  H12B18237   1.361   4.467  11.007 -0.1317 -0.7044  2.2200
  163SOPE   C1118238   1.487   4.643  11.037 -0.2652 -0.3063 -0.9806
  163SOPE  H11A18239   1.596   4.666  11.031 -0.5631  1.8365  0.7605
  163SOPE  H11B18240   1.469   4.677  11.141  1.6441 -1.0898 -0.3498
  163SOPE     P18241   1.468   4.782  10.815  0.2418 -0.2209  0.2309
  163SOPE   O1318242   1.546   4.673  10.750 -0.0169  0.1238 -0.6365
  163SOPE   O1418243   1.530   4.908  10.854 -0.3938  0.6481  0.5466
  163SOPE   O1218244   1.409   4.725  10.950  0.4826  0.4330 -0.0551
  163SOPE   O1118245   1.338   4.806  10.730  0.5349 -0.0091  0.0196
  163SOPE    C118246   1.312   4.735  10.609  0.6942 -0.9577  0.5480
  163SOPE    HA18247   1.208   4.752  10.575  1.6315 -0.2833 -2.2833
  163SOPE    HB18248   1.336   4.627  10.618  0.7238 -1.3692 -2.9624
  163SOPE    C218249   1.403   4.786  10.494 -0.0875  0.0304  0.2401
  163SOPE    HS18250   1.511   4.776  10.516 -0.4283 -1.8344  1.2598
  163SOPE   O2118251   1.377   4.925  10.469  0.3514 -0.7547 -0.0480
  163SOPE   C2118252   1.467   5.009  10.413  0.5975  0.8408  0.2716
  163SOPE   O2218253   1.578   4.970  10.387  0.7566 -0.4094 -0.0197
  163SOPE   C2218254   1.416   5.148  10.395 -0.6806  0.1743 -0.3109
  163SOPE   H2R18255   1.425   5.196  10.494  2.1426 -1.4392  0.3155
  163SOPE   H2S18256   1.308   5.135  10.370 -0.7472 -0.4870  0.2815
  163SOPE    C318257   1.374   4.702  10.362 -0.0083 -0.2251 -0.6604
  163SOPE    HX18258   1.264   4.708  10.346 -0.5922 -0.3163  2.6170
  163SOPE    HY18259   1.400   4.595  10.379  0.0820 -0.0111  0.5846
  163SOPE   O3118260   1.449   4.750  10.242 -0.2427  0.1779 -0.0203
  163SOPE   C3118261   1.575   4.708  10.243  0.4333 -0.1566  0.3921
  163SOPE   O3218262   1.624   4.644  10.335  0.2619 -0.1261  0.2297
  163SOPE   C3218263   1.653   4.759  10.115 -0.1988  0.6492 -0.8587
  163SOPE   H2X18264   1.666   4.869  10.126  0.9069  0.4633 -0.1853
  163SOPE   H2Y18265   1.585   4.721  10.035 -2.1048 -0.4810  1.1868
  163SOPE   C2318266   1.470   5.227  10.272  0.2905 -0.7377  0.3148
  163SOPE   H3R18267   1.409   5.319  10.257 -1.0919 -1.6505  0.1178
  163SOPE   H3S18268   1.468   5.176  10.173  0.8207  0.2514 -0.2162
  163SOPE   C2418269   1.613   5.277  10.295  0.6538  0.5464 -0.4753
  163SOPE   H4R18270   1.617   5.326  10.394  0.8700  0.0119 -0.2126
  163SOPE   H4S18271   1.681   5.191  10.312 -0.6359 -0.2216  1.1205
  163SOPE   C2518272   1.662   5.381  10.190 -0.0068  0.1552 -0.7721
  163SOPE   H5R18273   1.615   5.480  10.209  1.0729  1.1132 -2.7681
  163SOPE   H5S18274   1.772   5.389  10.200  0.4787 -3.6737 -1.6387
  163SOPE   C2618275   1.624   5.345  10.046  0.5275  0.2268 -0.2990
  163SOPE   H6R18276   1.653   5.238  10.037 -0.3651  0.0442 -1.1684
  163SOPE   H6S18277   1.513   5.339  10.047  0.4770  0.6089  2.2069
  163SOPE   C2718278   1.675   5.432   9.933  0.5161 -0.7973 -0.3126
  163SOPE   H7R18279   1.636   5.535   9.943  0.9805 -0.6639  0.1493
  163SOPE   H7S18280   1.785   5.440   9.925  0.2967  2.6231 -1.3185
  163SOPE   C2818281   1.629   5.376   9.801  0.3718  0.5502  0.3611
  163SOPE   H8R18282   1.673   5.274   9.806 -1.5339 -0.2962  1.1249
  163SOPE   H8S18283   1.521   5.352   9.788  0.0830  1.6987  0.5776
  163SOPE   C2918284   1.680   5.459   9.693  0.0965 -1.0455  0.0206
  163SOPE   H9118285   1.790   5.456   9.688  0.1872 -0.7704  1.5910
  163SOPE  C21018286   1.615   5.531   9.607  0.2838  0.6104  0.3211
  163SOPE  H10118287   1.673   5.580   9.527 -0.4686 -0.2543 -0.7816
  163SOPE  C21118288   1.466   5.558   9.585  0.1707  0.7345 -1.0044
  163SOPE  H11R18289   1.445   5.664   9.560 -0.7752  0.4876 -1.2868
  163SOPE  H11S18290   1.421   5.529   9.682  1.5529  0.2814 -0.4727
  163SOPE  C21218291   1.401   5.484   9.462 -0.4595 -0.2979 -0.3309
  163SOPE  H12R18292   1.291   5.504   9.463 -0.1991  1.3314 -0.7665
  163SOPE  H12S18293   1.418   5.375   9.461 -1.0913 -0.4248  0.6723
  163SOPE  C21318294   1.445   5.553   9.337 -0.1537  0.0962 -0.2868
  163SOPE  H13R18295   1.553   5.530   9.327 -0.6353 -1.7227 -1.8235
  163SOPE  H13S18296   1.436   5.663   9.345  1.6737  0.4283 -1.8955
  163SOPE  C21418297   1.379   5.507   9.212  0.3927 -0.2238  0.1867
  163SOPE  H14R18298   1.273   5.538   9.215  0.9548  1.8564  0.4902
  163SOPE  H14S18299   1.379   5.398   9.191  1.0157  0.0095 -1.1805
  163SOPE  C21518300   1.454   5.559   9.090 -0.1327 -0.0512 -1.0514
  163SOPE  H15R18301   1.556   5.515   9.094 -0.0517  0.1352  2.2054
  163SOPE  H15S18302   1.466   5.670   9.095  1.4826 -0.1992 -1.0513
  163SOPE  C21618303   1.379   5.528   8.956 -0.6966 -0.3135 -0.5051
  163SOPE  H16R18304   1.387   5.620   8.894  1.1541 -0.3858 -0.4241
  163SOPE  H16S18305   1.271   5.507   8.975 -1.3524  1.5021 -1.9060
  163SOPE  C21718306   1.435   5.406   8.881  0.0325  0.4801 -0.0502
  163SOPE  H17R18307   1.409   5.313   8.936 -0.5016 -0.1182 -1.2730
  163SOPE  H17S18308   1.546   5.402   8.885 -0.0252 -1.8479  0.8328
  163SOPE  C21818309   1.383   5.385   8.742  0.4248  0.0591  0.0774
  163SOPE  H18R18310   1.414   5.469   8.677 -1.6043  0.9346  0.1850
  163SOPE  H18S18311   1.272   5.389   8.741  0.4048 -0.0377  1.0585
  163SOPE  H18T18312   1.423   5.290   8.700 -2.6813 -0.7485 -1.3922
  163SOPE   C3318313   1.790   4.687  10.107  0.3746 -0.6545  0.1378
  163SOPE   H3X18314   1.777   4.577  10.108  0.4420 -0.6897 -0.9437
  163SOPE   H3Y18315   1.847   4.731  10.191 -0.1603  0.9019 -0.2822
  163SOPE   C3418316   1.861   4.724   9.982  0.5197 -0.6495  0.1871
  163SOPE   H4X18317   1.800   4.684   9.899 -1.4219  0.2964  1.0892
  163SOPE   H4Y18318   1.957   4.673   9.959  0.0825 -0.3606 -2.4890
  163SOPE   C3518319   1.878   4.872   9.956  0.0561 -0.2348  0.0821
  163SOPE   H5X18320   1.912   4.925  10.048 -0.6487 -0.0184  0.2234
  163SOPE   H5Y18321   1.777   4.916   9.940 -0.0770 -0.8188 -0.6804
  163SOPE   C3618322   1.980   4.924   9.848 -0.1433  0.5674 -0.4572
  163SOPE   H6X18323   1.993   4.837   9.780  0.6415  1.0681 -0.9520
  163SOPE   H6Y18324   2.076   4.942   9.900 -0.9945 -0.8682  1.7617
  163SOPE   C3718325   1.925   5.044   9.764  0.0620  0.2257 -0.0697
  163SOPE   H7X18326   1.889   5.122   9.835 -0.8222 -1.7208  1.7555
  163SOPE   H7Y18327   1.845   4.986   9.712  0.9033 -2.8774  1.7857
  163SOPE   C3818328   2.037   5.095   9.667  0.3969 -0.5573  0.5641
  163SOPE   H8X18329   2.093   5.010   9.624  1.3651  0.3012  0.0675
  163SOPE   H8Y18330   2.103   5.155   9.734 -0.7040  0.8138  0.4876
  163SOPE   C3918331   1.988   5.179   9.546 -0.5626  0.1874 -0.6215
  163SOPE   H9X18332   2.076   5.228   9.500  0.9790 -1.6413  0.2550
  163SOPE   H9Y18333   1.930   5.260   9.594  0.7602 -0.0002  1.3969
  163SOPE  C31018334   1.910   5.099   9.439  0.3428 -0.3927 -0.1566
  163SOPE  H10X18335   1.824   5.062   9.498 -0.8919 -3.1342 -3.3829
  163SOPE  H10Y18336   1.966   5.013   9.397  1.1719 -0.4446  1.0009
  163SOPE  C31118337   1.855   5.194   9.322 -0.5651 -0.0579 -1.3944
  163SOPE  H11X18338   1.838   5.293   9.369 -2.5905 -1.1078  0.2438
  163SOPE  H11Y18339   1.762   5.154   9.276 -0.6746 -0.3267 -0.9481
  163SOPE  C31218340   1.959   5.217   9.216 -0.0159 -0.3252 -0.6997
  163SOPE  H12X18341   2.017   5.129   9.183  1.7805  1.1638 -1.7527
  163SOPE  H12Y18342   2.026   5.297   9.257 -1.3466  0.8580 -0.7423
  163SOPE  C31318343   1.910   5.260   9.084  0.0389  0.6156  0.5608
  163SOPE  H13X18344   1.842   5.346   9.099 -1.3928 -0.2220 -0.8005
  163SOPE  H13Y18345   1.850   5.181   9.035  2.3044 -0.8541 -0.0117
  163SOPE  C31418346   2.021   5.304   8.986  0.2242  0.0551  0.4561
  163SOPE  H14X18347   2.112   5.245   9.007 -1.5898 -3.1141  0.0757
  163SOPE  H14Y18348   2.036   5.413   8.999  3.7160 -0.2193 -0.3192
  163SOPE  C31518349   1.993   5.271   8.836 -1.1202 -0.6442 -0.0958
  163SOPE  H15X18350   2.009   5.162   8.827 -0.4054 -0.4778 -0.9264
  163SOPE  H15Y18351   2.074   5.323   8.780 -1.4508  0.5480  0.4813
  163SOPE  C31618352   1.853   5.304   8.785 -0.1285 -0.0279  0.2222
  163SOPE  H16X18353   1.835   5.413   8.796  3.9758  0.7569  0.6726
  163SOPE  H16Y18354   1.773   5.250   8.839 -1.6939  1.4355 -0.5143
  163SOPE  C31718355   1.840   5.260   8.636  0.3779  0.7991 -0.0193
  163SOPE  H17X18356   1.730   5.254   8.619  0.6419 -2.2049 -1.3832
  163SOPE  H17Y18357   1.866   5.152   8.636 -0.3395  0.6182 -0.1110
  163SOPE  C31818358   1.925   5.336   8.529 -0.1968 -0.1423  0.8580
  163SOPE  H18X18359   1.885   5.438   8.509 -1.3314 -0.8432 -0.6068
  163SOPE  H18Y18360   1.924   5.279   8.434 -2.7577 -1.8707  1.8031
  163SOPE  H18Z18361   2.030   5.350   8.562  0.8183 -0.4616 -2.0173
  164SOPE     N18362   4.847   3.292  10.906  0.7070  0.0719 -0.3021
  164SOPE   HN118363   4.919   3.222  10.928  0.1325 -1.6687 -3.4011
  164SOPE   HN218364   4.759   3.267  10.956  1.0539  1.2294  0.9429
  164SOPE   HN318365   4.836   3.272  10.804 -0.0457 -1.7977  0.1074
  164SOPE   C1218366   4.889   3.433  10.939 -0.1473  0.1094 -0.2088
  164SOPE  H12A18367   4.957   3.430  11.027 -1.6391 -0.7966  0.9643
  164SOPE  H12B18368   4.795   3.485  10.966 -0.6666 -0.0061 -1.7014
  164SOPE   C1118369   4.956   3.501  10.817  0.0449 -0.5650  0.3478
  164SOPE  H11A18370   5.051   3.444  10.804 -0.6848 -1.3216 -2.1017
  164SOPE  H11B18371   4.971   3.606  10.849 -1.0937 -0.7924  1.7214
  164SOPE     P18372   4.776   3.608  10.656 -0.3055  0.0971 -0.4987
  164SOPE   O1318373   4.838   3.707  10.560 -0.1985  0.2393 -0.5865
  164SOPE   O1418374   4.714   3.668  10.772 -0.2001  0.0075 -0.0535
  164SOPE   O1218375   4.881   3.488  10.696  0.2624  0.2341  0.0924
  164SOPE   O1118376   4.670   3.525  10.567  0.1582  0.1961 -0.5616
  164SOPE    C118377   4.584   3.597  10.483  0.5483 -0.0320  0.6884
  164SOPE    HA18378   4.599   3.707  10.477  0.8367 -0.1411 -1.1549
  164SOPE    HB18379   4.479   3.576  10.513  0.2190 -2.4648 -1.7443
  164SOPE    C218380   4.593   3.542  10.335  0.9404 -0.2013 -0.3047
  164SOPE    HS18381   4.538   3.446  10.340  0.3467  0.1335 -0.3391
  164SOPE   O2118382   4.729   3.527  10.301 -0.1409  0.1760 -0.0732
  164SOPE   C2118383   4.782   3.403  10.316  0.1515  0.2615 -0.6392
  164SOPE   O2218384   4.715   3.305  10.339  0.1153 -0.3433 -0.3372
  164SOPE   C2218385   4.933   3.409  10.329  0.2219 -0.3471  0.4211
  164SOPE   H2R18386   4.977   3.309  10.349 -2.4786 -1.8477 -0.5948
  164SOPE   H2S18387   4.966   3.482  10.405  0.0757 -1.0721  1.1995
  164SOPE    C318388   4.520   3.636  10.240  0.3443  0.1049 -0.3354
  164SOPE    HX18389   4.548   3.743  10.247  0.6065  0.2170 -2.5208
  164SOPE    HY18390   4.415   3.627  10.276  0.8180  0.1302  1.0947
  164SOPE   O3118391   4.533   3.593  10.105 -0.2992 -0.4672 -0.1429
  164SOPE   C3118392   4.633   3.633  10.035 -0.4884  0.4742  0.0814
  164SOPE   O3218393   4.717   3.713  10.069 -1.0288 -0.5116  0.1775
  164SOPE   C3218394   4.636   3.562   9.898  0.1764 -0.8084 -0.2283
  164SOPE   H2X18395   4.535   3.554   9.854 -0.0489 -0.4829  0.2253
  164SOPE   H2Y18396   4.670   3.458   9.920 -0.9919 -1.5401 -1.6673
  164SOPE   C2318397   4.994   3.459  10.189 -0.5860  0.4613  0.2544
  164SOPE   H3R18398   5.101   3.460  10.220 -0.4811 -0.8632 -0.0127
  164SOPE   H3S18399   4.955   3.563  10.191 -0.0651  0.6535  1.6647
  164SOPE   C2418400   4.966   3.370  10.081  0.3037 -0.3932  0.3998
  164SOPE   H4R18401   5.015   3.271  10.089 -0.7943 -0.8019  2.5430
  164SOPE   H4S18402   4.857   3.355  10.074 -0.4682  2.3425  3.8202
  164SOPE   C2518403   5.019   3.429   9.949  0.0172 -0.1911  0.2227
  164SOPE   H5R18404   4.993   3.536   9.934 -2.3475 -0.4928  1.7212
  164SOPE   H5S18405   5.130   3.431   9.954  0.0196  0.6152  0.0167
  164SOPE   C2618406   4.983   3.341   9.832 -0.2604 -0.0605 -0.0307
  164SOPE   H6R18407   5.026   3.238   9.831 -1.7612 -0.7210  0.4066
  164SOPE   H6S18408   4.874   3.343   9.813 -0.2409  0.7582 -0.1026
  164SOPE   C2718409   5.046   3.409   9.707  0.3902  0.1518  0.0375
  164SOPE   H7R18410   5.005   3.512   9.717  1.3414  0.5070  0.3552
  164SOPE   H7S18411   5.157   3.412   9.708  0.3588  1.4446  0.4304
  164SOPE   C2818412   4.995   3.331   9.582 -0.6772  0.0426  0.1176
  164SOPE   H8R18413   5.031   3.227   9.598 -0.2211  0.3171  0.9257
  164SOPE   H8S18414   4.885   3.315   9.571 -0.0724 -4.2125 -1.7463
  164SOPE   C2918415   5.061   3.377   9.456  0.1589 -0.0499  0.5547
  164SOPE   H9118416   5.088   3.483   9.454  0.8895 -0.2294  0.4749
  164SOPE  C21018417   5.067   3.303   9.345  0.6105 -0.1205 -0.6482
  164SOPE  H10118418   5.120   3.339   9.256  0.5869  2.3190  0.2584
  164SOPE  C21118419   5.014   3.163   9.328 -0.4667 -0.5971 -0.4010
  164SOPE  H11R18420   4.942   3.140   9.410  1.8934 -2.2959  1.3308
  164SOPE  H11S18421   5.093   3.086   9.334 -0.9153 -1.0192  0.2752
  164SOPE  C21218422   4.941   3.137   9.198  0.1273  0.1923 -0.0176
  164SOPE  H12R18423   4.851   3.199   9.184 -0.1425 -0.1636  0.1083
  164SOPE  H12S18424   4.905   3.032   9.207  0.1011  0.2058  0.0310
  164SOPE  C21318425   5.025   3.151   9.068  0.1335 -0.8962  0.7659
  164SOPE  H13R18426   5.109   3.082   9.092  0.9346  0.3294  1.6409
  164SOPE  H13S18427   5.086   3.244   9.071  0.5879 -1.1249 -0.6050
  164SOPE  C21418428   4.950   3.119   8.934 -0.2814 -0.0028  0.4316
  164SOPE  H14R18429   4.956   3.012   8.907  0.6009  0.2534 -0.4589
  164SOPE  H14S18430   5.009   3.159   8.849  3.1048  2.5775  3.6953
  164SOPE  C21518431   4.800   3.159   8.933  0.3268  0.3431  0.0241
  164SOPE  H15R18432   4.796   3.262   8.974  0.5521 -0.6127  2.6587
  164SOPE  H15S18433   4.737   3.098   9.001 -0.1751 -0.8918 -1.4960
  164SOPE  C21618434   4.734   3.148   8.795  0.0074  0.1377  0.0706
  164SOPE  H16R18435   4.774   3.223   8.723 -1.3678  0.8985  0.0677
  164SOPE  H16S18436   4.627   3.172   8.813  0.2203 -0.7189  2.8987
  164SOPE  C21718437   4.747   3.011   8.728 -0.1255 -0.1504  0.3796
  164SOPE  H17R18438   4.730   2.936   8.808 -0.0880  0.2620  0.7805
  164SOPE  H17S18439   4.854   2.992   8.705 -0.2718  0.6624 -1.0733
  164SOPE  C21818440   4.656   2.995   8.609  0.5218  0.1134  0.3987
  164SOPE  H18R18441   4.664   2.895   8.561  0.4455  0.1070  0.3983
  164SOPE  H18S18442   4.666   3.083   8.542  3.0494  1.5293  2.4620
  164SOPE  H18T18443   4.551   2.993   8.645 -0.1843 -0.3894 -1.5738
  164SOPE   C3318444   4.729   3.635   9.799 -0.3603  0.2552  0.5725
  164SOPE   H3X18445   4.834   3.610   9.826 -0.0731 -0.9960 -1.4980
  164SOPE   H3Y18446   4.716   3.745   9.798 -1.3011  0.1516  0.8619
  164SOPE   C3418447   4.725   3.590   9.652  0.2077 -0.0396 -0.9255
  164SOPE   H4X18448   4.617   3.593   9.629 -0.6030  1.0155  2.4266
  164SOPE   H4Y18449   4.763   3.491   9.618  1.1592 -0.7121  1.8060
  164SOPE   C3518450   4.807   3.679   9.558  0.3636 -0.7148  0.9010
  164SOPE   H5X18451   4.916   3.689   9.576  0.7170 -1.3490 -0.7155
  164SOPE   H5Y18452   4.753   3.776   9.567  0.8857 -0.5814  3.0301
  164SOPE   C3618453   4.790   3.632   9.409  0.4863 -0.1719  0.1627
  164SOPE   H6X18454   4.682   3.640   9.385  0.1754 -0.1568  1.4802
  164SOPE   H6Y18455   4.813   3.524   9.400  0.4311 -0.0660 -1.6016
  164SOPE   C3718456   4.862   3.729   9.318 -0.2348  0.2538  0.1958
  164SOPE   H7X18457   4.971   3.728   9.343  0.1155 -0.9009 -1.2505
  164SOPE   H7Y18458   4.829   3.834   9.334  0.7829  0.6580 -0.2785
  164SOPE   C3818459   4.845   3.692   9.167 -0.4076 -0.7938 -0.2292
  164SOPE   H8X18460   4.740   3.698   9.130 -0.3536  2.5412 -0.1339
  164SOPE   H8Y18461   4.869   3.585   9.148 -2.4089 -1.7775  2.1927
  164SOPE   C3918462   4.907   3.796   9.078 -0.1957 -0.2078  0.1524
  164SOPE   H9X18463   4.846   3.887   9.062 -0.0027 -0.1826 -0.4470
  164SOPE   H9Y18464   4.917   3.759   8.974  0.6901  1.9067 -0.5654
  164SOPE  C31018465   5.051   3.835   9.124 -0.8105 -0.5510 -0.0788
  164SOPE  H10X18466   5.112   3.746   9.151 -0.6015  0.0609  1.5893
  164SOPE  H10Y18467   5.056   3.909   9.207  1.5943 -0.3675 -0.3182
  164SOPE  C31118468   5.136   3.904   9.016  0.0128 -0.9399 -0.7764
  164SOPE  H11X18469   5.117   3.869   8.912 -1.4283 -2.4001 -0.0729
  164SOPE  H11Y18470   5.242   3.882   9.040 -0.2013 -1.8013 -0.5744
  164SOPE  C31218471   5.122   4.055   9.025 -0.6093 -0.1634  0.5874
  164SOPE  H12X18472   5.128   4.091   9.130  0.6825  2.6200 -0.3343
  164SOPE  H12Y18473   5.028   4.080   8.971  1.1184  0.4372 -2.3837
  164SOPE  C31318474   5.239   4.116   8.944 -0.0212  1.1280 -0.3506
  164SOPE  H13X18475   5.243   4.043   8.860  3.3989  0.4822  0.2377
  164SOPE  H13Y18476   5.339   4.100   8.989 -0.3112  0.9962  0.2543
  164SOPE  C31418477   5.215   4.262   8.918  0.7712 -0.0653  0.1621
  164SOPE  H14X18478   5.210   4.317   9.014  1.9935  0.2251  0.0807
  164SOPE  H14Y18479   5.113   4.280   8.878  0.6884 -0.3006  0.2683
  164SOPE  C31518480   5.317   4.324   8.823  0.6195  0.3659 -0.3521
  164SOPE  H15X18481   5.311   4.281   8.721 -0.7277  1.3613 -0.7370
  164SOPE  H15Y18482   5.411   4.308   8.879 -0.1224  0.8725  1.1140
  164SOPE  C31618483   5.307   4.476   8.801 -0.0883 -0.1181 -0.2180
  164SOPE  H16X18484   5.410   4.511   8.782  0.9852 -2.3883  1.0294
  164SOPE  H16Y18485   5.278   4.530   8.894 -2.4766 -0.2273 -0.8349
  164SOPE  C31718486   5.216   4.536   8.692 -0.2811 -0.1970 -0.8603
  164SOPE  H17X18487   5.112   4.549   8.727  0.4744  1.2336  1.0459
  164SOPE  H17Y18488   5.211   4.466   8.606 -0.4231  0.7731 -1.6576
  164SOPE  C31818489   5.253   4.678   8.645  0.6382  0.1384  0.3830
  164SOPE  H18X18490   5.172   4.722   8.583 -0.1049 -2.1848 -0.3968
  164SOPE  H18Y18491   5.336   4.681   8.571 -0.1267  0.4422 -0.4827
  164SOPE  H18Z18492   5.266   4.744   8.734  0.6215 -0.9928  1.2515
  165SOPE     N18493   2.665   4.488  10.777  0.2665 -0.2057  0.0755
  165SOPE   HN118494   2.752   4.435  10.800 -1.2612 -2.4811  0.9751
  165SOPE   HN218495   2.647   4.489  10.675 -0.7594 -0.8681  0.2340
  165SOPE   HN318496   2.671   4.585  10.814  0.5833  0.4883 -1.6908
  165SOPE   C1218497   2.545   4.414  10.836 -0.2527 -0.1035 -0.3665
  165SOPE  H12A18498   2.469   4.495  10.828  1.4503  1.4196 -2.1216
  165SOPE  H12B18499   2.561   4.400  10.945  2.2308  2.6936 -0.2447
  165SOPE   C1118500   2.513   4.291  10.750 -0.0386  0.9786  0.0129
  165SOPE  H11A18501   2.459   4.331  10.661 -1.0304  0.9009  0.5594
  165SOPE  H11B18502   2.435   4.226  10.796 -3.2580  3.3714 -1.5771
  165SOPE     P18503   2.686   4.095  10.788 -0.2987  0.2059 -0.1301
  165SOPE   O1318504   2.579   4.052  10.881 -0.1472 -0.6398  0.6309
  165SOPE   O1418505   2.809   4.135  10.854 -0.1037  0.0359 -0.0104
  165SOPE   O1218506   2.633   4.222  10.701 -0.4694 -0.3268 -0.2201
  165SOPE   O1118507   2.738   3.984  10.699 -0.2912 -0.5272  0.2818
  165SOPE    C118508   2.726   3.999  10.555  0.9102 -0.6279  0.0809
  165SOPE    HA18509   2.820   3.961  10.510 -0.1571 -2.1148 -0.9740
  165SOPE    HB18510   2.720   4.106  10.525 -1.1347 -1.4182 -2.7573
  165SOPE    C218511   2.610   3.913  10.502 -0.3302  0.6661  0.2616
  165SOPE    HS18512   2.644   3.891  10.398 -0.3541 -1.5572  0.6735
  165SOPE   O2118513   2.487   3.984  10.505  0.2962 -0.6309  0.0882
  165SOPE   C2118514   2.481   4.090  10.412 -0.0790 -0.1360 -0.3371
  165SOPE   O2218515   2.576   4.124  10.344 -0.3318 -0.5674  0.0844
  165SOPE   C2218516   2.345   4.154  10.423 -0.1662  0.3359  0.5889
  165SOPE   H2R18517   2.345   4.255  10.470 -0.7520  1.2465 -1.2908
  165SOPE   H2S18518   2.287   4.085  10.487 -0.1200  0.7253  1.0626
  165SOPE    C318519   2.596   3.773  10.577  0.6947 -0.5061  0.2639
  165SOPE    HX18520   2.554   3.786  10.679 -1.1069  0.9204 -0.6130
  165SOPE    HY18521   2.697   3.727  10.589  0.4444 -0.8674  1.0800
  165SOPE   O3118522   2.520   3.683  10.495 -0.2368  0.8854  0.3698
  165SOPE   C3118523   2.390   3.677  10.520  0.0634 -0.0154 -1.0829
  165SOPE   O3218524   2.333   3.730  10.618 -0.3020  0.5720  0.5651
  165SOPE   C3218525   2.312   3.599  10.410  0.1373 -0.3672  0.7751
  165SOPE   H2X18526   2.283   3.496  10.442  1.8472 -0.9190  0.6577
  165SOPE   H2Y18527   2.382   3.587  10.325  1.3046  1.1898  1.4526
  165SOPE   C2318528   2.291   4.186  10.289 -0.2213 -0.3269 -0.5075
  165SOPE   H3R18529   2.351   4.264  10.238 -1.3166  0.9169  0.0459
  165SOPE   H3S18530   2.190   4.231  10.303 -1.0978 -3.0916  4.6670
  165SOPE   C2418531   2.273   4.062  10.201  1.0670 -0.7231  0.7608
  165SOPE   H4R18532   2.373   4.021  10.176 -0.0027 -2.5691 -0.7720
  165SOPE   H4S18533   2.216   3.990  10.263 -1.4109  1.5002  1.2561
  165SOPE   C2518534   2.200   4.087  10.063 -0.9302 -0.0019 -0.1941
  165SOPE   H5R18535   2.100   4.133  10.079 -0.9067  0.0242 -0.1255
  165SOPE   H5S18536   2.259   4.168  10.014  0.3475 -1.2807 -0.8581
  165SOPE   C2618537   2.191   3.956   9.982 -0.2090  0.4237 -0.0450
  165SOPE   H6R18538   2.279   3.891   9.997  0.1359  1.1213  0.9964
  165SOPE   H6S18539   2.103   3.899  10.021 -0.4187 -0.2571 -1.4306
  165SOPE   C2718540   2.156   3.966   9.835  0.3439  0.5132  0.3364
  165SOPE   H7R18541   2.128   3.869   9.789  1.1407 -0.4701  1.8220
  165SOPE   H7S18542   2.069   4.033   9.821 -0.0177 -0.1232 -0.6035
  165SOPE   C2818543   2.262   4.048   9.757  0.2700  0.1760 -0.6249
  165SOPE   H8R18544   2.225   4.063   9.653 -5.3204 -1.3746  0.8135
  165SOPE   H8S18545   2.271   4.149   9.803 -0.0144 -0.5912  1.2044
  165SOPE   C2918546   2.392   3.972   9.753 -0.2368 -0.8950  0.0937
  165SOPE   H9118547   2.456   3.996   9.839 -2.1435 -1.7223  1.8392
  165SOPE  C21018548   2.422   3.876   9.669 -0.0201 -0.7244  0.1913
  165SOPE  H10118549   2.517   3.824   9.690  1.1483  0.8232 -0.9875
  165SOPE  C21118550   2.326   3.817   9.565 -0.0739 -0.4051  0.3088
  165SOPE  H11R18551   2.221   3.854   9.569 -0.0407 -0.3177  0.3669
  165SOPE  H11S18552   2.309   3.710   9.588  0.0530 -0.3715  0.5533
  165SOPE  C21218553   2.364   3.824   9.413 -0.4463 -0.6016 -0.3618
  165SOPE  H12R18554   2.407   3.923   9.387 -1.4735  0.9371  3.2295
  165SOPE  H12S18555   2.279   3.820   9.341  0.1944 -3.0746 -1.0869
  165SOPE  C21318556   2.457   3.712   9.369  0.4594  0.1769  0.2106
  165SOPE  H13R18557   2.414   3.622   9.417 -0.7680  1.8090  2.3727
  165SOPE  H13S18558   2.559   3.734   9.406 -0.0699 -0.1869  1.9836
  165SOPE  C21418559   2.476   3.711   9.213  0.4496 -0.0100 -0.0272
  165SOPE  H14R18560   2.526   3.806   9.185 -0.9207  0.9468  0.6322
  165SOPE  H14S18561   2.378   3.718   9.161  0.9786  0.6136 -0.9613
  165SOPE  C21518562   2.562   3.596   9.159  0.1108 -0.4584  0.8236
  165SOPE  H15R18563   2.516   3.503   9.198  1.5167 -0.9383  1.4424
  165SOPE  H15S18564   2.661   3.593   9.211  0.8682  1.7997 -0.3300
  165SOPE  C21618565   2.578   3.599   9.011  0.2519 -0.3813  0.2259
  165SOPE  H16R18566   2.624   3.696   8.985 -1.3244  0.8884  1.8985
  165SOPE  H16S18567   2.478   3.589   8.964  1.4580  1.7352 -3.0978
  165SOPE  C21718568   2.660   3.486   8.953  0.5574  0.4120  0.0150
  165SOPE  H17R18569   2.648   3.487   8.842 -1.0212 -2.4217  0.0535
  165SOPE  H17S18570   2.630   3.384   8.984  0.5192  0.6882  0.9324
  165SOPE  C21818571   2.810   3.488   8.982  0.0634 -0.8763  0.2433
  165SOPE  H18R18572   2.835   3.449   9.083  0.1746 -0.3013  0.4451
  165SOPE  H18S18573   2.840   3.595   8.971 -0.0403 -0.6984  1.4974
  165SOPE  H18T18574   2.879   3.440   8.910  2.9283  2.9984  0.0709
  165SOPE   C3318575   2.186   3.678  10.366  0.6560 -0.2000 -0.3876
  165SOPE   H3X18576   2.201   3.768  10.303 -1.5150 -0.6729 -1.6930
  165SOPE   H3Y18577   2.131   3.720  10.453  0.3361  2.1920 -1.6724
  165SOPE   C3418578   2.073   3.593  10.293 -0.3163 -0.0501  0.1419
  165SOPE   H4X18579   1.978   3.648  10.276 -1.0576 -1.2010  0.3984
  165SOPE   H4Y18580   2.054   3.511  10.366  1.5618 -0.4441  0.2478
  165SOPE   C3518581   2.130   3.537  10.158  0.6126 -0.5365 -0.0191
  165SOPE   H5X18582   2.232   3.499  10.184  0.3419 -0.2927  1.4860
  165SOPE   H5Y18583   2.130   3.619  10.084  0.3299 -1.3308 -0.9152
  165SOPE   C3618584   2.050   3.420  10.101 -0.1463  0.5967  0.1476
  165SOPE   H6X18585   1.940   3.441  10.102 -0.2972  0.3484 -2.7603
  165SOPE   H6Y18586   2.074   3.332  10.164  0.6940  0.1113 -0.8176
  165SOPE   C3718587   2.077   3.384   9.952 -0.1620 -0.4235  0.1000
  165SOPE   H7X18588   2.055   3.278   9.928 -0.4912 -0.2830 -0.2473
  165SOPE   H7Y18589   2.184   3.409   9.936 -0.8117  3.1093  0.3496
  165SOPE   C3818590   1.977   3.464   9.864  0.4630  1.3916 -0.3583
  165SOPE   H8X18591   2.007   3.571   9.865  2.0167  0.9966  1.1236
  165SOPE   H8Y18592   1.878   3.453   9.912  2.0954  1.3249  3.3487
  165SOPE   C3918593   1.988   3.420   9.719 -0.1450  0.8482  0.3097
  165SOPE   H9X18594   1.908   3.477   9.666 -1.0679  0.9800  1.7746
  165SOPE   H9Y18595   1.967   3.311   9.715  2.6326  0.2783 -0.3081
  165SOPE  C31018596   2.129   3.433   9.660  0.3142 -0.8066  0.4178
  165SOPE  H10X18597   2.181   3.351   9.714  1.8993 -0.7945 -1.0191
  165SOPE  H10Y18598   2.178   3.528   9.688  0.0936 -0.5307 -0.1172
  165SOPE  C31118599   2.126   3.421   9.509 -0.0311  0.2980 -0.1951
  165SOPE  H11X18600   2.071   3.327   9.484  2.4014 -1.6410  1.2414
  165SOPE  H11Y18601   2.222   3.425   9.454 -1.7400  0.7178 -3.3887
  165SOPE  C31218602   2.048   3.538   9.446  0.2544 -0.8487  0.6312
  165SOPE  H12X18603   2.087   3.635   9.485 -1.9899 -0.3208  1.6837
  165SOPE  H12Y18604   1.940   3.533   9.469 -0.2154 -0.7906 -1.3410
  165SOPE  C31318605   2.066   3.560   9.296 -0.3528  0.1869 -1.0850
  165SOPE  H13X18606   2.035   3.464   9.248  0.5622  0.6246 -2.6214
  165SOPE  H13Y18607   2.173   3.570   9.267  0.6207 -0.9984  1.6904
  165SOPE  C31418608   1.974   3.669   9.240 -0.8404  0.0693  0.0308
  165SOPE  H14X18609   1.987   3.769   9.288 -0.8880  0.0491  0.0854
  165SOPE  H14Y18610   1.871   3.647   9.275 -0.4332 -0.8376  0.7002
  165SOPE  C31518611   1.978   3.673   9.084 -0.0705 -0.2789  0.1276
  165SOPE  H15X18612   1.977   3.574   9.035 -0.8067 -0.0158 -0.4001
  165SOPE  H15Y18613   2.079   3.694   9.043 -0.2253  0.3163  0.0437
  165SOPE  C31618614   1.874   3.768   9.029 -0.2469 -0.2207  0.1013
  165SOPE  H16X18615   1.892   3.868   9.074 -3.6938 -0.1298  1.6634
  165SOPE  H16Y18616   1.776   3.737   9.073 -0.6847 -1.1010 -1.4409
  165SOPE  C31718617   1.862   3.771   8.875 -0.4596  0.4392 -0.3418
  165SOPE  H17X18618   1.792   3.851   8.843 -0.1228  0.9859  0.2594
  165SOPE  H17Y18619   1.824   3.671   8.846 -0.9161  0.1709  1.0981
  165SOPE  C31818620   1.994   3.815   8.795  0.6563 -0.5761  0.2474
  165SOPE  H18X18621   2.007   3.925   8.791  2.8028 -0.7747  0.9013
  165SOPE  H18Y18622   1.965   3.786   8.691  1.6721  1.5539 -0.6791
  165SOPE  H18Z18623   2.087   3.770   8.835  0.1859 -0.2417  1.7668
  166SOPE     N18624   0.586   3.503  11.069 -0.1500  0.2301 -0.2348
  166SOPE   HN118625   0.504   3.500  11.006  1.0450 -1.9789 -1.8322
  166SOPE   HN218626   0.584   3.420  11.132  1.1826 -1.9837 -2.9049
  166SOPE   HN318627   0.578   3.585  11.132 -0.5764  0.0919 -0.1017
  166SOPE   C1218628   0.709   3.511  10.987 -0.1239  0.0478  0.2810
  166SOPE  H12A18629   0.723   3.414  10.935 -1.1290 -0.0967  0.2665
  166SOPE  H12B18630   0.794   3.533  11.055  0.4929  0.8190 -0.6974
  166SOPE   C1118631   0.695   3.633  10.892  0.0397  0.1665  0.7053
  166SOPE  H11A18632   0.611   3.629  10.820 -0.1644  1.1640  0.8766
  166SOPE  H11B18633   0.787   3.624  10.830  0.4562 -1.3234  1.4873
  166SOPE     P18634   0.806   3.852  10.963  0.1466  0.0077 -0.4008
  166SOPE   O1318635   0.926   3.814  11.034 -0.4713 -0.7711 -0.3920
  166SOPE   O1418636   0.742   3.978  11.001 -0.5788  0.4951  0.1624
  166SOPE   O1218637   0.694   3.746  10.973 -0.0159 -0.3472 -0.0974
  166SOPE   O1118638   0.836   3.859  10.807 -0.3055 -0.0811  0.2491
  166SOPE    C118639   0.724   3.908  10.726  0.9257  0.6512  0.1075
  166SOPE    HA18640   0.690   4.005  10.768 -1.5155  1.1285 -2.6771
  166SOPE    HB18641   0.636   3.840  10.722  0.5090  1.0054  2.0967
  166SOPE    C218642   0.761   3.938  10.568  1.1647 -0.6154  0.1275
  166SOPE    HS18643   0.676   3.995  10.525  1.4805  0.5472  0.9825
  166SOPE   O2118644   0.760   3.811  10.506 -0.2521  0.3637 -0.5928
  166SOPE   C2118645   0.652   3.751  10.466  0.5085  0.2781  0.0191
  166SOPE   O2218646   0.538   3.793  10.478 -0.3693 -0.0187 -0.4776
  166SOPE   C2218647   0.679   3.609  10.408 -0.0380  0.1110 -0.0699
  166SOPE   H2R18648   0.610   3.545  10.468  2.3912 -0.7026  2.0696
  166SOPE   H2S18649   0.785   3.585  10.430  0.3995 -1.2467 -3.1191
  166SOPE    C318650   0.894   4.004  10.547  0.0478 -0.3033 -0.0520
  166SOPE    HX18651   0.964   3.943  10.609  2.5184  3.2532  1.0175
  166SOPE    HY18652   0.890   4.107  10.588 -1.4924  0.1186 -1.1740
  166SOPE   O3118653   0.928   3.990  10.409 -0.7321  0.4274 -0.2486
  166SOPE   C3118654   0.915   4.107  10.344 -0.3974 -0.2197  0.1606
  166SOPE   O3218655   0.887   4.214  10.398  0.0074  0.2201 -0.5432
  166SOPE   C3218656   0.943   4.090  10.196 -1.3241 -0.4524 -0.0710
  166SOPE   H2X18657   0.853   4.069  10.135 -0.5027  1.3466 -2.0214
  166SOPE   H2Y18658   1.007   4.001  10.179 -3.7413 -2.2611 -0.1269
  166SOPE   C2318659   0.645   3.604  10.257 -0.1637 -0.7259  0.3384
  166SOPE   H3R18660   0.533   3.606  10.255 -0.1643  1.2065  0.4275
  166SOPE   H3S18661   0.675   3.503  10.221  1.6959 -0.0823 -0.0048
  166SOPE   C2418662   0.711   3.705  10.173  0.2384  0.3074  0.4555
  166SOPE   H4R18663   0.675   3.809  10.188  1.7662  1.1030 -1.1459
  166SOPE   H4S18664   0.817   3.712  10.204 -0.1256 -0.2023  1.8832
  166SOPE   C2518665   0.708   3.665  10.026 -0.0653  0.0742  0.4387
  166SOPE   H5R18666   0.774   3.578  10.005  1.0803  0.6476  1.5612
  166SOPE   H5S18667   0.604   3.634  10.003 -0.7156  1.8938  0.7970
  166SOPE   C2618668   0.753   3.785   9.942  0.2160  0.0764  0.3801
  166SOPE   H6R18669   0.701   3.876   9.978 -1.7215 -1.2205  1.0125
  166SOPE   H6S18670   0.855   3.818   9.972 -0.2451  0.8832  1.0907
  166SOPE   C2718671   0.729   3.772   9.790 -0.2093  0.2612  0.0264
  166SOPE   H7R18672   0.619   3.778   9.780 -0.3880 -0.4044  1.3597
  166SOPE   H7S18673   0.777   3.863   9.747  2.0669 -0.8115  0.1279
  166SOPE   C2818674   0.792   3.651   9.717  0.8653 -0.0851  0.2858
  166SOPE   H8R18675   0.900   3.664   9.741  0.4148  0.4738  2.1852
  166SOPE   H8S18676   0.753   3.557   9.762  0.9403  0.7596  2.2295
  166SOPE   C2918677   0.792   3.654   9.562 -0.1064 -0.4855  0.0516
  166SOPE   H9118678   0.727   3.572   9.528 -0.6446 -0.5353  1.1530
  166SOPE  C21018679   0.849   3.745   9.489  0.1537 -0.1259 -0.2467
  166SOPE  H10118680   0.830   3.746   9.380  1.1828 -0.8020 -0.4461
  166SOPE  C21118681   0.933   3.868   9.529 -0.1332  0.0245 -0.6818
  166SOPE  H11R18682   0.967   3.852   9.633 -0.0144  0.2098 -0.6910
  166SOPE  H11S18683   0.878   3.965   9.530 -1.8593 -0.8982 -0.8457
  166SOPE  C21218684   1.053   3.881   9.433 -0.4751  0.5253 -0.0279
  166SOPE  H12R18685   1.111   3.788   9.449 -3.0499 -1.1761 -0.0248
  166SOPE  H12S18686   1.118   3.968   9.459 -0.0786  0.5172 -0.9819
  166SOPE  C21318687   1.013   3.907   9.287  0.0488  0.5356  0.5407
  166SOPE  H13R18688   0.928   3.978   9.295 -1.4829 -1.3563  2.1599
  166SOPE  H13S18689   0.974   3.809   9.252 -0.0452 -0.3227  2.8768
  166SOPE  C21418690   1.119   3.958   9.190  0.3947  0.1361  0.1703
  166SOPE  H14R18691   1.201   3.883   9.187 -1.2082 -1.6754 -0.1545
  166SOPE  H14S18692   1.152   4.053   9.237 -1.6288  1.4583 -0.9409
  166SOPE  C21518693   1.062   3.987   9.051 -0.3103  0.2015  0.7370
  166SOPE  H15R18694   1.150   3.991   8.982 -0.2569 -1.6335  0.6522
  166SOPE  H15S18695   1.007   4.082   9.067 -0.6038  0.6193 -2.1599
  166SOPE  C21618696   0.950   3.899   8.994  0.7675 -0.5258  0.1362
  166SOPE  H16R18697   0.875   3.893   9.076 -1.2400  1.5947 -1.4014
  166SOPE  H16S18698   0.973   3.790   8.986 -4.5126 -1.8787 -0.9606
  166SOPE  C21718699   0.892   3.953   8.862 -0.5365  0.3535  0.1529
  166SOPE  H17R18700   0.965   3.932   8.782 -1.6807 -0.5397 -0.6996
  166SOPE  H17S18701   0.890   4.063   8.880 -1.1362  0.4097 -0.2098
  166SOPE  C21818702   0.752   3.903   8.821  0.5892 -0.0609  0.1704
  166SOPE  H18R18703   0.742   3.925   8.712  1.2396 -0.2560  0.0686
  166SOPE  H18S18704   0.678   3.970   8.870 -0.2884 -1.1643  0.4040
  166SOPE  H18T18705   0.725   3.797   8.842  1.9477 -0.7173 -1.1719
  166SOPE   C3318706   1.010   4.216  10.133  0.5343  0.7303  0.3873
  166SOPE   H3X18707   1.118   4.222  10.159  0.6093  1.8854 -0.1085
  166SOPE   H3Y18708   0.965   4.314  10.160 -0.7606 -0.2523  2.0446
  166SOPE   C3418709   0.986   4.200   9.979 -0.0797 -0.2460 -0.1612
  166SOPE   H4X18710   0.879   4.193   9.950  0.0835 -1.1030 -0.5700
  166SOPE   H4Y18711   1.025   4.097   9.971  1.1476  0.1352  0.6201
  166SOPE   C3518712   1.064   4.299   9.887 -0.1458  0.3412 -0.5252
  166SOPE   H5X18713   1.168   4.281   9.920 -1.4108 -3.6931  1.9951
  166SOPE   H5Y18714   1.028   4.399   9.920  0.5274  0.0173  1.3353
  166SOPE   C3618715   1.034   4.279   9.736  0.3773 -0.6845  0.0869
  166SOPE   H6X18716   0.925   4.273   9.719  0.2155  0.0955  0.8465
  166SOPE   H6Y18717   1.071   4.178   9.707 -1.0649 -0.9244 -0.9989
  166SOPE   C3718718   1.090   4.398   9.655  0.7553 -0.0635  0.1875
  166SOPE   H7X18719   1.200   4.404   9.668  0.9999 -1.0673 -1.2067
  166SOPE   H7Y18720   1.030   4.487   9.682 -1.4094 -1.1882 -0.6277
  166SOPE   C3818721   1.068   4.377   9.501  0.5540  0.4030 -0.1220
  166SOPE   H8X18722   0.966   4.350   9.465  0.4361 -0.3158  0.7144
  166SOPE   H8Y18723   1.123   4.286   9.469  1.1122  0.4144  0.7764
  166SOPE   C3918724   1.125   4.496   9.422 -0.2532  0.1029  0.3451
  166SOPE   H9X18725   1.236   4.493   9.418 -0.2702 -2.0351  0.5309
  166SOPE   H9Y18726   1.090   4.597   9.453  0.3966  0.9957 -1.6284
  166SOPE  C31018727   1.086   4.486   9.271  0.9631 -0.6066  0.3919
  166SOPE  H10X18728   1.100   4.588   9.230 -2.8489 -0.0203  0.2586
  166SOPE  H10Y18729   0.982   4.449   9.259  0.7609 -1.3423  3.4678
  166SOPE  C31118730   1.165   4.393   9.186  0.2117 -0.1105  0.1810
  166SOPE  H11X18731   1.151   4.287   9.217 -1.3744 -0.3690 -1.2574
  166SOPE  H11Y18732   1.274   4.411   9.189  0.0099  2.3336 -2.4762
  166SOPE  C31218733   1.131   4.414   9.043  0.2115 -0.5364 -0.0685
  166SOPE  H12X18734   1.203   4.357   8.981 -0.3456 -2.1174  0.6864
  166SOPE  H12Y18735   1.157   4.518   9.012  0.4334 -0.4617  0.3501
  166SOPE  C31318736   0.990   4.380   8.998 -0.2475  0.4008  0.1801
  166SOPE  H13X18737   0.920   4.439   9.061  0.8140 -0.9775  2.8127
  166SOPE  H13Y18738   0.967   4.273   9.015  0.6263  0.0321 -0.8845
  166SOPE  C31418739   0.973   4.413   8.851 -0.0208  0.2387  0.3815
  166SOPE  H14X18740   1.065   4.370   8.805 -0.5607 -2.1958  1.4222
  166SOPE  H14Y18741   0.965   4.524   8.858 -1.1076  0.0844  2.4093
  166SOPE  C31518742   0.847   4.353   8.770 -0.4990  0.2521 -0.3189
  166SOPE  H15X18743   0.879   4.252   8.734  1.7834  1.4112 -1.7955
  166SOPE  H15Y18744   0.826   4.415   8.681 -1.2415 -0.4637 -0.6540
  166SOPE  C31618745   0.722   4.334   8.862  0.6619  0.1712  0.5201
  166SOPE  H16X18746   0.694   4.418   8.929 -1.4165  0.3442 -0.4885
  166SOPE  H16Y18747   0.741   4.255   8.938  0.1872 -0.5213 -0.0601
  166SOPE  C31718748   0.603   4.294   8.779  0.2300  0.1241  0.5744
  166SOPE  H17X18749   0.614   4.188   8.749 -0.5375  0.1080  0.3403
  166SOPE  H17Y18750   0.603   4.347   8.681  1.0921 -0.5595  0.1873
  166SOPE  C31818751   0.468   4.307   8.851 -0.9683 -0.0653  0.1986
  166SOPE  H18X18752   0.454   4.417   8.863  0.2872  0.2837 -1.1579
  166SOPE  H18Y18753   0.470   4.244   8.942  0.9884 -0.7776 -0.2865
  166SOPE  H18Z18754   0.384   4.263   8.793  0.0506 -2.2723  0.3071
  167SOPE     N18755   5.906   1.833   6.124  0.3653 -0.0852  0.5751
  167SOPE   HN118756   6.003   1.823   6.087  0.3407 -0.9095  0.7303
  167SOPE   HN218757   5.897   1.843   6.227  0.1536 -1.1203  0.6643
  167SOPE   HN318758   5.864   1.741   6.104  2.4931 -0.8342 -0.7999
  167SOPE   C1218759   5.818   1.927   6.051 -0.4460 -0.5035 -0.7674
  167SOPE  H12A18760   5.842   1.907   5.944 -1.3959 -0.6718 -0.9576
  167SOPE  H12B18761   5.861   2.024   6.085 -0.1555 -0.5996 -0.8570
  167SOPE   C1118762   5.671   1.894   6.081 -0.1666 -0.3156 -0.0454
  167SOPE  H11A18763   5.613   1.963   6.017  1.3063 -0.5262 -1.6665
  167SOPE  H11B18764   5.657   1.933   6.185  2.2771 -0.1086  0.2583
  167SOPE     P18765   5.609   1.639   6.161 -0.3767 -0.1311  0.0593
  167SOPE   O1318766   5.731   1.638   6.251  0.0611 -0.4804 -0.0133
  167SOPE   O1418767   5.575   1.516   6.086  0.0504  0.0284  0.0922
  167SOPE   O1218768   5.643   1.757   6.054 -0.2567  0.1495 -0.8664
  167SOPE   O1118769   5.473   1.693   6.222  0.2643  0.0497  0.0909
  167SOPE    C118770   5.375   1.613   6.284 -0.0944 -0.5287 -0.0101
  167SOPE    HA18771   5.419   1.515   6.311  1.1611 -0.2109 -0.8062
  167SOPE    HB18772   5.289   1.601   6.214 -1.4169 -1.5036  1.6961
  167SOPE    C218773   5.319   1.673   6.412 -0.5462  0.3936 -0.4363
  167SOPE    HS18774   5.251   1.603   6.466 -3.0140  1.8187 -1.5052
  167SOPE   O2118775   5.254   1.799   6.384  0.3252 -0.1187  0.1501
  167SOPE   C2118776   5.148   1.815   6.461 -0.1342 -0.7997  0.1731
  167SOPE   O2218777   5.093   1.727   6.518  0.1663 -0.0665 -0.2212
  167SOPE   C2218778   5.107   1.966   6.463 -1.4717  0.6716  0.4963
  167SOPE   H2R18779   5.079   1.995   6.359  1.4760 -0.1027 -0.6149
  167SOPE   H2S18780   5.199   2.021   6.491 -1.6027  0.6895  0.8954
  167SOPE    C318781   5.435   1.694   6.521 -0.1438  0.9284  0.5418
  167SOPE    HX18782   5.503   1.775   6.486  1.5931  0.8998  3.4923
  167SOPE    HY18783   5.500   1.604   6.534 -0.5854  0.7485  1.6228
  167SOPE   O3118784   5.378   1.737   6.648  0.8643  0.4423  0.6860
  167SOPE   C3118785   5.338   1.638   6.727  0.3652 -0.5221 -0.6949
  167SOPE   O3218786   5.326   1.523   6.710  0.0134  0.5113  0.4536
  167SOPE   C3218787   5.340   1.701   6.872  0.8307  0.0674 -0.5543
  167SOPE   H2X18788   5.306   1.807   6.869  1.8575  0.3904 -1.2210
  167SOPE   H2Y18789   5.447   1.701   6.902  0.6532 -0.9533  0.1516
  167SOPE   C2318790   5.006   2.022   6.566 -0.2810 -1.0473 -0.0452
  167SOPE   H3R18791   4.905   1.975   6.559 -0.5019 -0.5856 -0.0220
  167SOPE   H3S18792   4.992   2.129   6.541 -0.9678 -0.3453  2.9450
  167SOPE   C2418793   5.043   2.005   6.711  0.3492  0.0813  0.1726
  167SOPE   H4R18794   4.949   2.016   6.769 -1.7175 -3.3345 -2.1354
  167SOPE   H4S18795   5.081   1.902   6.730  3.8244  0.5629 -3.0731
  167SOPE   C2518796   5.155   2.105   6.757  0.8847 -0.2085  0.2053
  167SOPE   H5R18797   5.242   2.085   6.690 -0.3059  2.5466 -2.4214
  167SOPE   H5S18798   5.105   2.201   6.734 -1.7255 -1.4527  0.2953
  167SOPE   C2618799   5.205   2.098   6.899  0.4004  0.1333 -0.4877
  167SOPE   H6R18800   5.254   2.000   6.915  1.3047  0.8320  1.3526
  167SOPE   H6S18801   5.284   2.171   6.928  1.2736 -1.3533  1.1450
  167SOPE   C2718802   5.084   2.103   7.000  0.1629  0.5696  0.1590
  167SOPE   H7R18803   5.013   2.179   6.959  0.8834  0.3593 -1.5811
  167SOPE   H7S18804   5.038   2.002   6.998  0.6041  0.3557  0.7535
  167SOPE   C2818805   5.132   2.143   7.137 -0.2846  0.1251  0.5191
  167SOPE   H8R18806   5.224   2.089   7.168  1.6864  2.1987 -1.3846
  167SOPE   H8S18807   5.180   2.242   7.120  0.9163 -0.6816 -1.0463
  167SOPE   C2918808   5.028   2.134   7.256 -0.9129 -0.5177  0.3774
  167SOPE   H9118809   4.927   2.137   7.212 -0.6653 -4.1490 -0.8006
  167SOPE  C21018810   5.054   2.121   7.382  1.2076  0.3340  0.3136
  167SOPE  H10118811   4.978   2.135   7.460  0.8521  0.6215 -0.0804
  167SOPE  C21118812   5.190   2.116   7.454 -0.2494 -0.7468 -0.6886
  167SOPE  H11R18813   5.258   2.184   7.400 -0.4828  0.6305  0.6743
  167SOPE  H11S18814   5.231   2.013   7.462  1.5673 -0.1298 -1.5082
  167SOPE  C21218815   5.179   2.163   7.602 -0.6173  0.5486  0.0585
  167SOPE  H12R18816   5.136   2.073   7.652  1.1480  0.9004  2.3767
  167SOPE  H12S18817   5.110   2.250   7.599  0.1082  1.1060 -1.5666
  167SOPE  C21318818   5.322   2.204   7.650 -0.4327 -0.1549  0.1734
  167SOPE  H13R18819   5.369   2.248   7.560 -0.0922 -1.4299 -0.3010
  167SOPE  H13S18820   5.385   2.113   7.658  0.9940  0.8033  0.1032
  167SOPE  C21418821   5.339   2.300   7.766 -0.1266  0.2817  0.4655
  167SOPE  H14R18822   5.301   2.397   7.728 -0.7798  0.4652  1.5558
  167SOPE  H14S18823   5.448   2.309   7.786 -0.1854  0.3858  0.7452
  167SOPE  C21518824   5.252   2.273   7.885  0.9041 -0.5792 -0.4548
  167SOPE  H15R18825   5.260   2.168   7.920 -1.1917 -1.1945 -1.6107
  167SOPE  H15S18826   5.143   2.287   7.872  0.9957  2.3616  1.3160
  167SOPE  C21618827   5.286   2.360   8.000  0.1339  0.0750  0.1440
  167SOPE  H16R18828   5.270   2.468   7.982 -1.1573 -0.3479 -1.5306
  167SOPE  H16S18829   5.395   2.355   8.018  0.3022  1.4080 -0.3996
  167SOPE  C21718830   5.202   2.311   8.123  0.1799 -0.6388  0.4934
  167SOPE  H17R18831   5.198   2.200   8.117 -2.0228 -0.5838  0.1888
  167SOPE  H17S18832   5.093   2.331   8.115  0.5299  1.1158 -0.6356
  167SOPE  C21818833   5.239   2.389   8.250 -0.3849 -0.1669  0.5115
  167SOPE  H18R18834   5.346   2.376   8.276 -0.4207  0.4472  0.9721
  167SOPE  H18S18835   5.184   2.356   8.341  1.4328 -2.2120  0.9780
  167SOPE  H18T18836   5.233   2.499   8.243  0.8158 -0.0634  0.9680
  167SOPE   C3318837   5.251   1.623   6.965 -0.2645  0.4733 -0.1299
  167SOPE   H3X18838   5.288   1.519   6.979 -1.3550  0.4132  3.0027
  167SOPE   H3Y18839   5.153   1.599   6.917  0.5602 -0.2974 -1.5045
  167SOPE   C3418840   5.240   1.689   7.100 -0.4654  1.0778  0.3657
  167SOPE   H4X18841   5.196   1.612   7.167 -1.4101 -2.1263 -3.5804
  167SOPE   H4Y18842   5.184   1.785   7.091 -2.1752  0.0558 -0.5573
  167SOPE   C3518843   5.370   1.738   7.163  0.1053  0.2129  0.7790
  167SOPE   H5X18844   5.415   1.825   7.111  0.9239 -0.5797  0.1298
  167SOPE   H5Y18845   5.446   1.657   7.154  0.0236  0.1410  0.7306
  167SOPE   C3618846   5.354   1.757   7.314  0.0917 -0.1484  0.0531
  167SOPE   H6X18847   5.276   1.835   7.321  1.0652  0.9814 -1.2417
  167SOPE   H6Y18848   5.451   1.805   7.341  0.3902 -0.0340 -1.1540
  167SOPE   C3718849   5.332   1.634   7.411  0.1284  0.0687  0.2231
  167SOPE   H7X18850   5.401   1.554   7.379 -0.9341 -0.8464  0.1419
  167SOPE   H7Y18851   5.231   1.589   7.396 -0.3610  1.1513  0.1678
  167SOPE   C3818852   5.349   1.662   7.567 -0.1604 -0.2980  0.3992
  167SOPE   H8X18853   5.256   1.717   7.593 -1.7088 -0.9782 -3.0740
  167SOPE   H8Y18854   5.424   1.740   7.589  0.1442 -0.3058 -0.5620
  167SOPE   C3918855   5.391   1.540   7.648  0.2708 -0.2349  0.1007
  167SOPE   H9X18856   5.448   1.577   7.736  0.3323  3.0391 -1.1901
  167SOPE   H9Y18857   5.462   1.478   7.589 -1.1602 -0.8536 -1.0268
  167SOPE  C31018858   5.267   1.463   7.695 -0.2696  0.3262 -0.4725
  167SOPE  H10X18859   5.198   1.449   7.608  1.2478  0.3834 -1.7343
  167SOPE  H10Y18860   5.217   1.528   7.769 -0.3193  0.8339 -0.9432
  167SOPE  C31118861   5.297   1.319   7.748  0.0022  0.3498 -0.5559
  167SOPE  H11X18862   5.384   1.313   7.817  0.2506 -1.3848 -0.9795
  167SOPE  H11Y18863   5.317   1.249   7.664 -0.9522 -3.1020  1.8973
  167SOPE  C31218864   5.184   1.263   7.826  0.3850  1.0734 -0.5896
  167SOPE  H12X18865   5.206   1.156   7.848  0.8456  1.6935  2.3581
  167SOPE  H12Y18866   5.088   1.270   7.770 -0.9145 -0.4415  1.3173
  167SOPE  C31318867   5.159   1.329   7.962  0.2258 -0.2751  0.2476
  167SOPE  H13X18868   5.164   1.440   7.962  1.9341 -0.3175 -0.6792
  167SOPE  H13Y18869   5.254   1.306   8.014  0.5547 -1.4806 -0.8473
  167SOPE  C31418870   5.042   1.265   8.039 -0.8142 -0.4589 -0.4121
  167SOPE  H14X18871   5.061   1.156   8.040  2.4739  0.0059 -0.2055
  167SOPE  H14Y18872   4.946   1.287   7.988 -2.2793 -2.3765  1.3284
  167SOPE  C31518873   5.037   1.317   8.185  0.2933 -0.7565  0.1273
  167SOPE  H15X18874   4.936   1.289   8.223 -0.0547  0.3349  0.0286
  167SOPE  H15Y18875   5.053   1.427   8.187  0.0334 -0.7072 -0.3178
  167SOPE  C31618876   5.147   1.267   8.273 -0.2821 -0.0841 -0.0714
  167SOPE  H16X18877   5.242   1.309   8.233  0.2313  1.6899  2.7167
  167SOPE  H16Y18878   5.141   1.158   8.252  0.5066  0.1348 -1.5399
  167SOPE  C31718879   5.140   1.311   8.423 -0.2493  0.6720 -0.6512
  167SOPE  H17X18880   5.228   1.276   8.481 -0.3409  0.7564 -0.4584
  167SOPE  H17Y18881   5.046   1.268   8.465  0.4711  1.6927  2.2949
  167SOPE  C31818882   5.139   1.458   8.442  0.6488 -0.1767  0.3061
  167SOPE  H18X18883   5.047   1.514   8.415 -0.9948 -1.7049  2.3554
  167SOPE  H18Y18884   5.214   1.499   8.371  0.0008  0.9105  0.2303
  167SOPE  H18Z18885   5.160   1.484   8.548 -1.2488 -1.4641  1.0600
  168SOPE     N18886   6.238   5.101   6.279  0.5057  0.0235 -0.0649
  168SOPE   HN118887   6.157   5.040   6.256  0.4092  0.6882 -1.6555
  168SOPE   HN218888   6.208   5.199   6.257  1.8974  0.2507 -1.0804
  168SOPE   HN318889   6.321   5.075   6.223  0.1815  1.3226 -1.2126
  168SOPE   C1218890   6.261   5.091   6.426 -0.0059 -0.0517  0.2209
  168SOPE  H12A18891   6.355   5.146   6.446  0.4453 -0.4356 -0.7879
  168SOPE  H12B18892   6.277   4.982   6.446  0.8583  0.2696  1.3576
  168SOPE   C1118893   6.138   5.150   6.499 -0.2987 -0.7817 -0.6355
  168SOPE  H11A18894   6.141   5.259   6.478 -0.4790 -0.7073 -0.2864
  168SOPE  H11B18895   6.165   5.139   6.607  0.1436 -0.8114 -0.7463
  168SOPE     P18896   5.879   5.160   6.475 -0.1697 -0.2250 -0.1484
  168SOPE   O1318897   5.763   5.067   6.462  0.4818  0.6217  0.2627
  168SOPE   O1418898   5.887   5.270   6.371 -0.1901 -0.4713  0.0004
  168SOPE   O1218899   6.021   5.078   6.472 -0.3453 -0.1406  0.2604
  168SOPE   O1118900   5.893   5.222   6.621 -0.0395  0.0108  0.1369
  168SOPE    C118901   5.818   5.166   6.730 -0.2496 -0.2766  0.0358
  168SOPE    HA18902   5.822   5.055   6.723 -1.2701 -0.3117 -0.0987
  168SOPE    HB18903   5.712   5.197   6.728 -0.4496 -0.9605 -1.3091
  168SOPE    C218904   5.881   5.199   6.870 -0.1854  0.7412  0.3706
  168SOPE    HS18905   5.831   5.136   6.946 -1.9602  1.4086 -0.1996
  168SOPE   O2118906   5.880   5.342   6.897 -0.3041 -0.1058  0.2332
  168SOPE   C2118907   5.757   5.373   6.944  1.0378 -0.4749  0.7558
  168SOPE   O2218908   5.668   5.293   6.970  0.7889  0.0398 -0.6061
  168SOPE   C2218909   5.762   5.519   6.976 -0.7662  0.7349 -0.7286
  168SOPE   H2R18910   5.725   5.567   6.882 -1.2944 -0.3457 -1.0899
  168SOPE   H2S18911   5.864   5.554   7.003 -1.0789 -0.3206  2.0924
  168SOPE    C318912   6.027   5.140   6.886 -0.2337  0.2629  0.0901
  168SOPE    HX18913   6.094   5.213   6.835  0.5931  1.0866  2.2430
  168SOPE    HY18914   6.036   5.041   6.837 -1.3646  0.8167 -1.3339
  168SOPE   O3118915   6.066   5.128   7.021  0.1620  0.1590 -0.1520
  168SOPE   C3118916   6.200   5.105   7.046  0.0663  0.3599  0.0048
  168SOPE   O3218917   6.285   5.102   6.959 -0.3899 -0.2176  0.5891
  168SOPE   C3218918   6.230   5.094   7.189  0.1405  0.1896  0.4157
  168SOPE   H2X18919   6.142   5.067   7.251  0.8787 -4.2561 -0.0916
  168SOPE   H2Y18920   6.274   5.188   7.229  1.0078  0.4185 -1.0128
  168SOPE   C2318921   5.674   5.553   7.094  0.6490 -0.5645 -0.0731
  168SOPE   H3R18922   5.700   5.512   7.195 -1.6718 -0.0533  0.7883
  168SOPE   H3S18923   5.571   5.517   7.078  0.8335 -1.8243  1.2784
  168SOPE   C2418924   5.674   5.706   7.111  0.2548  0.2001 -0.4011
  168SOPE   H4R18925   5.777   5.743   7.128  0.4360 -0.1894 -0.6458
  168SOPE   H4S18926   5.630   5.750   7.019 -1.5557 -2.5022 -0.9524
  168SOPE   C2518927   5.581   5.760   7.224  0.2698 -0.6484  1.0815
  168SOPE   H5R18928   5.590   5.870   7.212  0.1841 -0.8189 -1.0269
  168SOPE   H5S18929   5.475   5.735   7.202  0.1540 -0.3046  1.2475
  168SOPE   C2618930   5.609   5.712   7.367 -0.0975  0.7699  0.1254
  168SOPE   H6R18931   5.543   5.751   7.447 -0.9845  0.7149 -0.5583
  168SOPE   H6S18932   5.599   5.602   7.358  0.8263  0.8505 -3.6485
  168SOPE   C2718933   5.748   5.754   7.414  0.0970  0.8288  0.0583
  168SOPE   H7R18934   5.830   5.713   7.352 -0.3790 -0.8978  0.5321
  168SOPE   H7S18935   5.748   5.865   7.411  2.4225  0.8492 -1.6698
  168SOPE   C2818936   5.784   5.707   7.560  0.6701 -0.7302  0.3376
  168SOPE   H8R18937   5.747   5.603   7.571 -3.4295  0.2450 -1.9131
  168SOPE   H8S18938   5.892   5.722   7.577  0.4731  0.3003  0.7883
  168SOPE   C2918939   5.726   5.804   7.659 -0.6597  0.3977  0.0087
  168SOPE   H9118940   5.659   5.880   7.618 -1.6591  1.5982  3.4926
  168SOPE  C21018941   5.716   5.779   7.794 -0.2945  0.2146  0.4276
  168SOPE  H10118942   5.656   5.853   7.850 -1.4850 -0.4248  0.0464
  168SOPE  C21118943   5.782   5.662   7.868  0.5351  0.1689 -0.5718
  168SOPE  H11R18944   5.823   5.591   7.793  0.1838  0.6203 -1.2014
  168SOPE  H11S18945   5.712   5.606   7.934 -1.9706  1.3325 -2.0762
  168SOPE  C21218946   5.899   5.697   7.961 -0.1091  0.1265 -0.0244
  168SOPE  H12R18947   5.865   5.778   8.029 -1.0650 -1.5615  1.5943
  168SOPE  H12S18948   5.974   5.746   7.895 -1.2666 -0.0994 -1.5776
  168SOPE  C21318949   5.956   5.574   8.031  0.1970  0.6685  0.1600
  168SOPE  H13R18950   5.954   5.491   7.957 -1.8537  0.9017 -0.1215
  168SOPE  H13S18951   5.892   5.543   8.117 -0.0602 -1.0206 -0.6023
  168SOPE  C21418952   6.092   5.612   8.071 -0.0739 -0.7466 -0.9098
  168SOPE  H14R18953   6.096   5.703   8.136 -0.2510 -0.5482 -1.1741
  168SOPE  H14S18954   6.149   5.646   7.982  1.1871 -1.5481 -0.4433
  168SOPE  C21518955   6.170   5.496   8.137  0.1475  0.0832 -0.3923
  168SOPE  H15R18956   6.157   5.399   8.084 -2.3170 -0.2704  0.6936
  168SOPE  H15S18957   6.124   5.490   8.238  2.2126 -1.2362  0.5445
  168SOPE  C21618958   6.324   5.513   8.155 -0.5813 -0.0896 -0.2388
  168SOPE  H16R18959   6.367   5.436   8.223  1.8788  0.6907 -0.7811
  168SOPE  H16S18960   6.351   5.613   8.196 -2.9312 -0.0032  1.2813
  168SOPE  C21718961   6.402   5.508   8.020 -0.4286 -0.1530 -0.2156
  168SOPE  H17R18962   6.390   5.597   7.955  0.5570 -0.5401 -0.9422
  168SOPE  H17S18963   6.355   5.427   7.961 -0.9451  0.9141 -1.3122
  168SOPE  C21818964   6.556   5.477   8.032  0.3955 -0.4974  0.2424
  168SOPE  H18R18965   6.615   5.554   8.086 -0.4063  0.0075  0.4153
  168SOPE  H18S18966   6.603   5.461   7.933 -1.6958  0.2669 -0.9357
  168SOPE  H18T18967   6.572   5.387   8.096 -0.9288 -1.0921 -0.2112
  168SOPE   C3318968   6.344   4.986   7.227  0.6307 -0.3493  0.4928
  168SOPE   H3X18969   6.426   4.999   7.153 -0.9002  0.8369 -1.0894
  168SOPE   H3Y18970   6.309   4.882   7.216  1.6080 -0.8319  1.6374
  168SOPE   C3418971   6.389   4.999   7.367 -0.3616  0.8628  0.0373
  168SOPE   H4X18972   6.301   5.013   7.434 -0.1216 -1.6209  0.9803
  168SOPE   H4Y18973   6.462   5.082   7.381  0.3432  0.4328 -0.9600
  168SOPE   C3518974   6.455   4.867   7.409 -0.3531  0.1720 -0.4470
  168SOPE   H5X18975   6.536   4.830   7.342 -0.2097 -1.7958  0.7142
  168SOPE   H5Y18976   6.387   4.779   7.405 -0.4444  0.0457  2.2033
  168SOPE   C3618977   6.510   4.866   7.552 -0.1821  0.8029 -0.2508
  168SOPE   H6X18978   6.571   4.956   7.575  2.3978 -1.4079  2.4022
  168SOPE   H6Y18979   6.588   4.789   7.566  0.6449  2.0822  3.0044
  168SOPE   C3718980   6.409   4.857   7.662  0.5907 -0.0707 -1.3628
  168SOPE   H7X18981   6.385   4.748   7.668 -0.1838  0.0526 -1.9670
  168SOPE   H7Y18982   6.316   4.913   7.639 -0.4002 -1.0739 -0.0031
  168SOPE   C3818983   6.457   4.894   7.810 -0.8971 -0.4279  0.1955
  168SOPE   H8X18984   6.486   5.001   7.816 -0.1920 -0.6429  0.7083
  168SOPE   H8Y18985   6.545   4.827   7.821 -0.5456  0.0667  0.4359
  168SOPE   C3918986   6.356   4.874   7.921  0.4189 -0.1741 -0.1910
  168SOPE   H9X18987   6.311   4.772   7.914 -2.6593  1.1027 -0.8030
  168SOPE   H9Y18988   6.274   4.944   7.893  1.0003  0.1462 -1.1114
  168SOPE  C31018989   6.411   4.909   8.064 -0.5352 -0.3755  0.0744
  168SOPE  H10X18990   6.445   5.015   8.068 -0.1864 -0.4657 -0.3814
  168SOPE  H10Y18991   6.503   4.855   8.093  0.3674  1.1949  0.2583
  168SOPE  C31118992   6.312   4.876   8.177  0.1222  0.5066 -0.0101
  168SOPE  H11X18993   6.362   4.895   8.274 -0.5901 -0.2202  0.5196
  168SOPE  H11Y18994   6.275   4.771   8.177 -0.7194  0.7871  0.5748
  168SOPE  C31218995   6.189   4.973   8.185  0.7588 -0.6321 -0.1721
  168SOPE  H12X18996   6.117   4.947   8.105  0.9973  0.9484 -0.9441
  168SOPE  H12Y18997   6.232   5.071   8.154 -1.1078 -0.3745 -2.1870
  168SOPE  C31318998   6.122   4.964   8.324  1.0878 -0.1087  0.6040
  168SOPE  H13X18999   6.203   4.967   8.400  1.8318  1.4589 -0.1972
  168SOPE  H13Y19000   6.065   4.869   8.321 -0.6695  0.9175 -1.0163
  168SOPE  C31419001   6.018   5.075   8.330  0.4143  0.3939 -0.2021
  168SOPE  H14X19002   5.966   5.067   8.232  1.2930 -1.5755 -0.5480
  168SOPE  H14Y19003   6.056   5.179   8.340 -2.4582  1.4953  0.0772
  168SOPE  C31519004   5.923   5.029   8.438 -0.0499 -0.3942  0.4454
  168SOPE  H15X19005   5.985   4.991   8.522  1.0769  0.1132 -0.1209
  168SOPE  H15Y19006   5.852   4.950   8.408 -3.0973  1.5329  2.1061
  168SOPE  C31619007   5.819   5.140   8.480 -0.6416  0.4457 -0.1707
  168SOPE  H16X19008   5.743   5.143   8.399  0.7543 -1.2194 -1.6257
  168SOPE  H16Y19009   5.869   5.238   8.492 -0.4100  0.3101 -0.0352
  168SOPE  C31719010   5.739   5.093   8.602 -0.3420 -0.2057  0.4593
  168SOPE  H17X19011   5.680   5.001   8.585 -2.1459  0.9077  0.3267
  168SOPE  H17Y19012   5.667   5.172   8.632  0.4581  0.5747  0.3699
  168SOPE  C31819013   5.829   5.082   8.725 -0.4821  0.2675 -0.0475
  168SOPE  H18X19014   5.910   5.007   8.723  1.2332  2.0394  0.6307
  168SOPE  H18Y19015   5.770   5.059   8.816  2.2469  0.4928  1.8823
  168SOPE  H18Z19016   5.882   5.178   8.742  0.5678 -0.1923 -0.6379
  169SOPE     N19017   1.157   6.807   6.303  0.4522  0.4101 -0.0840
  169SOPE   HN119018   1.054   6.799   6.292  0.7292  0.0680 -3.7174
  169SOPE   HN219019   1.202   6.838   6.214  1.7795  1.1762  0.8290
  169SOPE   HN319020   1.197   6.717   6.334 -1.2216  0.6130  3.0813
  169SOPE   C1219021   1.185   6.925   6.393 -1.0063  0.5141 -0.3672
  169SOPE  H12A19022   1.174   6.894   6.499  3.2853  0.2643  0.1922
  169SOPE  H12B19023   1.114   7.006   6.366  0.3690  1.8309 -0.1687
  169SOPE   C1119024   1.341   6.961   6.375  0.0418 -0.3142 -0.5370
  169SOPE  H11A19025   1.351   7.012   6.473 -1.4895 -1.2850  0.1690
  169SOPE  H11B19026   1.361   7.032   6.292  1.1359  0.4639  0.3660
  169SOPE     P19027   1.525   6.782   6.467  0.1035  0.0235 -0.2055
  169SOPE   O1319028   1.655   6.819   6.415  0.0541  0.1354  0.2629
  169SOPE   O1419029   1.496   6.636   6.475  0.6600  0.1146 -0.1094
  169SOPE   O1219030   1.427   6.849   6.369  0.3254  0.0698 -0.2205
  169SOPE   O1119031   1.498   6.838   6.611 -0.8835  0.3654  0.3718
  169SOPE    C119032   1.529   6.972   6.652 -0.2666 -0.4392 -0.0070
  169SOPE    HA19033   1.439   7.037   6.644  1.4509  1.9874 -1.0002
  169SOPE    HB19034   1.612   7.021   6.597  1.0272  0.1872  2.3575
  169SOPE    C219035   1.584   6.978   6.798 -0.0368 -0.2669 -1.0049
  169SOPE    HS19036   1.695   6.967   6.800  0.2176  1.5718  2.9490
  169SOPE   O2119037   1.519   6.875   6.877  0.0861  0.1271 -0.2234
  169SOPE   C2119038   1.591   6.830   6.978 -1.0966 -0.1279 -0.5655
  169SOPE   O2219039   1.712   6.853   6.999  0.3795  0.0235  0.4313
  169SOPE   C2219040   1.499   6.769   7.078  0.0860  0.2737 -0.0013
  169SOPE   H2R19041   1.467   6.672   7.035 -2.8787  1.7390 -1.3702
  169SOPE   H2S19042   1.409   6.834   7.080  0.4923  0.8305  1.1534
  169SOPE    C319043   1.558   7.127   6.863  0.9642  0.2339 -0.2552
  169SOPE    HX19044   1.449   7.150   6.866  0.8957  0.1529 -1.7182
  169SOPE    HY19045   1.605   7.201   6.796  1.3097  0.9748  0.7730
  169SOPE   O3119046   1.613   7.131   6.996  0.4050 -0.3872  0.5483
  169SOPE   C3119047   1.736   7.169   7.009  0.2082  0.1872  0.0314
  169SOPE   O3219048   1.806   7.215   6.918  0.1284  0.3276  0.0546
  169SOPE   C3219049   1.800   7.135   7.149 -0.5238 -0.6260  0.3793
  169SOPE   H2X19050   1.905   7.170   7.148 -1.5272  2.8365 -0.9343
  169SOPE   H2Y19051   1.798   7.025   7.163 -4.6345 -0.5493  1.9793
  169SOPE   C2319052   1.564   6.753   7.220 -0.2418  0.5320  0.2305
  169SOPE   H3R19053   1.602   6.851   7.256  0.9817  0.2427 -0.2202
  169SOPE   H3S19054   1.655   6.691   7.210 -0.9593 -0.3627 -1.1316
  169SOPE   C2419055   1.466   6.691   7.313  0.2958  0.5592  0.2176
  169SOPE   H4R19056   1.377   6.756   7.318  0.0064  0.0957  1.3469
  169SOPE   H4S19057   1.437   6.593   7.270 -0.1665  1.1183 -0.7829
  169SOPE   C2519058   1.512   6.669   7.456 -0.2796  1.1063 -0.2514
  169SOPE   H5R19059   1.465   6.585   7.511  1.9971 -0.3491 -0.3932
  169SOPE   H5S19060   1.620   6.642   7.448 -0.4395  0.5679 -0.6339
  169SOPE   C2619061   1.498   6.795   7.538 -0.3124 -0.0270 -0.4114
  169SOPE   H6R19062   1.539   6.884   7.485  1.3752  0.9491  2.3621
  169SOPE   H6S19063   1.390   6.810   7.554 -0.3484  0.2674 -0.9213
  169SOPE   C2719064   1.570   6.797   7.682 -0.0972 -0.0537  0.2850
  169SOPE   H7R19065   1.680   6.791   7.665 -0.0863  1.8096 -0.5632
  169SOPE   H7S19066   1.550   6.898   7.722  0.6988 -0.2482  1.2275
  169SOPE   C2819067   1.522   6.684   7.775  0.6189 -0.7173 -0.0186
  169SOPE   H8R19068   1.412   6.694   7.792  1.2373  2.3039  3.4572
  169SOPE   H8S19069   1.554   6.586   7.734  1.5764 -0.3156 -0.2459
  169SOPE   C2919070   1.584   6.697   7.911  1.0612  0.1217  0.1249
  169SOPE   H9119071   1.670   6.629   7.918  0.1633 -0.9109  2.4611
  169SOPE  C21019072   1.555   6.788   8.007  0.1505  0.8669 -0.5460
  169SOPE  H10119073   1.601   6.778   8.106 -1.7241 -0.4867  0.2499
  169SOPE  C21119074   1.452   6.892   8.000 -0.8576 -1.0735  0.0484
  169SOPE  H11R19075   1.377   6.863   7.923  1.3809 -1.9966 -1.9160
  169SOPE  H11S19076   1.486   6.992   7.965  0.3151 -1.1169  1.0059
  169SOPE  C21219077   1.396   6.905   8.140 -0.8155 -0.2626 -0.9693
  169SOPE  H12R19078   1.326   6.990   8.152  1.3833  1.4091  1.1834
  169SOPE  H12S19079   1.475   6.921   8.218 -0.2569  1.2047 -1.7925
  169SOPE  C21319080   1.329   6.774   8.192 -0.6975 -0.5333  0.1990
  169SOPE  H13R19081   1.393   6.683   8.187 -0.5827 -0.4435  0.0135
  169SOPE  H13S19082   1.240   6.761   8.126  0.7405 -0.2057 -1.9057
  169SOPE  C21419083   1.268   6.791   8.334  0.6095 -0.4784  0.0828
  169SOPE  H14R19084   1.203   6.881   8.340 -1.2292 -1.4155 -3.0938
  169SOPE  H14S19085   1.346   6.794   8.412  0.1756 -0.6554  0.5329
  169SOPE  C21519086   1.177   6.670   8.355  0.0326  0.0509 -0.3758
  169SOPE  H15R19087   1.251   6.590   8.373  1.3213  0.5469 -3.0079
  169SOPE  H15S19088   1.122   6.647   8.261 -1.4715 -2.3339  0.9923
  169SOPE  C21619089   1.067   6.683   8.467 -0.7502  0.3908 -0.4158
  169SOPE  H16R19090   1.120   6.729   8.553 -0.5582  1.1018 -0.8974
  169SOPE  H16S19091   1.031   6.587   8.509 -0.5164  0.5015  0.0355
  169SOPE  C21719092   0.955   6.777   8.424 -0.1616  0.0170  0.2416
  169SOPE  H17R19093   0.915   6.742   8.327  0.3881  0.5282 -0.1792
  169SOPE  H17S19094   0.995   6.879   8.403 -1.1073  0.7681  1.8710
  169SOPE  C21819095   0.839   6.783   8.526 -0.4219 -0.1685  0.3576
  169SOPE  H18R19096   0.800   6.683   8.555 -1.5028 -0.1204 -0.8304
  169SOPE  H18S19097   0.755   6.834   8.474 -0.3499 -0.3432  0.0715
  169SOPE  H18T19098   0.867   6.842   8.616  1.0448  1.1576 -0.9249
  169SOPE   C3319099   1.722   7.206   7.261  0.0592  0.0280  0.0398
  169SOPE   H3X19100   1.623   7.156   7.272  0.3422 -0.3204  1.1698
  169SOPE   H3Y19101   1.723   7.317   7.256 -0.4732 -0.0212 -1.5041
  169SOPE   C3419102   1.787   7.173   7.398 -0.2645  0.1030  0.3324
  169SOPE   H4X19103   1.894   7.204   7.402  0.0662 -0.4004 -2.5804
  169SOPE   H4Y19104   1.780   7.062   7.400  0.9635  0.0185  0.6383
  169SOPE   C3519105   1.699   7.220   7.512  0.2892  0.0007  0.4024
  169SOPE   H5X19106   1.595   7.181   7.516 -0.2432  1.4234  2.1049
  169SOPE   H5Y19107   1.675   7.329   7.511  1.7965  0.3560 -0.6530
  169SOPE   C3619108   1.772   7.197   7.644 -0.3571 -0.7664  0.0645
  169SOPE   H6X19109   1.849   7.276   7.659 -0.6444  0.2439 -3.0300
  169SOPE   H6Y19110   1.818   7.096   7.647  1.3031 -0.0550 -0.4148
  169SOPE   C3719111   1.665   7.199   7.761  0.4351 -0.8709  0.4328
  169SOPE   H7X19112   1.581   7.129   7.739  1.1027 -1.9875  1.3419
  169SOPE   H7Y19113   1.628   7.302   7.779  1.4857  0.2927 -3.1733
  169SOPE   C3819114   1.716   7.140   7.893  0.9020 -0.3251  0.3497
  169SOPE   H8X19115   1.632   7.132   7.965 -0.4306 -2.1050 -1.2767
  169SOPE   H8Y19116   1.746   7.035   7.871  1.3902 -0.6977  2.5641
  169SOPE   C3919117   1.831   7.228   7.948 -0.1387  0.0942  0.5823
  169SOPE   H9X19118   1.797   7.334   7.955  0.5387  0.4153 -0.5959
  169SOPE   H9Y19119   1.922   7.225   7.884  0.8406  0.0019  1.9587
  169SOPE  C31019120   1.879   7.189   8.086  0.3026  0.3194  0.3936
  169SOPE  H10X19121   1.800   7.193   8.163  1.8485  0.0709  2.0742
  169SOPE  H10Y19122   1.965   7.255   8.113  0.4787  0.0435  0.5134
  169SOPE  C31119123   1.944   7.054   8.084  0.6680 -0.1165 -0.4850
  169SOPE  H11X19124   2.028   7.049   8.011  2.7718 -0.5280  1.8328
  169SOPE  H11Y19125   1.870   6.978   8.051 -0.6282  1.3691 -1.0829
  169SOPE  C31219126   1.996   7.035   8.218 -0.0810  0.0884  0.5178
  169SOPE  H12X19127   1.935   7.086   8.295 -0.8410  1.6540 -1.0495
  169SOPE  H12Y19128   2.099   7.074   8.233  0.5663 -1.5034  0.4389
  169SOPE  C31319129   2.033   6.887   8.246  0.6202 -0.1484  0.3318
  169SOPE  H13X19130   2.115   6.872   8.319 -0.3013 -2.1597  1.0353
  169SOPE  H13Y19131   2.073   6.837   8.155  1.1943 -0.1796  0.5948
  169SOPE  C31419132   1.918   6.799   8.295 -0.4647  0.4276  0.3138
  169SOPE  H14X19133   1.869   6.748   8.208  0.0878  0.7081 -0.1687
  169SOPE  H14Y19134   1.837   6.865   8.333 -1.3053  0.0814 -0.8110
  169SOPE  C31519135   1.956   6.688   8.401  0.2573  0.1725  1.2485
  169SOPE  H15X19136   2.046   6.632   8.367  0.0794  1.0906 -0.9108
  169SOPE  H15Y19137   1.878   6.609   8.403  0.7432 -0.3120  1.7549
  169SOPE  C31619138   1.993   6.738   8.538 -0.3285  0.1381 -0.4267
  169SOPE  H16X19139   1.933   6.831   8.554  0.5391  0.9480 -1.7019
  169SOPE  H16Y19140   2.094   6.784   8.533 -0.3758  1.2720  4.4207
  169SOPE  C31719141   1.978   6.628   8.657  0.3420  0.3133 -0.5448
  169SOPE  H17X19142   2.048   6.542   8.642  0.2211 -0.3784  2.3212
  169SOPE  H17Y19143   1.875   6.588   8.660 -0.2811  1.8901  0.2043
  169SOPE  C31819144   1.992   6.699   8.796 -0.7583 -0.7533 -0.0331
  169SOPE  H18X19145   2.084   6.762   8.794 -0.3104 -1.4048 -0.0699
  169SOPE  H18Y19146   2.008   6.620   8.872  0.2239 -1.8122 -1.2808
  169SOPE  H18Z19147   1.902   6.761   8.814  0.1094 -0.1839  2.7207
  170SOPE     N19148   0.852   5.476   6.344  1.0798 -0.5145  0.3496
  170SOPE   HN119149   0.757   5.513   6.323 -0.3489 -3.9599  0.0305
  170SOPE   HN219150   0.902   5.469   6.253  0.8729  0.0792  0.1824
  170SOPE   HN319151   0.843   5.376   6.373 -0.0222 -0.3310  0.6799
  170SOPE   C1219152   0.926   5.567   6.434  0.2283 -0.3571 -0.1379
  170SOPE  H12A19153   0.992   5.499   6.492 -1.3030 -1.6232  0.2020
  170SOPE  H12B19154   0.854   5.624   6.497  1.9320  2.4705 -0.5568
  170SOPE   C1119155   1.008   5.669   6.362 -0.3390 -0.0605  0.8272
  170SOPE  H11A19156   1.037   5.747   6.435 -0.8922  0.9884 -0.0433
  170SOPE  H11B19157   0.950   5.701   6.273  1.6680  0.1540 -0.4616
  170SOPE     P19158   1.269   5.603   6.361  0.1040 -0.0705  0.4276
  170SOPE   O1319159   1.316   5.737   6.394  0.2138 -0.3821  0.3878
  170SOPE   O1419160   1.353   5.517   6.267 -0.2766 -0.2344 -0.0506
  170SOPE   O1219161   1.123   5.603   6.305 -0.1182  0.0765  0.0586
  170SOPE   O1119162   1.255   5.522   6.498 -0.5724  0.0227 -0.1004
  170SOPE    C119163   1.364   5.529   6.585  0.2830  0.1603  0.2553
  170SOPE    HA19164   1.348   5.628   6.634 -1.3210  1.1141 -2.0362
  170SOPE    HB19165   1.463   5.540   6.535 -0.1986  2.1351 -0.3554
  170SOPE    C219166   1.371   5.408   6.681 -0.5699 -0.0178  0.6388
  170SOPE    HS19167   1.306   5.422   6.770 -2.9344 -3.4623 -0.3498
  170SOPE   O2119168   1.513   5.384   6.710 -0.1533 -0.6851  0.0467
  170SOPE   C2119169   1.543   5.346   6.836  0.7338  0.0427 -0.6362
  170SOPE   O2219170   1.461   5.340   6.927 -0.0869 -0.9424  0.0032
  170SOPE   C2219171   1.690   5.304   6.854 -0.7339  0.1867  0.4981
  170SOPE   H2R19172   1.744   5.379   6.792  0.3972  0.7857  2.1290
  170SOPE   H2S19173   1.701   5.200   6.817 -0.5726 -0.4573  2.2753
  170SOPE    C319174   1.309   5.268   6.622 -0.7143 -0.3539 -0.3780
  170SOPE    HX19175   1.345   5.251   6.518  0.5932 -1.5066  0.2201
  170SOPE    HY19176   1.200   5.286   6.612 -0.5699  1.1692  0.4852
  170SOPE   O3119177   1.347   5.154   6.696 -0.2416  0.0923 -0.2854
  170SOPE   C3119178   1.261   5.108   6.784 -0.2539 -0.3246 -0.1956
  170SOPE   O3219179   1.142   5.142   6.790  0.2961 -0.3312 -0.0411
  170SOPE   C3219180   1.331   4.995   6.869 -0.9432 -0.6370  0.6858
  170SOPE   H2X19181   1.440   5.002   6.853 -0.8372  1.3195  1.9516
  170SOPE   H2Y19182   1.306   4.894   6.830 -0.6595  0.5189 -2.8834
  170SOPE   C2319183   1.729   5.323   7.003  0.2035  0.0902 -0.2018
  170SOPE   H3R19184   1.672   5.245   7.058 -0.6730 -0.1834 -1.4676
  170SOPE   H3S19185   1.694   5.421   7.043  2.6618 -0.0695  2.7209
  170SOPE   C2419186   1.883   5.331   7.025 -0.3184 -0.2546 -0.8740
  170SOPE   H4R19187   1.927   5.230   7.019  1.4617  0.3919  0.5273
  170SOPE   H4S19188   1.932   5.398   6.952 -1.1808  1.0319 -0.3288
  170SOPE   C2519189   1.915   5.383   7.163 -0.0847  0.6720  0.1633
  170SOPE   H5R19190   2.024   5.405   7.161 -0.0870  0.6691 -0.5582
  170SOPE   H5S19191   1.856   5.475   7.181 -0.6059  0.8883 -2.2425
  170SOPE   C2619192   1.894   5.285   7.281  0.7735 -0.6539  0.6668
  170SOPE   H6R19193   1.786   5.264   7.294  0.7685 -1.8560 -0.9526
  170SOPE   H6S19194   1.940   5.187   7.256  1.4356 -0.2444  0.2438
  170SOPE   C2719195   1.971   5.340   7.403 -0.0197 -0.5913  0.6545
  170SOPE   H7R19196   2.082   5.339   7.408  0.0822 -1.7499 -1.0304
  170SOPE   H7S19197   1.945   5.448   7.396 -1.4542 -0.9240  0.6263
  170SOPE   C2819198   1.920   5.280   7.530 -0.4734  0.6197 -1.1996
  170SOPE   H8R19199   1.809   5.281   7.533 -0.5644 -2.2097 -0.0626
  170SOPE   H8S19200   1.937   5.170   7.532 -1.2738  0.5078 -0.3330
  170SOPE   C2919201   1.965   5.362   7.649 -0.4879 -0.4129 -0.0141
  170SOPE   H9119202   2.073   5.380   7.640 -0.6719  0.0905 -1.3435
  170SOPE  C21019203   1.901   5.413   7.749  0.3177 -0.0882  0.2222
  170SOPE  H10119204   1.963   5.469   7.821  1.6661 -0.3478 -0.7203
  170SOPE  C21119205   1.756   5.411   7.774 -0.7536  0.3824 -0.4098
  170SOPE  H11R19206   1.733   5.405   7.882  0.0062 -1.3656 -0.3098
  170SOPE  H11S19207   1.716   5.318   7.729 -2.0383  0.3748  0.6931
  170SOPE  C21219208   1.676   5.530   7.730 -0.0395 -0.5891  0.1514
  170SOPE  H12R19209   1.718   5.623   7.774  0.6534 -1.1325  0.6643
  170SOPE  H12S19210   1.570   5.511   7.758 -0.7543  1.1892 -1.1303
  170SOPE  C21319211   1.674   5.552   7.575  0.6297 -0.1146  0.6073
  170SOPE  H13R19212   1.633   5.459   7.531 -0.2078  0.2286  0.6567
  170SOPE  H13S19213   1.781   5.556   7.543 -0.1475  1.6793 -2.1068
  170SOPE  C21419214   1.608   5.685   7.540  0.3683  0.0075 -0.8313
  170SOPE  H14R19215   1.691   5.758   7.547  1.6079 -1.5020  1.5393
  170SOPE  H14S19216   1.516   5.701   7.600 -1.4216 -2.1642 -2.8019
  170SOPE  C21519217   1.559   5.677   7.396  0.3226 -0.2418 -0.5066
  170SOPE  H15R19218   1.492   5.763   7.375 -0.1168 -0.6733 -0.8946
  170SOPE  H15S19219   1.511   5.579   7.373 -0.4234 -1.0842  3.7313
  170SOPE  C21619220   1.669   5.709   7.303 -0.4637  0.2943  0.6633
  170SOPE  H16R19221   1.744   5.627   7.300 -0.1993  0.5557 -0.7277
  170SOPE  H16S19222   1.728   5.802   7.317  0.8627 -0.0970 -1.7831
  170SOPE  C21719223   1.603   5.731   7.162  0.0138 -0.5555 -0.4825
  170SOPE  H17R19224   1.561   5.834   7.155  2.4051  0.4233 -1.5197
  170SOPE  H17S19225   1.516   5.663   7.149  0.5698 -1.5522  0.7676
  170SOPE  C21819226   1.699   5.732   7.052 -0.2888 -0.3288  0.2068
  170SOPE  H18R19227   1.760   5.640   7.051  0.5440  0.2001  1.0556
  170SOPE  H18S19228   1.773   5.815   7.054 -1.5801  0.8378  1.0749
  170SOPE  H18T19229   1.657   5.747   6.950 -0.3175 -0.0498  0.2591
  170SOPE   C3319230   1.314   5.004   7.024  0.2606 -0.3626  0.5384
  170SOPE   H3X19231   1.348   5.101   7.065 -1.6282  0.3440  0.5644
  170SOPE   H3Y19232   1.382   4.926   7.063  0.7688 -0.4791 -0.5324
  170SOPE   C3419233   1.173   4.968   7.074 -0.4354 -0.4029  0.7110
  170SOPE   H4X19234   1.144   4.868   7.035 -1.0794  0.5782 -1.4500
  170SOPE   H4Y19235   1.114   5.050   7.029 -1.2514 -1.0823  0.5285
  170SOPE   C3519236   1.177   4.972   7.224 -0.0939 -1.0514 -0.2176
  170SOPE   H5X19237   1.075   4.976   7.270  1.4175  1.2981  3.3436
  170SOPE   H5Y19238   1.217   5.069   7.261 -0.7068 -1.1557  0.7566
  170SOPE   C3619239   1.242   4.855   7.291  0.2940 -0.0921  0.0346
  170SOPE   H6X19240   1.344   4.848   7.249  0.0211 -0.9234 -0.5083
  170SOPE   H6Y19241   1.181   4.773   7.248 -1.7311  2.5105 -2.4703
  170SOPE   C3719242   1.253   4.864   7.442  0.0144 -0.0157  0.3207
  170SOPE   H7X19243   1.287   4.969   7.461 -2.7698  0.6266  2.3602
  170SOPE   H7Y19244   1.320   4.783   7.478  0.8081  0.9736  1.1585
  170SOPE   C3819245   1.120   4.856   7.514  0.8213  0.8850 -0.4455
  170SOPE   H8X19246   1.067   4.764   7.481  2.7874  0.1267 -1.6978
  170SOPE   H8Y19247   1.054   4.937   7.479  1.2447  0.6396 -1.8797
  170SOPE   C3919248   1.117   4.875   7.666  0.1421 -0.4542 -0.4455
  170SOPE   H9X19249   1.023   4.925   7.700  0.5788  0.2110 -0.1916
  170SOPE   H9Y19250   1.196   4.950   7.689  0.2829 -0.1096 -1.9499
  170SOPE  C31019251   1.134   4.752   7.749 -0.0842  0.5684  0.4331
  170SOPE  H10X19252   1.213   4.687   7.705  2.3329  3.5727  0.0049
  170SOPE  H10Y19253   1.039   4.695   7.750 -0.4071  1.0534 -0.7839
  170SOPE  C31119254   1.188   4.785   7.888  0.4742 -0.0067 -0.3703
  170SOPE  H11X19255   1.291   4.827   7.891 -0.4150  2.3140  0.0702
  170SOPE  H11Y19256   1.187   4.691   7.947 -2.9363 -0.8066 -1.4764
  170SOPE  C31219257   1.101   4.884   7.962 -0.0280  0.4455 -0.3102
  170SOPE  H12X19258   0.999   4.850   7.991 -0.1425  1.6643  0.7940
  170SOPE  H12Y19259   1.083   4.966   7.889  0.9747 -0.3744 -1.5203
  170SOPE  C31319260   1.161   4.956   8.085  0.3760 -0.4206  0.1590
  170SOPE  H13X19261   1.250   5.011   8.048  0.5051 -1.4062 -1.0537
  170SOPE  H13Y19262   1.195   4.885   8.164 -1.1256 -2.1336 -0.6563
  170SOPE  C31419263   1.076   5.057   8.157  0.2951 -0.4265 -0.4465
  170SOPE  H14X19264   0.978   5.013   8.187 -0.7339  0.8527 -1.7198
  170SOPE  H14Y19265   1.041   5.138   8.088 -2.5622 -1.1053  0.0731
  170SOPE  C31519266   1.133   5.115   8.289 -0.7045  0.2835 -0.2796
  170SOPE  H15X19267   1.220   5.181   8.271 -1.7175  1.7075 -0.1101
  170SOPE  H15Y19268   1.172   5.031   8.350 -3.0383 -0.6451  0.0628
  170SOPE  C31619269   1.017   5.183   8.371  0.2189  0.1355  0.1736
  170SOPE  H16X19270   0.924   5.132   8.337  0.6774 -0.1042 -0.7675
  170SOPE  H16Y19271   1.011   5.289   8.339 -0.7887 -0.0784 -0.3981
  170SOPE  C31719272   1.015   5.153   8.524  0.2318 -0.5044  0.5402
  170SOPE  H17X19273   1.102   5.205   8.570 -0.1457  2.5857 -1.8460
  170SOPE  H17Y19274   1.020   5.046   8.553  1.7183 -0.6926 -0.3324
  170SOPE  C31819275   0.881   5.212   8.577 -0.1907  0.8888  0.0556
  170SOPE  H18X19276   0.804   5.142   8.536  1.3966 -0.2824 -1.0597
  170SOPE  H18Y19277   0.874   5.321   8.557  2.0119  1.1394  0.4165
  170SOPE  H18Z19278   0.890   5.199   8.687 -0.9780 -0.2600  0.0103
  171SOPE     N19279   2.497   0.896   6.055 -0.2842  0.3787  0.3966
  171SOPE   HN119280   2.401   0.924   6.023  0.2838  0.6775 -1.1654
  171SOPE   HN219281   2.569   0.922   5.984 -0.1809  1.0857  0.7556
  171SOPE   HN319282   2.496   0.792   6.065 -0.5605  0.2447 -0.7646
  171SOPE   C1219283   2.539   0.971   6.175 -0.4370 -0.7455 -0.6007
  171SOPE  H12A19284   2.572   1.070   6.138  0.8962 -0.6151  0.8580
  171SOPE  H12B19285   2.626   0.922   6.224 -0.9816 -0.0500  1.1166
  171SOPE   C1119286   2.428   0.966   6.280 -0.7030  0.5410  0.0160
  171SOPE  H11A19287   2.342   1.020   6.236  0.1283  0.1956 -2.1313
  171SOPE  H11B19288   2.463   1.027   6.366  2.6913  2.1601 -2.2673
  171SOPE     P19289   2.322   0.773   6.435  0.2850 -0.0336  0.4365
  171SOPE   O1319290   2.364   0.634   6.467 -0.0406  0.4044 -0.0529
  171SOPE   O1419291   2.177   0.800   6.428  0.8861 -0.3950  0.2842
  171SOPE   O1219292   2.386   0.830   6.307 -0.0275 -0.3044  0.5463
  171SOPE   O1119293   2.383   0.863   6.551 -0.1046  0.3582 -0.1519
  171SOPE    C119294   2.296   0.889   6.659  0.1020 -0.9169 -0.6951
  171SOPE    HA19295   2.255   0.795   6.702 -0.0309 -0.3999  0.3389
  171SOPE    HB19296   2.204   0.948   6.638  0.3603 -0.2956 -0.1282
  171SOPE    C219297   2.381   0.972   6.758  0.0682  0.0147 -0.1685
  171SOPE    HS19298   2.485   0.945   6.730 -0.4298 -1.6540 -0.5267
  171SOPE   O2119299   2.339   0.925   6.893  0.2721 -0.6452 -0.1131
  171SOPE   C2119300   2.446   0.895   6.965 -0.6850 -0.2750  0.6634
  171SOPE   O2219301   2.569   0.903   6.935  0.8898  0.0614 -0.1412
  171SOPE   C2219302   2.398   0.842   7.096  0.5604 -0.2014  0.3590
  171SOPE   H2R19303   2.395   0.731   7.097  3.7802 -0.4116  3.1511
  171SOPE   H2S19304   2.292   0.873   7.112  0.2704 -1.7875  1.8166
  171SOPE    C319305   2.373   1.125   6.742 -0.3064 -0.0268 -0.3290
  171SOPE    HX19306   2.264   1.143   6.737 -0.2245  1.2862  1.5158
  171SOPE    HY19307   2.414   1.160   6.645 -2.4088 -1.0598 -1.6590
  171SOPE   O3119308   2.425   1.190   6.857  0.2009 -0.7138 -0.3461
  171SOPE   C3119309   2.558   1.212   6.839  0.0669  0.2382  0.0827
  171SOPE   O3219310   2.618   1.170   6.743 -0.0111  0.1623 -0.3364
  171SOPE   C3219311   2.622   1.293   6.948  0.2724  0.0270  0.5243
  171SOPE   H2X19312   2.591   1.243   7.042 -2.3500 -0.8410 -0.7186
  171SOPE   H2Y19313   2.598   1.402   6.944 -3.0324 -0.5818  1.4077
  171SOPE   C2319314   2.488   0.892   7.211  0.3596 -0.3905 -0.6162
  171SOPE   H3R19315   2.506   1.001   7.197 -1.6086  0.1459  0.5638
  171SOPE   H3S19316   2.578   0.827   7.208 -0.4995 -1.6206 -0.5807
  171SOPE   C2419317   2.406   0.893   7.342  0.2956  0.4643  0.0914
  171SOPE   H4R19318   2.312   0.946   7.316 -0.1035  0.1812  0.9239
  171SOPE   H4S19319   2.393   0.788   7.375 -1.1336 -0.1464 -2.1515
  171SOPE   C2519320   2.467   0.968   7.463  0.2498 -0.1168  0.2890
  171SOPE   H5R19321   2.460   1.076   7.439  0.0068  0.2409  1.8213
  171SOPE   H5S19322   2.409   0.957   7.557  2.3146 -0.1052  1.6243
  171SOPE   C2619323   2.620   0.937   7.477 -0.4329 -0.1399  0.1305
  171SOPE   H6R19324   2.681   0.948   7.385  0.0850 -1.4458  0.2914
  171SOPE   H6S19325   2.657   1.009   7.553 -2.9669  1.6733 -0.1958
  171SOPE   C2719326   2.657   0.803   7.537  0.1279  0.2805  0.4042
  171SOPE   H7R19327   2.612   0.712   7.492 -3.0977  1.0733  1.7389
  171SOPE   H7S19328   2.768   0.790   7.545  0.3506  1.2969 -0.7766
  171SOPE   C2819329   2.604   0.791   7.685 -0.6468 -0.1914  0.8236
  171SOPE   H8R19330   2.635   0.876   7.750  0.8989 -0.8854  1.0426
  171SOPE   H8S19331   2.494   0.782   7.701 -0.5906  0.2474  1.4920
  171SOPE   C2919332   2.670   0.671   7.751  0.0469 -0.1506 -0.6878
  171SOPE   H9119333   2.711   0.598   7.680  1.2714 -0.8615  0.7015
  171SOPE  C21019334   2.679   0.647   7.879  0.0307 -0.2910  0.0799
  171SOPE  H10119335   2.728   0.553   7.908  3.0071 -0.3898 -4.2536
  171SOPE  C21119336   2.622   0.728   7.990 -0.0341 -0.2549 -0.5509
  171SOPE  H11R19337   2.536   0.671   8.030 -0.2654  1.4380  1.5123
  171SOPE  H11S19338   2.580   0.827   7.965  1.6532  1.0267  1.4095
  171SOPE  C21219339   2.724   0.765   8.102 -0.2386  0.1388 -1.5216
  171SOPE  H12R19340   2.806   0.827   8.061 -1.3641  0.9858 -2.5746
  171SOPE  H12S19341   2.763   0.676   8.155 -0.5954  0.3350 -0.9122
  171SOPE  C21319342   2.658   0.836   8.226 -0.0762 -0.3991  0.5290
  171SOPE  H13R19343   2.557   0.795   8.250 -1.4045  1.7633 -0.9888
  171SOPE  H13S19344   2.638   0.942   8.201  0.9614 -0.1360  0.7995
  171SOPE  C21419345   2.744   0.843   8.346 -0.6618  0.0011  0.7005
  171SOPE  H14R19346   2.839   0.889   8.313  0.0329 -3.2631 -2.3961
  171SOPE  H14S19347   2.771   0.741   8.379 -3.3065 -1.0315 -0.0148
  171SOPE  C21519348   2.664   0.919   8.454  0.3763 -0.7810 -0.2937
  171SOPE  H15R19349   2.600   0.845   8.507  0.7575 -0.5476  0.5087
  171SOPE  H15S19350   2.603   0.994   8.400 -1.7667 -2.7821 -0.8057
  171SOPE  C21619351   2.753   1.012   8.530 -0.0647 -0.2669 -0.5459
  171SOPE  H16R19352   2.698   1.081   8.598  2.7444  1.4004  0.2117
  171SOPE  H16S19353   2.810   1.078   8.461 -0.9453  2.7327  1.3884
  171SOPE  C21719354   2.848   0.939   8.629 -0.2280  0.4231  0.3685
  171SOPE  H17R19355   2.910   0.868   8.570  0.0433 -0.9682  2.2570
  171SOPE  H17S19356   2.776   0.876   8.684  0.0891 -0.8473 -0.6211
  171SOPE  C21819357   2.943   1.014   8.714  0.7183  0.2564 -0.0534
  171SOPE  H18R19358   2.997   0.948   8.786 -1.1248  0.2507  1.4005
  171SOPE  H18S19359   2.894   1.088   8.780  1.9667 -1.6180  3.2137
  171SOPE  H18T19360   3.021   1.063   8.653 -1.5303  1.7248 -1.9242
  171SOPE   C3319361   2.777   1.284   6.934  0.0642 -0.3802 -0.5876
  171SOPE   H3X19362   2.818   1.361   6.865  1.3796 -0.4740  0.0483
  171SOPE   H3Y19363   2.804   1.181   6.903  2.9632 -0.9339  2.9773
  171SOPE   C3419364   2.858   1.302   7.072  0.8550  0.5816  0.1798
  171SOPE   H4X19365   2.863   1.404   7.116  1.8769  1.2166 -1.3261
  171SOPE   H4Y19366   2.963   1.273   7.055  0.5935 -0.7403  0.6886
  171SOPE   C3519367   2.813   1.207   7.191 -0.1425  0.1893  0.2218
  171SOPE   H5X19368   2.805   1.108   7.142 -1.1754  0.8176 -0.9316
  171SOPE   H5Y19369   2.713   1.236   7.230 -0.5113 -0.3923 -0.2866
  171SOPE   C3619370   2.917   1.221   7.295  0.4671 -0.5731 -0.6601
  171SOPE   H6X19371   2.929   1.330   7.314  2.0412 -1.0797  1.7256
  171SOPE   H6Y19372   3.016   1.181   7.263  1.1876  0.3739  0.3106
  171SOPE   C3719373   2.873   1.145   7.427  0.0541 -0.2537  0.4466
  171SOPE   H7X19374   2.860   1.037   7.401  0.1982 -0.4296  1.0777
  171SOPE   H7Y19375   2.778   1.186   7.467 -0.2141 -0.5291  0.0973
  171SOPE   C3819376   2.983   1.142   7.531 -0.3915  0.3702  0.1045
  171SOPE   H8X19377   3.011   1.243   7.567  0.1068 -0.2588  1.5784
  171SOPE   H8Y19378   3.075   1.094   7.491  0.5625  1.4635  0.9468
  171SOPE   C3919379   2.936   1.075   7.659 -0.6415 -0.4385  0.1336
  171SOPE   H9X19380   2.887   0.977   7.638  0.7379 -1.0925 -0.1534
  171SOPE   H9Y19381   2.869   1.141   7.719  2.1377 -0.5241  3.6128
  171SOPE  C31019382   3.059   1.071   7.748  0.3496  0.2569 -0.3012
  171SOPE  H10X19383   3.105   1.166   7.785  2.9333 -1.4032  1.0592
  171SOPE  H10Y19384   3.140   1.004   7.711 -0.4321 -1.1322  0.4437
  171SOPE  C31119385   3.021   0.988   7.878 -0.0469  0.0806  0.1566
  171SOPE  H11X19386   3.011   0.879   7.856  1.6609  0.0429 -0.5960
  171SOPE  H11Y19387   2.929   1.034   7.920  0.7769  0.6964  1.3414
  171SOPE  C31219388   3.126   0.991   7.989 -0.2538 -0.1809 -0.0304
  171SOPE  H12X19389   3.150   1.096   8.018  1.4814 -0.6825  0.4382
  171SOPE  H12Y19390   3.219   0.938   7.960 -0.3590  0.5742 -1.8987
  171SOPE  C31319391   3.073   0.936   8.128  0.0064  0.2498  0.5716
  171SOPE  H13X19392   3.043   0.831   8.109  1.4741  0.1725 -1.5760
  171SOPE  H13Y19393   2.982   0.994   8.157  1.0070  1.3446  1.6358
  171SOPE  C31419394   3.189   0.946   8.228 -0.4032 -0.8536  0.4237
  171SOPE  H14X19395   3.223   1.052   8.227  1.6896 -1.4718 -0.2426
  171SOPE  H14Y19396   3.264   0.885   8.173 -0.6505  0.0972 -1.0358
  171SOPE  C31519397   3.151   0.902   8.376 -0.3027 -0.0257 -0.0187
  171SOPE  H15X19398   3.122   0.796   8.360 -0.6242  0.0830 -0.1548
  171SOPE  H15Y19399   3.066   0.961   8.416  0.0257  0.9183 -0.6748
  171SOPE  C31619400   3.272   0.911   8.469 -0.4337  0.3767 -1.0333
  171SOPE  H16X19401   3.290   1.016   8.501  1.9842  0.3848 -2.2000
  171SOPE  H16Y19402   3.367   0.877   8.423 -0.6199 -0.8548 -0.5274
  171SOPE  C31719403   3.260   0.825   8.603 -0.2764  0.1998  0.4352
  171SOPE  H17X19404   3.252   0.718   8.572 -0.6842  0.0265  1.1199
  171SOPE  H17Y19405   3.165   0.858   8.651 -0.6296 -1.8670  1.2862
  171SOPE  C31819406   3.382   0.837   8.687 -0.0845  0.3026 -0.2756
  171SOPE  H18X19407   3.469   0.794   8.633 -1.0969 -1.4256 -0.5890
  171SOPE  H18Y19408   3.360   0.786   8.783 -1.4022  0.9246 -0.2294
  171SOPE  H18Z19409   3.392   0.944   8.715 -1.7789  0.1587  1.0373
  172SOPE     N19410   2.792   3.333   6.413  0.9081 -0.2763  0.0685
  172SOPE   HN119411   2.700   3.333   6.462  0.8250 -1.0521 -0.0663
  172SOPE   HN219412   2.862   3.340   6.490  0.5885 -2.1671  0.5806
  172SOPE   HN319413   2.803   3.415   6.351  0.8564 -0.9074 -0.7989
  172SOPE   C1219414   2.794   3.203   6.332 -0.0657  0.0905 -0.2677
  172SOPE  H12A19415   2.703   3.210   6.269 -0.4409  1.3958  0.3717
  172SOPE  H12B19416   2.783   3.111   6.393 -0.8153  0.1326 -0.3251
  172SOPE   C1119417   2.929   3.175   6.266 -0.8966 -0.1768  0.3022
  172SOPE  H11A19418   2.941   3.248   6.183 -2.1287  1.4845  1.5267
  172SOPE  H11B19419   2.923   3.071   6.226  0.6487 -0.3704  0.4795
  172SOPE     P19420   3.177   3.140   6.342 -0.1147 -0.0447 -0.1944
  172SOPE   O1319421   3.259   3.264   6.354  0.2908 -0.0896 -0.1328
  172SOPE   O1419422   3.183   3.067   6.210  0.3995 -0.1970  0.4319
  172SOPE   O1219423   3.030   3.188   6.371  0.0270  0.1374  0.3284
  172SOPE   O1119424   3.209   3.041   6.463  0.1632 -0.9278 -0.1887
  172SOPE    C119425   3.102   2.982   6.541 -0.1795  0.2280  0.1595
  172SOPE    HA19426   3.142   2.894   6.595  1.5806 -0.2277 -1.7601
  172SOPE    HB19427   3.027   2.944   6.468  2.0626 -0.2250 -2.0477
  172SOPE    C219428   3.044   3.082   6.648  0.3361  0.0725  0.0648
  172SOPE    HS19429   3.040   3.184   6.605 -1.3793  0.1512  0.3245
  172SOPE   O2119430   3.137   3.075   6.768 -0.5246 -0.2201 -0.1433
  172SOPE   C2119431   3.238   3.160   6.776  0.4021  0.1980 -0.0193
  172SOPE   O2219432   3.257   3.254   6.700  0.4325  0.2552  0.9364
  172SOPE   C2219433   3.314   3.132   6.897  0.8150 -0.1901 -0.0680
  172SOPE   H2R19434   3.423   3.135   6.876  1.1308 -0.7399  1.3411
  172SOPE   H2S19435   3.297   3.028   6.933  0.0556 -0.1152 -0.1762
  172SOPE    C319436   2.898   3.028   6.687 -0.1907 -0.4353  0.2436
  172SOPE    HX19437   2.904   2.923   6.722 -0.9682 -1.0773 -1.4722
  172SOPE    HY19438   2.833   3.040   6.598  1.3518 -0.1404 -0.8915
  172SOPE   O3119439   2.849   3.098   6.802 -0.2040 -0.0840  0.4081
  172SOPE   C3119440   2.821   3.227   6.788  0.1486  0.1319 -0.1300
  172SOPE   O3219441   2.821   3.290   6.689  0.3828  0.4166 -0.3871
  172SOPE   C3219442   2.793   3.288   6.926  0.2989 -0.2585  0.0479
  172SOPE   H2X19443   2.876   3.265   6.997  0.8478  0.5228 -0.3189
  172SOPE   H2Y19444   2.694   3.251   6.958 -0.0629 -2.0193 -2.7960
  172SOPE   C2319445   3.286   3.227   7.013 -0.5359 -0.6596 -0.1757
  172SOPE   H3R19446   3.288   3.333   6.980 -0.0881 -0.2990  0.9508
  172SOPE   H3S19447   3.369   3.215   7.086 -1.0513 -0.0960  0.5272
  172SOPE   C2419448   3.163   3.205   7.088  0.0393  0.1920 -0.3070
  172SOPE   H4R19449   3.071   3.206   7.025 -0.3911  1.2890  0.3029
  172SOPE   H4S19450   3.164   3.103   7.133 -0.0529  0.1244 -0.4585
  172SOPE   C2519451   3.135   3.311   7.203 -0.4540  0.6928  0.3155
  172SOPE   H5R19452   3.237   3.329   7.245 -0.2389  0.5443 -0.1289
  172SOPE   H5S19453   3.087   3.398   7.156 -1.5016  0.7815  1.5068
  172SOPE   C2619454   3.038   3.254   7.305 -0.4893  0.1862  0.5493
  172SOPE   H6R19455   2.950   3.216   7.249 -0.5587  0.4744  0.4613
  172SOPE   H6S19456   3.085   3.166   7.354  2.8548  0.6952 -1.4321
  172SOPE   C2719457   3.000   3.370   7.405  0.3863  0.2057  0.2949
  172SOPE   H7R19458   3.089   3.424   7.443  1.2784 -0.1049 -1.2317
  172SOPE   H7S19459   2.946   3.448   7.347 -0.7489 -0.5323  0.3085
  172SOPE   C2819460   2.903   3.315   7.513  0.6430 -0.1085  0.7827
  172SOPE   H8R19461   2.821   3.384   7.542  0.4262 -0.6064  1.3783
  172SOPE   H8S19462   2.844   3.229   7.474 -1.8932  1.5326  0.7887
  172SOPE   C2919463   2.969   3.269   7.634 -0.3290  0.3592  0.1942
  172SOPE   H9119464   3.078   3.278   7.635 -0.2326 -0.5735 -0.8553
  172SOPE  C21019465   2.920   3.225   7.755 -0.3538  0.3109  0.2105
  172SOPE  H10119466   2.987   3.180   7.831 -0.6056 -1.9508 -0.8048
  172SOPE  C21119467   2.775   3.211   7.795 -0.2094  0.1415  0.0182
  172SOPE  H11R19468   2.741   3.106   7.811 -3.4401  0.9921 -0.5779
  172SOPE  H11S19469   2.703   3.258   7.725 -1.6967  0.8482  1.9409
  172SOPE  C21219470   2.749   3.285   7.928  0.0761 -0.1672  0.1750
  172SOPE  H12R19471   2.790   3.388   7.920  1.3813 -0.7808 -1.7665
  172SOPE  H12S19472   2.807   3.251   8.016 -1.3083 -2.3872  0.3002
  172SOPE  C21319473   2.600   3.288   7.962 -0.2221  0.2012 -0.0437
  172SOPE  H13R19474   2.566   3.183   7.962 -1.4254  0.5728 -0.0040
  172SOPE  H13S19475   2.543   3.319   7.871  1.1825  1.7118 -0.4710
  172SOPE  C21419476   2.556   3.362   8.092  0.1372  0.4808 -0.5198
  172SOPE  H14R19477   2.616   3.455   8.105  0.0002  0.2227  2.8860
  172SOPE  H14S19478   2.581   3.294   8.175 -2.2249  0.3473  0.1573
  172SOPE  C21519479   2.408   3.397   8.090  0.4064 -0.0776 -0.0861
  172SOPE  H15R19480   2.362   3.329   8.015  0.0415 -0.1031  0.1595
  172SOPE  H15S19481   2.397   3.493   8.035 -0.7176  0.5397  1.1656
  172SOPE  C21619482   2.335   3.394   8.230 -0.4838  0.2515  0.0173
  172SOPE  H16R19483   2.387   3.457   8.305 -1.9062  0.5156  0.8091
  172SOPE  H16S19484   2.331   3.288   8.263 -0.4641  0.4660  0.7150
  172SOPE  C21719485   2.192   3.448   8.226 -0.2317 -0.4518 -0.1994
  172SOPE  H17R19486   2.192   3.554   8.191  0.3716 -0.4036 -0.0643
  172SOPE  H17S19487   2.154   3.436   8.330 -1.8894 -0.5994 -0.7893
  172SOPE  C21819488   2.105   3.365   8.137  0.1256  0.4394 -0.2629
  172SOPE  H18R19489   2.129   3.259   8.159 -2.2774  0.0519  0.7750
  172SOPE  H18S19490   2.121   3.377   8.027 -0.9201  2.1686 -0.2654
  172SOPE  H18T19491   1.998   3.379   8.160 -0.0141 -1.3540  0.2865
  172SOPE   C3319492   2.784   3.438   6.925  0.0591  0.0836 -1.0449
  172SOPE   H3X19493   2.698   3.453   6.857 -1.0196  1.4055  0.5120
  172SOPE   H3Y19494   2.867   3.491   6.874 -0.6097 -0.9399 -3.3137
  172SOPE   C3419495   2.743   3.497   7.061 -0.4002 -0.1355  0.1213
  172SOPE   H4X19496   2.833   3.496   7.126 -0.4043 -0.4600  0.1225
  172SOPE   H4Y19497   2.671   3.427   7.106 -0.8832  0.1301 -0.2254
  172SOPE   C3519498   2.657   3.628   7.039  0.6960 -0.0657 -0.1546
  172SOPE   H5X19499   2.580   3.601   6.964  1.8025 -0.7949 -1.0769
  172SOPE   H5Y19500   2.719   3.713   7.003  2.3494 -1.0254  0.3003
  172SOPE   C3619501   2.587   3.677   7.172  0.0929  0.9244 -0.4276
  172SOPE   H6X19502   2.545   3.584   7.218  1.3140  0.6862  0.2433
  172SOPE   H6Y19503   2.503   3.746   7.148  0.1400  0.5902 -1.6574
  172SOPE   C3719504   2.685   3.747   7.263 -0.1691 -0.5961 -0.3346
  172SOPE   H7X19505   2.728   3.832   7.207 -0.7308 -0.7935 -1.0851
  172SOPE   H7Y19506   2.768   3.678   7.289  1.2671  1.8449  2.0582
  172SOPE   C3819507   2.631   3.778   7.401  0.4550 -0.1953 -1.0161
  172SOPE   H8X19508   2.621   3.680   7.452  1.0653 -0.6127 -1.6684
  172SOPE   H8Y19509   2.532   3.827   7.391  0.0167 -0.0120  2.6623
  172SOPE   C3919510   2.725   3.871   7.479 -0.4178  0.3175 -0.5536
  172SOPE   H9X19511   2.750   3.959   7.416 -2.0721  1.1261 -0.1449
  172SOPE   H9Y19512   2.819   3.813   7.488 -0.1448  0.7383 -0.6587
  172SOPE  C31019513   2.690   3.901   7.627  0.4828 -0.3099  0.3683
  172SOPE  H10X19514   2.608   3.976   7.623 -0.7836 -1.6176  1.0008
  172SOPE  H10Y19515   2.771   3.957   7.679  0.6091  0.6836 -0.8548
  172SOPE  C31119516   2.637   3.795   7.714 -0.4108  0.3208 -0.8994
  172SOPE  H11X19517   2.701   3.706   7.734 -0.5260  0.0086 -1.8572
  172SOPE  H11Y19518   2.538   3.752   7.686 -0.7438 -2.6372  3.8004
  172SOPE  C31219519   2.607   3.841   7.857 -0.3078 -0.8597 -0.6938
  172SOPE  H12X19520   2.536   3.925   7.843 -0.4113 -0.4825  1.6790
  172SOPE  H12Y19521   2.692   3.886   7.913 -2.7639  1.2556  1.6089
  172SOPE  C31319522   2.543   3.735   7.942  0.0564 -0.0492 -0.5515
  172SOPE  H13X19523   2.615   3.658   7.979  0.6208  1.3478  1.4099
  172SOPE  H13Y19524   2.477   3.677   7.874 -0.2048  0.2140 -0.5208
  172SOPE  C31419525   2.460   3.790   8.055  0.3770  0.4432 -0.5076
  172SOPE  H14X19526   2.425   3.700   8.110  1.3733  0.5074  0.2617
  172SOPE  H14Y19527   2.373   3.853   8.028 -0.1086  0.5646  1.2292
  172SOPE  C31519528   2.529   3.883   8.156  0.5949 -0.8819 -0.0981
  172SOPE  H15X19529   2.456   3.918   8.232  0.2540 -2.6341  0.4313
  172SOPE  H15Y19530   2.571   3.960   8.087 -0.7223 -0.4022 -0.4033
  172SOPE  C31619531   2.640   3.813   8.241  0.2247 -0.3602  1.0074
  172SOPE  H16X19532   2.713   3.788   8.160 -1.5937  2.2716 -1.6719
  172SOPE  H16Y19533   2.594   3.720   8.280 -0.5723 -2.0665 -3.4305
  172SOPE  C31719534   2.710   3.897   8.348 -0.5178  0.3398 -0.3261
  172SOPE  H17X19535   2.781   3.832   8.404 -0.9617  2.2688  2.7326
  172SOPE  H17Y19536   2.636   3.944   8.417 -1.8032 -0.3761 -1.1734
  172SOPE  C31819537   2.794   3.999   8.283  0.1963  0.3474 -1.1501
  172SOPE  H18X19538   2.868   4.038   8.357 -1.8949  1.6070  0.3638
  172SOPE  H18Y19539   2.730   4.086   8.258 -1.7150 -0.4235  0.7602
  172SOPE  H18Z19540   2.857   3.969   8.196 -0.9997  1.3597 -2.4048
  173SAPI   C1219541   1.130   3.342  10.872  0.1516  0.1455  0.5222
  173SAPI    H219542   1.134   3.453  10.876 -0.0666  0.1281  1.4801
  173SAPI    O219543   1.086   3.288  10.996  1.0178 -0.3350  0.0411
  173SAPI   HO219544   1.145   3.317  11.066  0.0484 -0.5894  0.9947
  173SAPI   C1319545   1.051   3.294  10.760 -0.4820  0.8094 -0.4431
  173SAPI    H319546   1.088   3.331  10.663  3.0806 -0.0442  0.4456
  173SAPI    O319547   0.912   3.328  10.770  0.1242  0.4159  0.1452
  173SAPI   HO319548   0.870   3.271  10.835 -1.6375 -0.0573 -1.3054
  173SAPI   C1419549   1.068   3.137  10.742  0.0818 -0.4411  0.0413
  173SAPI    H419550   1.016   3.102  10.834 -0.8591  1.2918  0.2000
  173SAPI    O419551   0.989   3.088  10.637 -0.5572 -0.1777  0.4061
  173SAPI   HO419552   0.957   3.002  10.667 -2.4488  1.1131  2.2805
  173SAPI   C1519553   1.218   3.091  10.744  0.0939 -0.6421  0.1487
  173SAPI    H519554   1.261   3.137  10.653 -0.0059  0.6565  0.7428
  173SAPI    O519555   1.232   2.952  10.742  0.0128  0.3760  0.1488
  173SAPI   HO519556   1.289   2.934  10.667 -0.6228 -0.8679 -0.0572
  173SAPI   C1619557   1.299   3.154  10.855 -0.0178  0.6166 -0.2829
  173SAPI    H619558   1.255   3.120  10.952 -0.7010  3.5900  0.5562
  173SAPI    O619559   1.437   3.114  10.838 -0.4294  0.2294 -0.2992
  173SAPI   HO619560   1.489   3.195  10.849 -0.5902  0.5579 -1.7369
  173SAPI   C1119561   1.274   3.305  10.857 -0.3724 -0.0593  0.0312
  173SAPI    H119562   1.305   3.333  10.755  2.0917 -1.0313  0.4335
  173SAPI     P19563   1.417   3.520  10.936  0.3391  0.2267 -0.2414
  173SAPI   O1319564   1.550   3.533  11.003 -0.7416  0.9831  0.1226
  173SAPI   O1419565   1.313   3.610  10.984  0.1797 -0.4044 -0.2513
  173SAPI   O1219566   1.369   3.360  10.953 -0.3126 -0.2570 -0.7482
  173SAPI   O1119567   1.440   3.531  10.780 -0.0611 -0.3569 -0.3045
  173SAPI    C119568   1.543   3.467  10.718  0.1823  0.2846  0.3147
  173SAPI    HA19569   1.637   3.524  10.733 -0.7354  2.6404 -2.0829
  173SAPI    HB19570   1.541   3.360  10.747 -0.5179  0.3597  0.5741
  173SAPI    C219571   1.521   3.467  10.563  0.4101  0.2597 -0.0105
  173SAPI    HS19572   1.530   3.575  10.537  1.4003 -0.4377 -2.9161
  173SAPI   O2119573   1.387   3.421  10.536 -0.3237 -0.3128  0.1351
  173SAPI   C2119574   1.341   3.465  10.426  0.2547  0.1145  0.0253
  173SAPI   O2219575   1.401   3.539  10.349  0.5843  0.2321  0.2805
  173SAPI   C2219576   1.191   3.431  10.411  0.3020 -0.1872 -0.3462
  173SAPI   H2R19577   1.181   3.328  10.450 -0.1217  0.4339  1.2924
  173SAPI   H2S19578   1.125   3.504  10.462 -0.0956  0.7647 -2.1267
  173SAPI    C319579   1.642   3.387  10.501  0.2714  0.0542  0.5545
  173SAPI    HX19580   1.661   3.308  10.576 -3.0049  0.7547  2.3279
  173SAPI    HY19581   1.725   3.459  10.490  0.0741  0.0670 -1.2088
  173SAPI   O3119582   1.611   3.315  10.373 -0.2566 -0.3781 -0.6994
  173SAPI   C3119583   1.716   3.258  10.321 -1.2470 -0.4421 -0.2306
  173SAPI   O3219584   1.833   3.262  10.354  0.1034  0.3072 -0.6870
  173SAPI   C3219585   1.670   3.180  10.197  0.1467  0.4662 -0.1627
  173SAPI   H2X19586   1.588   3.112  10.226  0.7577 -0.5297 -0.7228
  173SAPI   H2Y19587   1.748   3.110  10.160 -1.0835 -0.3379 -1.3128
  173SAPI   C2319588   1.133   3.430  10.263  0.1997 -0.3704 -0.1144
  173SAPI   H3R19589   1.185   3.348  10.209  1.1601  0.2805 -0.1932
  173SAPI   H3S19590   1.158   3.525  10.211  0.6736  0.7671  2.0518
  173SAPI   C2419591   0.980   3.418  10.242  0.4864  0.5635 -0.1293
  173SAPI   H4R19592   0.958   3.407  10.134  2.3360  0.8949 -0.5806
  173SAPI   H4S19593   0.948   3.516  10.281  0.9911  0.0237  1.7237
  173SAPI   C2519594   0.929   3.303  10.328  0.3476  0.2958  0.1139
  173SAPI   H5R19595   0.934   3.328  10.435 -0.8823 -0.2218  0.3106
  173SAPI   C2619596   0.872   3.190  10.285  0.2858 -0.0159 -0.0517
  173SAPI   H6R19597   0.846   3.124  10.369  0.0001  1.1540  0.7944
  173SAPI   C2719598   0.842   3.143  10.142 -0.2676 -0.7823 -0.2538
  173SAPI   H7R19599   0.776   3.222  10.099  0.3388  1.3335  2.4170
  173SAPI   H7S19600   0.783   3.049  10.142 -0.9561 -0.3677 -0.5542
  173SAPI   C2819601   0.963   3.118  10.062 -0.0975  0.2487  0.1516
  173SAPI   H8R19602   1.014   3.026  10.092  4.2787  1.1287 -3.4730
  173SAPI   C2919603   1.008   3.168   9.951  0.1537 -0.7091  0.2014
  173SAPI   H9R19604   1.107   3.132   9.920  0.3234  0.6930 -1.0191
  173SAPI  C21019605   0.949   3.277   9.870  0.2007  0.6018 -0.9673
  173SAPI  H10R19606   1.028   3.353   9.851 -0.0313  0.7732 -1.2528
  173SAPI  H10S19607   0.872   3.329   9.930 -0.5433 -1.7477  0.2239
  173SAPI  C21119608   0.888   3.244   9.735  0.1099  0.0262 -0.1986
  173SAPI  H11R19609   0.785   3.208   9.744  0.4938 -1.2242 -0.5297
  173SAPI  C21219610   0.950   3.232   9.613  0.8301  0.2747 -0.8909
  173SAPI  H12R19611   0.893   3.192   9.528 -1.0794  0.1658  0.3647
  173SAPI  C21319612   1.092   3.254   9.585 -0.6315  0.3114 -0.3688
  173SAPI  H13R19613   1.117   3.186   9.501 -2.3740  0.5448 -1.1292
  173SAPI  H13S19614   1.143   3.216   9.676 -0.9041 -0.7061 -0.6297
  173SAPI  C21419615   1.123   3.397   9.543 -0.3307 -0.1881  0.4064
  173SAPI  H14R19616   1.129   3.466   9.628  2.2790  0.0909  0.0728
  173SAPI  C21519617   1.153   3.451   9.420  0.7815 -0.3552 -0.0185
  173SAPI  H15R19618   1.172   3.559   9.414 -2.2693  0.3036  0.4029
  173SAPI  C21619619   1.163   3.381   9.287 -0.2792 -0.6498 -0.4216
  173SAPI  H16R19620   1.150   3.272   9.298 -0.0693 -0.4839  2.1743
  173SAPI  H16S19621   1.262   3.402   9.239 -0.7867 -1.5402 -1.9123
  173SAPI  C21719622   1.057   3.439   9.197  0.2603 -0.7194  0.8593
  173SAPI  H17R19623   1.079   3.410   9.092  2.1124  1.1189  0.6557
  173SAPI  H17S19624   1.080   3.548   9.199  1.3887 -0.9510  1.5494
  173SAPI  C21819625   0.912   3.407   9.242 -0.3426 -0.3037  0.5487
  173SAPI  H18R19626   0.901   3.445   9.346  2.9651  0.6604  0.6573
  173SAPI  H18S19627   0.907   3.296   9.250 -1.0330 -0.3114  0.0684
  173SAPI  C21919628   0.797   3.450   9.147  0.2511 -0.3652 -0.8574
  173SAPI  H19R19629   0.821   3.431   9.040  3.3297  1.4557 -0.6090
  173SAPI  H19S19630   0.777   3.556   9.171  0.8902 -0.2546 -0.7821
  173SAPI  C22019631   0.670   3.374   9.183  0.2767  0.2523 -0.1059
  173SAPI  H20R19632   0.675   3.263   9.189 -0.7938  0.2541  1.3150
  173SAPI  H20S19633   0.590   3.414   9.117 -1.6866 -0.4598  1.7320
  173SAPI  H20T19634   0.638   3.415   9.281 -0.1358  2.2112 -1.0036
  173SAPI   C3319635   1.623   3.262  10.066  0.2013 -0.8268 -0.1063
  173SAPI   H3X19636   1.620   3.197   9.976 -1.0636 -0.5254 -0.3078
  173SAPI   H3Y19637   1.700   3.342  10.058  2.1028 -2.5053  0.4768
  173SAPI   C3419638   1.486   3.327  10.079 -0.2339 -0.0242  0.2524
  173SAPI   H4X19639   1.478   3.384  10.174 -1.4188  2.1930 -1.0875
  173SAPI   H4Y19640   1.412   3.245  10.089  1.6801 -1.9096 -0.1760
  173SAPI   C3519641   1.473   3.425   9.952 -0.2706  0.0765 -0.1561
  173SAPI   H5X19642   1.483   3.370   9.856 -0.6518  0.3439 -0.3524
  173SAPI   H5Y19643   1.559   3.495   9.960  0.0243 -0.0982 -1.5609
  173SAPI   C3619644   1.339   3.496   9.950 -0.3638 -0.3036 -0.6645
  173SAPI   H6X19645   1.320   3.541  10.050 -0.9354  0.5632 -1.1516
  173SAPI   H6Y19646   1.268   3.412   9.936 -1.5884  0.6597 -0.4332
  173SAPI   C3719647   1.326   3.594   9.837 -0.1124 -0.1790  0.0689
  173SAPI   H7X19648   1.334   3.537   9.742 -3.1543  1.5601 -1.3778
  173SAPI   H7Y19649   1.399   3.678   9.841  0.6272 -0.8412  0.7075
  173SAPI   C3819650   1.188   3.657   9.828 -0.2898 -0.1383  0.4174
  173SAPI   H8X19651   1.106   3.582   9.829 -2.0766  1.6555 -1.8105
  173SAPI   H8Y19652   1.162   3.702   9.730 -4.0040 -0.2388  1.2133
  173SAPI   C3919653   1.156   3.765   9.934 -0.2540  1.0116  0.4028
  173SAPI   H9X19654   1.164   3.716  10.033 -0.9285 -0.4074 -0.2209
  173SAPI   H9Y19655   1.053   3.804   9.924 -0.2460  0.6310 -1.5789
  173SAPI  C31019656   1.250   3.886   9.937  0.1775 -0.2006  0.4349
  173SAPI  H10X19657   1.346   3.857   9.985  1.1846 -0.8983 -1.8661
  173SAPI  H10Y19658   1.199   3.965   9.996  0.0311  1.2064 -1.4828
  173SAPI  C31119659   1.269   3.940   9.798  0.9144 -0.5113  0.5834
  173SAPI  H11X19660   1.168   3.959   9.757  0.9930 -2.1262 -0.4440
  173SAPI  H11Y19661   1.300   3.866   9.721  1.9008  0.9743 -0.5170
  173SAPI  C31219662   1.354   4.065   9.777 -0.1911 -1.1066  0.2544
  173SAPI  H12X19663   1.457   4.051   9.815  0.9008  4.0280 -0.1175
  173SAPI  H12Y19664   1.315   4.148   9.838  0.3465 -2.1731  2.1162
  173SAPI  C31319665   1.372   4.103   9.632  0.4911  0.1215 -0.1435
  173SAPI  H13X19666   1.274   4.118   9.580  1.9025  2.7582 -2.3162
  173SAPI  H13Y19667   1.418   4.025   9.569 -0.9140  0.5868 -1.8443
  173SAPI  C31419668   1.451   4.230   9.600  0.4347 -0.3661  1.0607
  173SAPI  H14X19669   1.554   4.210   9.636  0.9928  1.2072  0.4085
  173SAPI  H14Y19670   1.397   4.303   9.663  0.1560 -2.3116  3.2363
  173SAPI  C31519671   1.438   4.263   9.449  0.1484  0.2464  0.8683
  173SAPI  H15X19672   1.435   4.373   9.435  0.2545 -0.0096 -1.7062
  173SAPI  H15Y19673   1.343   4.235   9.398  1.1053  1.9640 -2.1268
  173SAPI  C31619674   1.553   4.208   9.369 -0.7612  0.0089  0.7111
  173SAPI  H16X19675   1.550   4.097   9.379 -1.7916  0.1383  2.0840
  173SAPI  H16Y19676   1.654   4.231   9.409 -0.0022  0.1153 -1.1666
  173SAPI  C31719677   1.540   4.235   9.217  0.1256  0.5136  0.3318
  173SAPI  H17X19678   1.438   4.209   9.182  0.3154 -0.5989  0.5791
  173SAPI  H17Y19679   1.612   4.161   9.176 -1.3410  0.3026 -2.0943
  173SAPI  C31819680   1.580   4.374   9.172  0.2894 -0.7223 -0.3085
  173SAPI  H18X19681   1.527   4.443   9.241 -1.5681 -0.8308 -1.5579
  173SAPI  H18Y19682   1.542   4.388   9.068 -0.3726  0.1602  0.0395
  173SAPI  H18Z19683   1.690   4.390   9.177  0.4730 -1.9857  0.1010
  174SAPI   C1219684   4.118   3.432  10.596  0.1176  0.2692 -0.1847
  174SAPI    H219685   4.043   3.414  10.516 -1.6104 -0.2222  1.4610
  174SAPI    O219686   4.242   3.360  10.564  0.0026  0.4990  0.2505
  174SAPI   HO219687   4.218   3.278  10.522  0.4073  1.8931 -3.0160
  174SAPI   C1319688   4.149   3.578  10.592 -0.1198  0.0493  0.2906
  174SAPI    H319689   4.064   3.647  10.615  0.6071  0.2025  2.7469
  174SAPI    O319690   4.203   3.616  10.465  0.4095 -0.5830  0.5156
  174SAPI   HO319691   4.224   3.526  10.441  0.5774 -0.1914 -0.8856
  174SAPI   C1419692   4.251   3.622  10.705  0.5847  0.0297  0.6532
  174SAPI    H419693   4.341   3.558  10.696  0.4946  0.0592 -0.6354
  174SAPI    O419694   4.294   3.758  10.690  0.0926 -0.0524 -0.5030
  174SAPI   HO419695   4.337   3.767  10.605  1.4413 -1.3114  0.0073
  174SAPI   C1519696   4.186   3.596  10.835  0.2082 -0.2288  0.3002
  174SAPI    H519697   4.097   3.660  10.844  1.2320  1.1453  0.9071
  174SAPI    O519698   4.277   3.617  10.941  0.1404  0.2545  0.0849
  174SAPI   HO519699   4.231   3.618  11.025  0.9271 -0.8422  0.5587
  174SAPI   C1619700   4.136   3.450  10.839  0.0397  0.0589 -0.4489
  174SAPI    H619701   4.230   3.392  10.832  1.7767  2.5672  0.4554
  174SAPI    O619702   4.072   3.421  10.963  0.6615 -0.1628  0.6404
  174SAPI   HO619703   3.977   3.410  10.953  0.6765 -0.0131  0.3144
  174SAPI   C1119704   4.047   3.414  10.724 -0.3292 -0.0049  0.1509
  174SAPI    H119705   3.958   3.479  10.710 -0.9169 -0.9858 -0.7991
  174SAPI     P19706   3.860   3.232  10.777  0.1155  0.2665  0.3806
  174SAPI   O1319707   3.823   3.329  10.887 -0.0571  0.2227 -0.0104
  174SAPI   O1419708   3.860   3.087  10.804  0.5971 -0.1033 -0.0960
  174SAPI   O1219709   4.016   3.270  10.725  0.4282  0.4975  0.5861
  174SAPI   O1119710   3.757   3.246  10.653 -0.6122  0.0322 -0.3701
  174SAPI    C119711   3.789   3.189  10.529  0.0552 -0.3025  0.2512
  174SAPI    HA19712   3.900   3.186  10.516  0.2425  2.1951  0.7355
  174SAPI    HB19713   3.747   3.088  10.509  1.2293 -0.3351 -2.3842
  174SAPI    C219714   3.741   3.280  10.415 -0.3323 -0.3133  0.2875
  174SAPI    HS19715   3.777   3.383  10.432 -0.3065 -0.2756  0.0111
  174SAPI   O2119716   3.596   3.263  10.403 -0.2376  0.2291  0.1251
  174SAPI   C2119717   3.518   3.352  10.463  0.1695  0.3529  0.6527
  174SAPI   O2219718   3.554   3.452  10.515 -0.0087 -0.1678 -0.2005
  174SAPI   C2219719   3.373   3.321  10.433 -0.5702 -0.5257 -0.2025
  174SAPI   H2R19720   3.373   3.262  10.339 -2.0426  0.1964 -0.6915
  174SAPI   H2S19721   3.335   3.264  10.520 -2.2706 -0.4929 -0.8865
  174SAPI    C319722   3.800   3.234  10.271  0.2249 -0.6801 -1.0018
  174SAPI    HX19723   3.772   3.308  10.194 -0.7413 -1.4691 -1.4272
  174SAPI    HY19724   3.734   3.148  10.248 -1.8465  0.1181  1.4251
  174SAPI   O3119725   3.941   3.204  10.261 -0.6818 -0.0857 -0.6357
  174SAPI   C3119726   4.012   3.320  10.244 -0.4576  0.4612  0.3178
  174SAPI   O3219727   3.962   3.429  10.274  0.4199  0.3246 -0.1937
  174SAPI   C3219728   4.154   3.294  10.182  0.3694 -0.6090  0.0165
  174SAPI   H2X19729   4.147   3.204  10.118 -1.4730 -0.2732 -0.3186
  174SAPI   H2Y19730   4.212   3.267  10.273  1.5454 -1.4441 -0.9456
  174SAPI   C2319731   3.276   3.440  10.420 -0.1526  0.6906 -0.1162
  174SAPI   H3R19732   3.295   3.530  10.482 -1.5396  1.4111 -0.6906
  174SAPI   H3S19733   3.173   3.405  10.444 -0.2956  2.3456  2.0145
  174SAPI   C2419734   3.269   3.491  10.271  0.2015 -0.0265 -0.5860
  174SAPI   H4R19735   3.183   3.560  10.261 -1.1065 -1.9537 -4.2394
  174SAPI   H4S19736   3.235   3.400  10.218  0.2553 -0.7156  0.5148
  174SAPI   C2519737   3.400   3.554  10.225 -0.6588  1.0409 -0.3137
  174SAPI   H5R19738   3.415   3.654  10.269 -0.8317  0.5289  0.9477
  174SAPI   C2619739   3.484   3.505  10.136 -0.5275  0.1062 -0.0996
  174SAPI   H6R19740   3.573   3.561  10.102 -0.0760 -0.5728 -0.0559
  174SAPI   C2719741   3.464   3.375  10.055  0.2657  0.3181  0.6043
  174SAPI   H7R19742   3.373   3.314  10.069 -0.7211  0.8362 -2.7857
  174SAPI   H7S19743   3.544   3.303  10.083 -0.0871 -0.8156 -1.1781
  174SAPI   C2819744   3.501   3.396   9.912 -0.5824 -0.0083 -0.0242
  174SAPI   H8R19745   3.595   3.447   9.884  0.1120 -1.6230 -0.7242
  174SAPI   C2919746   3.427   3.351   9.811  0.0288 -0.1586  0.2517
  174SAPI   H9R19747   3.468   3.362   9.710 -0.3282 -0.3800  0.0811
  174SAPI  C21019748   3.293   3.283   9.818  0.1764 -1.3927  0.2529
  174SAPI  H10R19749   3.218   3.360   9.844  0.5825 -0.6155 -0.7866
  174SAPI  H10S19750   3.289   3.216   9.906 -1.6054 -0.8018  0.6521
  174SAPI  C21119751   3.259   3.205   9.692 -1.0813 -0.4052  0.2864
  174SAPI  H11R19752   3.205   3.263   9.616  0.8137 -0.6357 -1.2909
  174SAPI  C21219753   3.279   3.077   9.665 -0.3387  0.2641  0.2620
  174SAPI  H12R19754   3.271   3.060   9.557  1.8479  3.3407 -0.5379
  174SAPI  C21319755   3.351   2.978   9.752 -0.0280 -0.6570 -0.1779
  174SAPI  H13R19756   3.369   3.022   9.852 -0.6697 -0.8901  0.0410
  174SAPI  H13S19757   3.453   2.966   9.711 -0.1403 -1.3004 -0.2710
  174SAPI  C21419758   3.277   2.844   9.758 -0.0865  1.1914 -0.0399
  174SAPI  H14R19759   3.207   2.827   9.841  1.9991  1.5600  1.8745
  174SAPI  C21519760   3.289   2.745   9.665 -0.3892  0.0231  0.1100
  174SAPI  H15R19761   3.237   2.649   9.678  2.0301 -1.4814 -0.6669
  174SAPI  C21619762   3.383   2.753   9.549 -0.7025  0.3235  0.0273
  174SAPI  H16R19763   3.390   2.859   9.516 -2.5048  0.9842  1.5703
  174SAPI  H16S19764   3.324   2.707   9.466 -0.6374  2.6308 -1.3862
  174SAPI  C21719765   3.525   2.691   9.567  0.3316 -0.1305 -0.3003
  174SAPI  H17R19766   3.516   2.592   9.616  1.4364 -0.4549 -0.7239
  174SAPI  H17S19767   3.589   2.748   9.637  1.0992 -0.7999 -0.4487
  174SAPI  C21819768   3.590   2.658   9.436  0.2863  0.3518  0.1580
  174SAPI  H18R19769   3.525   2.590   9.378 -2.8157  2.3772  1.0178
  174SAPI  H18S19770   3.685   2.606   9.461 -0.2791 -0.6542  0.2685
  174SAPI  C21919771   3.620   2.781   9.343  0.1754  0.2072  0.1103
  174SAPI  H19R19772   3.658   2.863   9.407  1.6323 -2.3491  2.7187
  174SAPI  H19S19773   3.526   2.813   9.294  1.2530  3.0523 -0.2843
  174SAPI  C22019774   3.731   2.743   9.241  0.1735  0.0495  0.3646
  174SAPI  H20R19775   3.720   2.646   9.189  1.3063 -0.3174  0.7751
  174SAPI  H20S19776   3.836   2.747   9.275  1.0538  2.0650 -2.2617
  174SAPI  H20T19777   3.718   2.823   9.165  3.0906 -0.9296 -1.3205
  174SAPI   C3319778   4.220   3.418  10.124  0.3481  0.5256 -0.4173
  174SAPI   H3X19779   4.329   3.399  10.136  0.1271 -3.4945 -3.1369
  174SAPI   H3Y19780   4.189   3.505  10.187  2.2802  0.1756  1.1383
  174SAPI   C3419781   4.203   3.427   9.971  0.3043 -0.3452 -0.5791
  174SAPI   H4X19782   4.195   3.325   9.927  1.9328 -1.5003  1.6296
  174SAPI   H4Y19783   4.291   3.478   9.928  1.0820  0.2232  1.5908
  174SAPI   C3519784   4.073   3.513   9.938  0.8732  0.5958 -0.3570
  174SAPI   H5X19785   4.086   3.622   9.952  1.4508  0.9407 -3.0698
  174SAPI   H5Y19786   3.997   3.470  10.006  0.3473 -3.6909 -3.2583
  174SAPI   C3619787   4.028   3.508   9.789  0.0322  0.4313  0.0359
  174SAPI   H6X19788   3.976   3.603   9.762  0.3385  0.3501 -0.8514
  174SAPI   H6Y19789   3.962   3.421   9.770 -0.6436  1.0697 -0.6283
  174SAPI   C3719790   4.144   3.493   9.689  0.8482 -0.2273 -0.0483
  174SAPI   H7X19791   4.190   3.394   9.707  3.8961  1.1244  0.2196
  174SAPI   H7Y19792   4.219   3.568   9.723  0.6610  0.0360 -0.2089
  174SAPI   C3819793   4.122   3.496   9.534  0.1080 -0.1840  0.5912
  174SAPI   H8X19794   4.206   3.440   9.489 -0.3073 -1.5888  1.5192
  174SAPI   H8Y19795   4.121   3.604   9.506  1.6610 -0.7893 -2.1209
  174SAPI   C3919796   3.984   3.430   9.494  0.3684 -0.0078 -0.7695
  174SAPI   H9X19797   3.900   3.487   9.537 -0.6224 -2.1945  0.3618
  174SAPI   H9Y19798   3.986   3.334   9.550  0.2493  1.1100  1.2669
  174SAPI  C31019799   3.967   3.398   9.347  0.4848  0.0432 -0.0660
  174SAPI  H10X19800   3.882   3.331   9.323 -0.7792  1.4146  0.4345
  174SAPI  H10Y19801   4.058   3.344   9.312  1.3672  0.3928  1.5758
  174SAPI  C31119802   3.967   3.522   9.266  0.0292  0.5921  0.3914
  174SAPI  H11X19803   4.063   3.572   9.290 -0.3570  1.2675  0.5425
  174SAPI  H11Y19804   3.890   3.598   9.290 -0.7290  0.9647 -2.7694
  174SAPI  C31219805   3.940   3.483   9.126 -0.2840  0.0381 -0.0380
  174SAPI  H12X19806   3.830   3.465   9.118 -0.6667  1.8621  0.5476
  174SAPI  H12Y19807   3.989   3.390   9.091  0.2537  0.6454 -0.9438
  174SAPI  C31319808   3.970   3.597   9.028  0.2793  0.0439  0.5608
  174SAPI  H13X19809   4.074   3.633   9.042  1.0254 -1.3835 -0.8970
  174SAPI  H13Y19810   3.897   3.678   9.049 -1.1596 -1.3116  1.0602
  174SAPI  C31419811   3.966   3.562   8.879  0.1710 -0.7378  0.8741
  174SAPI  H14X19812   3.865   3.519   8.858 -0.1959  0.4544  0.1332
  174SAPI  H14Y19813   4.043   3.486   8.853 -0.5828 -1.6962  1.3492
  174SAPI  C31519814   3.998   3.690   8.797 -0.6116  0.3091  0.2182
  174SAPI  H15X19815   4.100   3.727   8.823 -1.4438  2.2444  0.8626
  174SAPI  H15Y19816   3.926   3.769   8.828 -1.1203 -0.5054  1.1787
  174SAPI  C31619817   4.009   3.666   8.644  0.2046 -0.2861  0.6649
  174SAPI  H16X19818   4.086   3.587   8.630 -0.1722 -0.7060  0.9442
  174SAPI  H16Y19819   4.042   3.757   8.589  0.1360 -1.1657 -0.8883
  174SAPI  C31719820   3.876   3.617   8.583 -0.3691  0.5770  0.6411
  174SAPI  H17X19821   3.802   3.700   8.584 -0.9832  0.2035 -2.7755
  174SAPI  H17Y19822   3.827   3.533   8.637 -1.6528  0.6496 -0.3661
  174SAPI  C31819823   3.887   3.570   8.435  0.4092 -0.3869  0.1472
  174SAPI  H18X19824   3.790   3.536   8.393  0.2104 -1.7695  1.6647
  174SAPI  H18Y19825   3.963   3.490   8.429  0.1809 -0.4999 -2.2583
  174SAPI  H18Z19826   3.917   3.655   8.369 -1.7873  0.4916  0.2115
  175SAPI   C1219827   4.847   6.043   6.374 -1.1262 -0.1920 -0.6857
  175SAPI    H219828   4.799   6.032   6.274 -3.6294  2.0948  0.1324
  175SAPI    O219829   4.832   5.921   6.441  0.2466  0.2660 -0.1132
  175SAPI   HO219830   4.771   5.934   6.513  0.2273 -0.3953 -0.0001
  175SAPI   C1319831   4.995   6.085   6.355 -0.5195  0.0862  1.0109
  175SAPI    H319832   5.004   6.173   6.288 -1.1569 -2.5193 -2.8218
  175SAPI    O319833   5.055   5.982   6.275  0.6707 -0.3578 -0.5781
  175SAPI   HO319834   5.122   6.021   6.218  0.1186  1.3521 -0.1267
  175SAPI   C1419835   5.052   6.093   6.492 -0.6782 -0.1337  0.2277
  175SAPI    H419836   5.040   5.998   6.549 -1.1373  1.0308  2.1598
  175SAPI    O419837   5.191   6.114   6.480 -0.7750 -0.4287 -0.3389
  175SAPI   HO419838   5.229   6.031   6.450 -1.2414 -0.3129 -1.2964
  175SAPI   C1519839   4.982   6.205   6.572  0.0307  0.0644  0.1688
  175SAPI    H519840   5.012   6.302   6.527  2.0149 -0.9885 -0.8941
  175SAPI    O519841   5.028   6.211   6.704 -0.0124  0.1101 -0.0295
  175SAPI   HO519842   5.026   6.302   6.733 -2.1259  0.3396 -0.7013
  175SAPI   C1619843   4.837   6.189   6.575  0.7065  0.2590  0.0636
  175SAPI    H619844   4.816   6.099   6.637 -3.4009 -0.3355 -1.8270
  175SAPI    O619845   4.769   6.301   6.628  0.3940 -0.3407 -0.5934
  175SAPI   HO619846   4.678   6.276   6.642  0.5808 -0.2776  0.9208
  175SAPI   C1119847   4.766   6.160   6.442 -0.5943  0.0170 -0.0083
  175SAPI    H119848   4.779   6.250   6.378 -1.0509  0.7439  0.8894
  175SAPI     P19849   4.516   6.232   6.401  0.5206 -0.0916  0.0149
  175SAPI   O1319850   4.395   6.155   6.377  0.2688  0.0981 -0.9127
  175SAPI   O1419851   4.578   6.313   6.293 -0.2853  0.0156 -0.3310
  175SAPI   O1219852   4.625   6.121   6.444  0.3485  0.1639 -0.5294
  175SAPI   O1119853   4.510   6.315   6.536  0.0500 -0.2100 -0.6654
  175SAPI    C119854   4.395   6.314   6.627 -0.7557  0.5519  0.7225
  175SAPI    HA19855   4.295   6.333   6.581 -0.5793 -0.9226 -0.3575
  175SAPI    HB19856   4.382   6.215   6.676 -1.3898  0.6902  0.8492
  175SAPI    C219857   4.425   6.412   6.737  0.2231 -0.1200 -0.4244
  175SAPI    HS19858   4.450   6.512   6.694  2.6672 -0.4448  0.1382
  175SAPI   O2119859   4.530   6.352   6.821 -0.8476 -0.1645  0.0764
  175SAPI   C2119860   4.599   6.449   6.885  0.1600 -0.2469  0.4595
  175SAPI   O2219861   4.570   6.569   6.880 -0.0453 -0.0106 -0.2914
  175SAPI   C2219862   4.714   6.382   6.960  0.3069 -0.3282  0.5554
  175SAPI   H2R19863   4.684   6.303   7.032 -0.1876  1.0181  1.8981
  175SAPI   H2S19864   4.785   6.336   6.889 -1.9102 -2.2645 -0.5132
  175SAPI    C319865   4.301   6.428   6.836  0.3219 -0.2997  0.3258
  175SAPI    HX19866   4.269   6.325   6.863  0.7902 -0.6514 -0.4309
  175SAPI    HY19867   4.219   6.455   6.766  1.7705 -0.4630 -1.5097
  175SAPI   O3119868   4.325   6.511   6.947  0.1028 -0.9335 -0.0213
  175SAPI   C3119869   4.275   6.635   6.932  1.0295 -0.5831  0.2795
  175SAPI   O3219870   4.217   6.685   6.839  0.3305  0.3745  0.6383
  175SAPI   C3219871   4.303   6.710   7.063 -0.6601 -0.5547 -0.0311
  175SAPI   H2X19872   4.267   6.814   7.050 -0.6914 -0.4696  0.7009
  175SAPI   H2Y19873   4.414   6.714   7.075 -0.7501 -0.6869  0.9172
  175SAPI   C2319874   4.776   6.485   7.059 -0.3317 -1.0405  0.3701
  175SAPI   H3R19875   4.799   6.576   7.000 -4.2891 -1.0362 -1.4539
  175SAPI   H3S19876   4.870   6.436   7.093 -0.1060 -1.0854 -0.3041
  175SAPI   C2419877   4.683   6.506   7.181  0.4985  0.0609  0.2004
  175SAPI   H4R19878   4.654   6.404   7.217 -0.6723  0.8845  1.6888
  175SAPI   H4S19879   4.588   6.543   7.139  0.2263 -0.6940  0.1291
  175SAPI   C2519880   4.740   6.605   7.275  0.2586  0.5098 -0.0918
  175SAPI   H5R19881   4.821   6.667   7.234  3.0420 -1.7569  1.6374
  175SAPI   C2619882   4.704   6.627   7.402  0.3412 -0.4842 -0.3349
  175SAPI   H6R19883   4.754   6.710   7.455  1.4566 -0.7884 -0.8811
  175SAPI   C2719884   4.595   6.563   7.483 -0.3654 -0.1012 -0.2947
  175SAPI   H7R19885   4.556   6.474   7.428  0.1749 -0.4992 -0.0511
  175SAPI   H7S19886   4.506   6.629   7.480 -0.6813 -0.5305 -0.6174
  175SAPI   C2819887   4.614   6.541   7.628 -0.4422  0.2094  0.7578
  175SAPI   H8R19888   4.712   6.569   7.670 -0.0949  0.9258 -0.4695
  175SAPI   C2919889   4.520   6.508   7.718  1.0628  0.6563 -0.4715
  175SAPI   H9R19890   4.536   6.521   7.826  0.1075  0.5377 -0.3064
  175SAPI  C21019891   4.373   6.475   7.697  0.4446  0.0078  1.0262
  175SAPI  H10R19892   4.357   6.366   7.709 -3.2827  0.4729  1.4986
  175SAPI  H10S19893   4.334   6.491   7.594 -0.7832  2.1826  1.7642
  175SAPI  C21119894   4.273   6.543   7.795 -0.2088  0.3086  0.1288
  175SAPI  H11R19895   4.193   6.609   7.757 -0.5735  1.1581  2.2474
  175SAPI  C21219896   4.270   6.536   7.931 -0.5974  0.0659 -0.6658
  175SAPI  H12R19897   4.189   6.585   7.986 -1.5714  0.3769 -2.3011
  175SAPI  C21319898   4.364   6.456   8.012 -0.2803 -0.3057  0.6353
  175SAPI  H13R19899   4.432   6.529   8.060 -1.8146 -0.1434  2.6729
  175SAPI  H13S19900   4.428   6.392   7.946 -1.5728  0.9126 -1.9503
  175SAPI  C21419901   4.298   6.378   8.126  0.2735 -0.2796  0.1094
  175SAPI  H14R19902   4.274   6.273   8.104  1.8858 -0.4413 -1.0742
  175SAPI  C21519903   4.267   6.420   8.252 -0.2178 -0.3201 -0.3935
  175SAPI  H15R19904   4.214   6.356   8.324 -0.9011  1.2007  0.5249
  175SAPI  C21619905   4.292   6.561   8.304  0.0607 -0.2055 -0.6047
  175SAPI  H16R19906   4.203   6.590   8.364 -1.0754 -3.5030 -0.4697
  175SAPI  H16S19907   4.299   6.639   8.225 -2.0819  1.5242  0.7747
  175SAPI  C21719908   4.411   6.571   8.396 -0.4628 -0.2797 -0.7664
  175SAPI  H17R19909   4.434   6.679   8.410 -1.9737 -0.2663  2.6777
  175SAPI  H17S19910   4.499   6.530   8.343  0.5433  0.9118 -0.0772
  175SAPI  C21819911   4.385   6.500   8.533 -0.5120 -0.1610 -0.0554
  175SAPI  H18R19912   4.370   6.392   8.513 -1.4961  0.3095 -2.1212
  175SAPI  H18S19913   4.293   6.552   8.569  0.3859  0.9713  0.6989
  175SAPI  C21919914   4.504   6.507   8.633 -0.2839  0.1257 -0.3145
  175SAPI  H19R19915   4.537   6.613   8.631  1.0041 -0.2103  1.1332
  175SAPI  H19S19916   4.588   6.447   8.592  0.8302  1.3533  0.0925
  175SAPI  C22019917   4.471   6.456   8.776  0.5433 -0.1360 -0.0013
  175SAPI  H20R19918   4.466   6.345   8.773  2.1990 -0.2139 -0.7218
  175SAPI  H20S19919   4.374   6.494   8.815  0.2589 -0.4233 -0.4194
  175SAPI  H20T19920   4.556   6.479   8.844 -0.9654 -0.9786  2.2936
  175SAPI   C3319921   4.223   6.633   7.175  0.2464  0.3528  0.4060
  175SAPI   H3X19922   4.258   6.529   7.185 -0.7813 -0.1062 -0.5688
  175SAPI   H3Y19923   4.116   6.634   7.145  1.3432  0.1486 -4.3588
  175SAPI   C3419924   4.240   6.723   7.302  0.7196  0.2374  0.4734
  175SAPI   H4X19925   4.194   6.823   7.285 -0.2138  0.0771  1.9120
  175SAPI   H4Y19926   4.350   6.735   7.317  1.1372 -1.2305 -1.1357
  175SAPI   C3519927   4.167   6.666   7.419  0.3809  1.3250  0.1036
  175SAPI   H5X19928   4.189   6.728   7.508 -0.5197  0.7931  0.7192
  175SAPI   H5Y19929   4.219   6.572   7.447 -0.9486  0.8838  1.2148
  175SAPI   C3619930   4.018   6.638   7.399 -0.3217  0.3189  0.3851
  175SAPI   H6X19931   4.016   6.547   7.335  2.0928 -0.1362  0.8784
  175SAPI   H6Y19932   3.973   6.719   7.337  1.2880  0.4759 -0.6458
  175SAPI   C3719933   3.926   6.621   7.523 -0.1215  0.7926 -0.6003
  175SAPI   H7X19934   3.931   6.728   7.554  0.6021  0.6997 -0.3745
  175SAPI   H7Y19935   3.972   6.554   7.599  1.1518  2.3628  0.0675
  175SAPI   C3819936   3.792   6.566   7.475 -0.4584 -0.1201 -0.1272
  175SAPI   H8X19937   3.818   6.468   7.428  0.8410 -0.9044  2.0706
  175SAPI   H8Y19938   3.751   6.627   7.391  0.2242  1.4661  0.6624
  175SAPI   C3919939   3.700   6.554   7.597 -0.1424 -0.1997  0.7850
  175SAPI   H9X19940   3.667   6.656   7.624  1.0471  0.8107 -1.3411
  175SAPI   H9Y19941   3.756   6.522   7.688 -0.9151  0.3274  1.4678
  175SAPI  C31019942   3.577   6.472   7.574 -0.2464  0.1712  0.2682
  175SAPI  H10X19943   3.602   6.388   7.505 -1.2403 -2.6667  3.1622
  175SAPI  H10Y19944   3.504   6.537   7.521 -1.3794  0.8333  2.5396
  175SAPI  C31119945   3.508   6.417   7.698  0.0376  0.0379  0.4795
  175SAPI  H11X19946   3.584   6.348   7.740  2.7686  0.1794 -3.6701
  175SAPI  H11Y19947   3.421   6.361   7.656  1.5017 -3.5134  1.7671
  175SAPI  C31219948   3.463   6.518   7.792  0.2462 -0.5073  0.1916
  175SAPI  H12X19949   3.398   6.589   7.737  1.0682 -0.3578 -0.5968
  175SAPI  H12Y19950   3.555   6.570   7.825  0.1066  0.2958 -0.6449
  175SAPI  C31319951   3.389   6.483   7.922 -0.2235  0.3547 -0.0112
  175SAPI  H13X19952   3.294   6.440   7.884  0.3410 -2.5983  1.6215
  175SAPI  H13Y19953   3.358   6.571   7.983 -2.5205 -1.2842  1.3549
  175SAPI  C31419954   3.476   6.389   8.015  0.8935  0.2082  0.3379
  175SAPI  H14X19955   3.585   6.411   8.005  1.1262 -1.2862 -0.7073
  175SAPI  H14Y19956   3.472   6.284   7.981  1.4299  0.4904 -0.6633
  175SAPI  C31519957   3.437   6.388   8.163  0.0049 -0.3523  0.4828
  175SAPI  H15X19958   3.336   6.354   8.194 -0.1423  1.4603  2.2689
  175SAPI  H15Y19959   3.439   6.494   8.198  2.2925 -0.0556 -0.3822
  175SAPI  C31619960   3.532   6.320   8.258  0.0275 -0.9328  0.1232
  175SAPI  H16X19961   3.619   6.383   8.282 -0.7206 -0.1026  0.6993
  175SAPI  H16Y19962   3.573   6.232   8.204  0.7900 -0.9839  0.7731
  175SAPI  C31719963   3.469   6.277   8.393 -0.0162 -0.7273 -0.2556
  175SAPI  H17X19964   3.384   6.210   8.368 -1.9677  1.4215  0.2010
  175SAPI  H17Y19965   3.429   6.373   8.433 -3.3716 -2.0195 -0.2415
  175SAPI  C31819966   3.577   6.239   8.486 -0.2361  0.4406 -0.0832
  175SAPI  H18X19967   3.663   6.309   8.491  0.1557  0.1467 -1.9600
  175SAPI  H18Y19968   3.609   6.135   8.463 -0.4358  0.2856  0.3265
  175SAPI  H18Z19969   3.534   6.226   8.587  1.6191 -0.9349  0.5895
  176SAPI   C1219970   3.411   5.348   6.381 -0.0837  0.2995  0.2775
  176SAPI    H219971   3.354   5.307   6.467 -1.2706  2.2732  0.5066
  176SAPI    O219972   3.334   5.350   6.260  0.2075 -0.1340 -0.3395
  176SAPI   HO219973   3.260   5.406   6.284  0.3641  0.1720 -0.5746
  176SAPI   C1319974   3.436   5.498   6.407 -0.8949 -0.2881  0.5111
  176SAPI    H319975   3.488   5.511   6.505  0.5864  0.7566 -0.3781
  176SAPI    O319976   3.308   5.562   6.424 -0.4958 -0.1118  0.3231
  176SAPI   HO319977   3.291   5.562   6.518  0.5486 -0.6603  0.5271
  176SAPI   C1419978   3.520   5.563   6.299 -0.5733 -0.4296 -0.2241
  176SAPI    H419979   3.455   5.550   6.210 -0.2153  0.5518 -0.6372
  176SAPI    O419980   3.537   5.702   6.329 -0.0191 -0.1477  0.5725
  176SAPI   HO419981   3.451   5.745   6.328  0.5438  1.0683  1.8489
  176SAPI   C1519982   3.647   5.489   6.272 -0.9733 -0.5457 -0.5540
  176SAPI    H519983   3.711   5.495   6.362 -0.8549 -1.5426 -0.5628
  176SAPI    O519984   3.730   5.554   6.180 -0.0240 -0.0569  0.3275
  176SAPI   HO519985   3.692   5.640   6.160  0.6085 -0.0236 -0.8390
  176SAPI   C1619986   3.620   5.342   6.250  0.2662 -0.2112 -0.2036
  176SAPI    H619987   3.567   5.334   6.152 -1.4850 -1.5416  0.7832
  176SAPI    O619988   3.749   5.286   6.239  0.1193 -0.8854  0.3685
  176SAPI   HO619989   3.792   5.282   6.325 -1.0542 -0.4855  0.9890
  176SAPI   C1119990   3.541   5.275   6.364  0.1701  0.1557  0.4340
  176SAPI    H119991   3.600   5.294   6.456  1.4121 -0.0292 -0.3043
  176SAPI     P19992   3.540   5.034   6.472  0.4022  0.0623 -0.2205
  176SAPI   O1319993   3.587   5.100   6.597  0.3520 -0.2092  0.2438
  176SAPI   O1419994   3.612   4.909   6.433  0.3632  0.4706  0.7928
  176SAPI   O1219995   3.535   5.134   6.349  0.1685 -0.1078 -0.0216
  176SAPI   O1119996   3.394   4.992   6.502  0.1380 -0.1404  0.2626
  176SAPI    C119997   3.286   4.999   6.408 -0.4624  0.4473 -0.1499
  176SAPI    HA19998   3.276   5.108   6.389 -2.9816  0.5948  1.4363
  176SAPI    HB19999   3.312   4.943   6.316  0.7284  1.8079 -0.6719
  176SAPI    C220000   3.150   4.978   6.479  0.5247 -0.0516  0.1313
  176SAPI    HS20001   3.069   5.015   6.413 -0.6248 -0.8221  1.0714
  176SAPI   O2120002   3.138   5.049   6.608  0.7326  0.5472  0.3110
  176SAPI   C2120003   3.111   5.176   6.591 -0.1095  0.0001 -0.5386
  176SAPI   O2220004   3.087   5.233   6.485  0.5894 -0.2455 -0.1276
  176SAPI   C2220005   3.113   5.244   6.725 -0.2531 -0.6443  0.7423
  176SAPI   H2R20006   3.011   5.236   6.768  0.0382  0.4384  1.6642
  176SAPI   H2S20007   3.182   5.189   6.792  1.3526  2.5666  1.8850
  176SAPI    C320008   3.141   4.828   6.522 -0.3330 -0.9725  0.7806
  176SAPI    HX20009   3.238   4.798   6.567  0.2905 -0.6499 -0.2991
  176SAPI    HY20010   3.131   4.767   6.430 -0.5346  0.5366 -0.2380
  176SAPI   O3120011   3.029   4.805   6.607 -0.2369  0.0071 -0.0341
  176SAPI   C3120012   3.043   4.677   6.660  0.0200 -0.5338  0.6306
  176SAPI   O3220013   3.142   4.608   6.643  0.1835  0.1036 -0.2476
  176SAPI   C3220014   2.921   4.640   6.734  0.0719  0.7417 -0.1921
  176SAPI   H2X20015   2.847   4.600   6.661  0.6494  1.8849 -1.4489
  176SAPI   H2Y20016   2.882   4.733   6.779  1.4150  1.8762 -1.2770
  176SAPI   C2320017   3.152   5.397   6.716 -0.0674  0.2724 -0.1214
  176SAPI   H3R20018   3.075   5.446   6.653 -0.5073  1.2611  1.1545
  176SAPI   H3S20019   3.247   5.393   6.657  0.1351  0.4700  0.1897
  176SAPI   C2420020   3.176   5.473   6.843 -0.5207  0.5185  0.1048
  176SAPI   H4R20021   3.262   5.541   6.825 -0.4950 -0.0851 -2.4076
  176SAPI   H4S20022   3.198   5.402   6.926  0.3120 -0.4648 -0.9222
  176SAPI   C2520023   3.059   5.562   6.873 -0.3587  0.0667 -0.1072
  176SAPI   H5R20024   3.053   5.645   6.802  3.3581 -1.8820 -3.0585
  176SAPI   C2620025   2.995   5.563   6.992 -0.0770  0.4737  0.9038
  176SAPI   H6R20026   2.908   5.629   7.006 -1.1864 -0.7160 -0.0456
  176SAPI   C2720027   3.011   5.467   7.111 -0.1001 -0.3751  0.3908
  176SAPI   H7R20028   3.021   5.366   7.066 -0.8104 -0.3934  0.2651
  176SAPI   H7S20029   2.912   5.462   7.162 -0.5993  0.5041 -0.4736
  176SAPI   C2820030   3.127   5.486   7.204 -0.2527  0.2008 -0.0602
  176SAPI   H8R20031   3.223   5.471   7.153 -0.6603  0.8834 -1.0752
  176SAPI   C2920032   3.121   5.521   7.335 -0.1362  0.4556 -0.3306
  176SAPI   H9R20033   3.218   5.538   7.383  0.5827 -0.6146 -1.3562
  176SAPI  C21020034   2.996   5.541   7.423 -0.2750 -0.0312 -0.4175
  176SAPI  H10R20035   2.907   5.492   7.380 -0.3414 -0.2227 -0.0650
  176SAPI  H10S20036   2.971   5.648   7.439 -2.1361 -0.2920 -1.3625
  176SAPI  C21120037   3.018   5.475   7.558 -0.5337 -0.0678  0.2487
  176SAPI  H11R20038   3.079   5.383   7.563 -1.8664 -0.9467  0.9500
  176SAPI  C21220039   2.963   5.513   7.672  0.7530  0.1799 -0.2021
  176SAPI  H12R20040   2.986   5.466   7.769 -3.6165 -1.8925  0.0782
  176SAPI  C21320041   2.867   5.636   7.683  0.3854  0.8583 -0.9711
  176SAPI  H13R20042   2.795   5.618   7.767  2.4251  4.0135  1.6928
  176SAPI  H13S20043   2.816   5.638   7.585  1.1497  1.8525 -1.3569
  176SAPI  C21420044   2.933   5.762   7.702 -0.1384 -0.3470  0.7123
  176SAPI  H14R20045   2.960   5.809   7.607  2.1168 -0.1187  1.4223
  176SAPI  C21520046   2.948   5.828   7.819  0.4495  0.3286  0.1322
  176SAPI  H15R20047   2.992   5.929   7.818  1.5670 -0.1030  1.9338
  176SAPI  C21620048   2.907   5.765   7.954  0.3229  0.0548 -0.2587
  176SAPI  H16R20049   2.982   5.798   8.029  0.3477  0.8617 -0.6259
  176SAPI  H16S20050   2.900   5.654   7.955 -0.6530  0.0494 -2.4482
  176SAPI  C21720051   2.774   5.815   8.014  0.4445 -1.0498  0.7178
  176SAPI  H17R20052   2.776   5.925   8.032 -0.3303 -1.1319  1.3715
  176SAPI  H17S20053   2.766   5.758   8.109  3.8280 -1.7383  0.7412
  176SAPI  C21820054   2.649   5.791   7.927 -0.6712 -0.0471 -0.0140
  176SAPI  H18R20055   2.637   5.684   7.899 -0.0186 -0.0867 -0.1602
  176SAPI  H18S20056   2.656   5.838   7.827 -1.4453 -0.6844 -0.3824
  176SAPI  C21920057   2.517   5.834   7.985  0.2217  0.3672 -0.7010
  176SAPI  H19R20058   2.521   5.945   7.992 -1.8188  0.3668  2.2888
  176SAPI  H19S20059   2.505   5.800   8.090 -2.9975  1.7407 -0.4926
  176SAPI  C22020060   2.395   5.789   7.907  0.4574 -0.0833 -0.2020
  176SAPI  H20R20061   2.384   5.865   7.827  0.4643  1.4395  1.1987
  176SAPI  H20S20062   2.307   5.809   7.973 -0.4851 -1.9858 -0.8088
  176SAPI  H20T20063   2.403   5.683   7.873  0.7977  0.5352 -2.2041
  176SAPI   C3320064   2.940   4.534   6.850 -0.1105 -0.1476  0.5232
  176SAPI   H3X20065   2.983   4.439   6.811 -1.9105  0.1541 -2.5967
  176SAPI   H3Y20066   2.841   4.510   6.896  0.8328 -1.8959  1.7491
  176SAPI   C3420067   3.041   4.585   6.948 -0.2997 -0.0534 -0.2884
  176SAPI   H4X20068   3.144   4.608   6.912 -0.3338  0.5862  0.0049
  176SAPI   H4Y20069   3.051   4.501   7.020  1.4756  0.0905 -0.3346
  176SAPI   C3520070   3.001   4.711   7.022 -0.6929  0.1397 -0.0784
  176SAPI   H5X20071   2.898   4.698   7.061 -0.0305 -1.3483  1.2732
  176SAPI   H5Y20072   3.002   4.807   6.966 -1.6957  0.2609  0.1013
  176SAPI   C3620073   3.092   4.727   7.151  0.4898  0.3792 -0.0088
  176SAPI   H6X20074   3.192   4.745   7.106 -0.2180 -0.2166 -1.9164
  176SAPI   H6Y20075   3.099   4.630   7.204  0.3056  1.0491  1.2680
  176SAPI   C3720076   3.057   4.824   7.259  0.3006  0.8381  0.2758
  176SAPI   H7X20077   2.951   4.807   7.286  0.0418 -0.3835 -1.4349
  176SAPI   H7Y20078   3.079   4.928   7.226 -2.2222  1.2970 -0.1490
  176SAPI   C3820079   3.129   4.784   7.391 -0.2831 -0.2960  0.9277
  176SAPI   H8X20080   3.100   4.680   7.418  2.2666 -1.8823 -1.7304
  176SAPI   H8Y20081   3.083   4.852   7.465 -0.1741 -1.1898  1.8459
  176SAPI   C3920082   3.280   4.805   7.380  0.2862  0.1658 -0.4515
  176SAPI   H9X20083   3.292   4.914   7.362 -0.5017  0.5925  1.3167
  176SAPI   H9Y20084   3.307   4.751   7.287  0.1966  1.6405 -1.3725
  176SAPI  C31020085   3.355   4.762   7.505  0.0491  0.6815  0.0959
  176SAPI  H10X20086   3.463   4.758   7.480 -0.1166 -1.7180 -0.5019
  176SAPI  H10Y20087   3.335   4.656   7.535 -1.2851  1.2471  1.3246
  176SAPI  C31120088   3.340   4.849   7.633 -0.4539 -0.5455 -0.4306
  176SAPI  H11X20089   3.232   4.843   7.661 -0.5563  1.1949 -0.3067
  176SAPI  H11Y20090   3.363   4.954   7.605  2.5449 -0.6586  1.1805
  176SAPI  C31220091   3.422   4.781   7.744 -0.1401  0.3640  0.6209
  176SAPI  H12X20092   3.526   4.777   7.705 -1.0218  0.0672 -1.9702
  176SAPI  H12Y20093   3.405   4.672   7.759 -1.3528 -0.0479 -2.6646
  176SAPI  C31320094   3.410   4.865   7.870  0.0254 -0.2727 -0.5114
  176SAPI  H13X20095   3.314   4.844   7.921  0.7843  0.3360  1.2475
  176SAPI  H13Y20096   3.411   4.973   7.841 -0.5266 -0.2573 -0.4800
  176SAPI  C31420097   3.515   4.833   7.978  0.0351  0.6662  0.6334
  176SAPI  H14X20098   3.618   4.856   7.943 -0.2900  1.3298  0.0742
  176SAPI  H14Y20099   3.505   4.724   7.993  0.1396  0.3432 -1.3804
  176SAPI  C31520100   3.497   4.909   8.107  0.7858  0.2075  0.0640
  176SAPI  H15X20101   3.505   5.020   8.104 -1.2547  0.3667 -1.0159
  176SAPI  H15Y20102   3.578   4.876   8.176 -0.8776  0.2257  2.1090
  176SAPI  C31620103   3.373   4.878   8.191  0.1377 -0.2157 -0.2560
  176SAPI  H16X20104   3.278   4.890   8.135 -0.7010 -0.5719  1.0360
  176SAPI  H16Y20105   3.364   4.952   8.274 -1.1319  0.6822 -1.1522
  176SAPI  C31720106   3.355   4.735   8.236 -0.1577  0.5561  0.1265
  176SAPI  H17X20107   3.454   4.709   8.279  0.3131 -1.5034 -2.0098
  176SAPI  H17Y20108   3.352   4.681   8.139  0.0290  0.6894  0.0458
  176SAPI  C31820109   3.243   4.724   8.337 -0.4096  0.3073 -0.1186
  176SAPI  H18X20110   3.148   4.765   8.297 -0.0911  2.3944  1.0855
  176SAPI  H18Y20111   3.266   4.788   8.425  3.9202  0.3883 -1.0752
  176SAPI  H18Z20112   3.218   4.617   8.349  0.7636  0.0841  0.5229
  177SLPC     N20113   5.199   4.770  10.783 -0.6539 -0.1531 -1.0293
  177SLPC   C1320114   5.292   4.845  10.692  0.0556  0.5448  0.4153
  177SLPC  H13A20115   5.391   4.815  10.724 -0.7921  1.5658  4.6623
  177SLPC  H13B20116   5.269   4.826  10.588 -2.6034  0.5059  0.9537
  177SLPC  H13C20117   5.296   4.952  10.708  0.8946  0.6898 -0.6399
  177SLPC   C1420118   5.225   4.794  10.926 -0.2930  0.0804 -0.4298
  177SLPC  H14A20119   5.329   4.773  10.946 -0.2875  0.1905 -0.3441
  177SLPC  H14B20120   5.210   4.899  10.946  1.4477  0.2123  0.3825
  177SLPC  H14C20121   5.170   4.726  10.989 -0.1963 -1.3330 -1.8116
  177SLPC   C1520122   5.229   4.621  10.762  0.6229  0.2579  0.0797
  177SLPC  H15A20123   5.311   4.592  10.825 -0.3813 -1.0411  0.8191
  177SLPC  H15B20124   5.152   4.556  10.801  1.6851 -0.0828  1.7030
  177SLPC  H15C20125   5.258   4.595  10.661 -1.7850  0.2788 -0.6717
  177SLPC   C1220126   5.060   4.797  10.741 -0.3870 -0.1930  0.0909
  177SLPC  H12A20127   5.044   4.772  10.637  0.8067 -0.6848  0.0088
  177SLPC  H12B20128   5.038   4.903  10.737  1.4597  0.2600  0.9475
  177SLPC   C1120129   4.945   4.744  10.831  0.5716  0.3067 -0.0930
  177SLPC  H11A20130   4.847   4.788  10.799  1.0080  2.8143  1.7096
  177SLPC  H11B20131   4.960   4.766  10.938  1.3419  0.3263 -0.2032
  177SLPC     P20132   4.817   4.530  10.769 -0.0426  0.0818 -0.5831
  177SLPC   O1320133   4.805   4.390  10.816  0.3935 -0.2046 -0.4483
  177SLPC   O1420134   4.697   4.611  10.784  0.4756 -0.5608  0.1166
  177SLPC   O1220135   4.943   4.606  10.833  0.3708  0.4701  0.0028
  177SLPC   O1120136   4.850   4.532  10.613 -0.2607  0.6332 -0.2648
  177SLPC    C120137   4.927   4.422  10.561 -0.0508 -0.3977 -0.3120
  177SLPC    HA20138   5.034   4.421  10.592 -0.0715  0.1817 -0.2084
  177SLPC    HB20139   4.883   4.324  10.589  1.5436 -0.7831  0.9616
  177SLPC    C220140   4.930   4.432  10.407 -0.2143  0.4137  0.1744
  177SLPC    HS20141   4.991   4.518  10.375  1.8667 -1.1245 -0.1696
  177SLPC   O2120142   4.794   4.426  10.351  0.1031  0.0202  0.6858
  177SLPC   C2120143   4.785   4.473  10.223 -0.6092  0.0940 -0.0136
  177SLPC   O2220144   4.858   4.561  10.175 -0.5213  0.5790  0.3517
  177SLPC   C2220145   4.673   4.395  10.162 -1.3657  0.0388  0.0699
  177SLPC   H2R20146   4.704   4.290  10.144 -2.1657  0.0527 -1.6500
  177SLPC   H2S20147   4.583   4.395  10.227 -0.6540  0.7033  1.0807
  177SLPC    C320148   5.015   4.304  10.349  0.1484 -0.5512  0.5642
  177SLPC    HX20149   4.966   4.207  10.373  0.9992 -1.4272 -1.0810
  177SLPC    HY20150   5.105   4.310  10.414 -0.4834  0.5701  1.3581
  177SLPC   O3120151   5.034   4.310  10.204  0.4639  0.2238 -0.1560
  177SLPC   C3120152   5.119   4.392  10.163  0.5864  0.4086  1.2400
  177SLPC   O3220153   5.202   4.453  10.220 -0.0424  0.2915 -0.0838
  177SLPC   C3220154   5.108   4.372  10.011  0.2701 -0.1824 -0.2849
  177SLPC   H2X20155   5.002   4.360   9.980  0.9800  0.4865 -3.3426
  177SLPC   H2Y20156   5.164   4.282   9.978 -0.2719  0.2325 -2.5265
  177SLPC   C2320157   4.637   4.457  10.024  0.3446  0.1972  0.5439
  177SLPC   H3R20158   4.730   4.463   9.964 -0.5257  0.5571 -0.8518
  177SLPC   H3S20159   4.601   4.562  10.031 -0.1252  0.3493 -2.4928
  177SLPC   C2420160   4.539   4.365   9.942  0.1492 -0.3723 -0.0912
  177SLPC   H4R20161   4.462   4.327  10.012 -1.5726 -2.9061 -3.1066
  177SLPC   H4S20162   4.601   4.277   9.915  1.7026 -0.0609  2.2062
  177SLPC   C2520163   4.489   4.428   9.818  0.4601 -0.0152 -0.1852
  177SLPC   H5R20164   4.423   4.513   9.847 -1.0720 -1.2998  0.2852
  177SLPC   H5S20165   4.423   4.357   9.762  0.7730 -0.4966  0.0561
  177SLPC   C2620166   4.598   4.465   9.718 -0.1433 -0.2918  0.0276
  177SLPC   H6R20167   4.658   4.372   9.708 -1.7219 -1.3482  0.0607
  177SLPC   H6S20168   4.664   4.544   9.760 -0.1107 -0.4794  0.3350
  177SLPC   C2720169   4.544   4.501   9.573  0.3530 -0.7619 -0.7761
  177SLPC   H7R20170   4.637   4.518   9.515  0.2981 -1.7127 -1.1593
  177SLPC   H7S20171   4.486   4.596   9.575 -2.0618 -2.0943 -2.4811
  177SLPC   C2820172   4.476   4.402   9.482 -0.4003  0.5779 -0.9709
  177SLPC   H8R20173   4.380   4.376   9.533 -0.0066  0.1281 -0.4436
  177SLPC   H8S20174   4.539   4.311   9.476 -0.9086  0.1791 -0.4467
  177SLPC   C2920175   4.423   4.454   9.356  0.4416  0.3832  0.7346
  177SLPC   H9R20176   4.338   4.524   9.354  0.6287  0.5944 -0.5783
  177SLPC  C21020177   4.495   4.438   9.240 -0.0596 -0.4759 -0.5533
  177SLPC  H10R20178   4.464   4.474   9.140  0.6279  0.8957 -0.2967
  177SLPC  C21120179   4.629   4.371   9.238  0.4024  0.3245  0.4469
  177SLPC  H11R20180   4.681   4.431   9.316  1.0694 -1.4501  1.4294
  177SLPC  H11S20181   4.614   4.267   9.275 -2.1109  0.2180 -0.6474
  177SLPC  C21220182   4.705   4.351   9.106 -0.3640 -0.8100 -0.6621
  177SLPC  H12R20183   4.719   4.247   9.075  0.6136 -1.7240  2.5039
  177SLPC  C21320184   4.757   4.444   9.021 -0.3035 -0.5099 -0.0979
  177SLPC  H13R20185   4.817   4.399   8.941  0.1381  0.5547 -0.3851
  177SLPC  C21420186   4.761   4.595   9.038 -0.7807 -0.1189  0.1101
  177SLPC  H14R20187   4.836   4.631   9.113  0.8282 -0.0729 -1.4415
  177SLPC  H14S20188   4.662   4.629   9.074  0.2489  1.3152  1.7860
  177SLPC  C21520189   4.778   4.667   8.899 -0.2804 -0.3414  0.0651
  177SLPC  H15R20190   4.869   4.634   8.845  1.1909 -1.3674  2.9485
  177SLPC  H15S20191   4.778   4.778   8.910 -2.4001 -0.4225  1.5273
  177SLPC  C21620192   4.658   4.657   8.805 -0.1384  0.3768  0.3856
  177SLPC  H16R20193   4.572   4.715   8.845  0.6966  1.8273  0.1233
  177SLPC  H16S20194   4.617   4.554   8.815 -1.2548  0.8724  1.0913
  177SLPC  C21720195   4.699   4.683   8.659  0.2030 -0.0838 -0.3150
  177SLPC  H17R20196   4.634   4.648   8.577  1.1894  1.8795 -2.0299
  177SLPC  H17S20197   4.801   4.643   8.638 -0.9021 -3.1797 -0.2317
  177SLPC  C21820198   4.708   4.834   8.637  0.0957 -0.0284  0.4276
  177SLPC  H18R20199   4.606   4.876   8.642 -0.6556 -1.6421 -0.5353
  177SLPC  H18S20200   4.749   4.844   8.534  1.8948  0.1110  1.1237
  177SLPC  H18T20201   4.778   4.884   8.707  1.8611  0.6524 -1.6846
  177SLPC   C3320202   5.150   4.497   9.935  0.5846 -0.1258 -0.1143
  177SLPC   H3X20203   5.254   4.529   9.960  0.7013  2.0524 -2.8177
  177SLPC   H3Y20204   5.089   4.588   9.954  2.4658  1.1804  0.0602
  177SLPC   C3420205   5.145   4.478   9.787  0.8008 -0.5570 -0.3102
  177SLPC   H4X20206   5.050   4.421   9.781  0.8077 -0.5905 -0.1087
  177SLPC   H4Y20207   5.228   4.407   9.768 -0.5886 -2.2759 -0.2407
  177SLPC   C3520208   5.159   4.595   9.701 -0.2191 -1.0029  0.6244
  177SLPC   H5X20209   5.243   4.665   9.716 -0.5877 -0.0648 -1.3037
  177SLPC   H5Y20210   5.064   4.654   9.706 -0.0800 -0.6525 -0.5466
  177SLPC   C3620211   5.167   4.561   9.554 -0.1289  0.2595  0.4360
  177SLPC   H6X20212   5.091   4.487   9.520  1.0500 -0.0037 -1.7763
  177SLPC   H6Y20213   5.262   4.506   9.538  0.2959  1.2524 -0.5832
  177SLPC   C3720214   5.147   4.687   9.466  0.0075  0.0343  0.3018
  177SLPC   H7X20215   5.215   4.769   9.498  0.5745 -0.6500  0.9070
  177SLPC   H7Y20216   5.043   4.725   9.464 -0.9693 -2.3209 -3.1331
  177SLPC   C3820217   5.174   4.661   9.316  0.7433  0.5773  0.4545
  177SLPC   H8X20218   5.121   4.568   9.287 -2.9961  2.3702  0.8809
  177SLPC   H8Y20219   5.281   4.644   9.291  0.4193  0.5578 -0.9587
  177SLPC   C3920220   5.107   4.771   9.233 -0.1294 -0.0962  0.7444
  177SLPC   H9X20221   5.157   4.864   9.267  0.8688  0.2815 -1.6036
  177SLPC   H9Y20222   4.997   4.767   9.250 -0.3285  0.7628 -0.2900
  177SLPC  C31020223   5.120   4.775   9.075  0.2886 -0.2137 -0.3774
  177SLPC  H10X20224   5.076   4.692   9.018 -1.1099  0.7488 -0.7492
  177SLPC  H10Y20225   5.229   4.782   9.052 -0.1201  3.3841 -1.9067
  177SLPC  C31120226   5.055   4.903   9.020 -0.2489 -0.7568 -0.0646
  177SLPC  H11X20227   5.089   4.987   9.085 -3.4767  0.2098  0.5728
  177SLPC  H11Y20228   4.948   4.904   9.052 -0.1876 -0.2595  0.1417
  177SLPC  C31220229   5.066   4.929   8.871  0.5110  0.5924 -0.4373
  177SLPC  H12X20230   5.014   4.845   8.821 -2.6802  1.5288  1.0126
  177SLPC  H12Y20231   5.167   4.931   8.826  0.6937  2.5313 -0.0504
  177SLPC  C31320232   4.998   5.058   8.829  0.2236 -0.3077  0.1228
  177SLPC  H13X20233   5.035   5.143   8.890 -1.1591  0.4187 -0.0128
  177SLPC  H13Y20234   4.890   5.065   8.856  0.1968 -0.5549  0.0845
  177SLPC  C31420235   5.021   5.095   8.684  0.1666 -0.9848 -0.4979
  177SLPC  H14X20236   4.946   5.166   8.643 -0.4796 -0.8499  0.8676
  177SLPC  H14Y20237   5.002   5.002   8.626 -2.9256  0.5855 -2.1887
  177SLPC  C31520238   5.164   5.147   8.661  0.6856  0.2051 -0.6409
  177SLPC  H15X20239   5.224   5.121   8.751  0.7597  0.3507 -0.6480
  177SLPC  H15Y20240   5.177   5.255   8.638  0.5558  0.4097  0.2055
  177SLPC  C31620241   5.222   5.073   8.546 -0.1632  0.5670 -0.1809
  177SLPC  H16X20242   5.154   5.086   8.459 -0.0559 -2.0144 -0.7084
  177SLPC  H16Y20243   5.212   4.965   8.570  0.8570  0.1141 -1.6305
  177SLPC  C31720244   5.363   5.116   8.513 -0.0141 -0.0099  0.0617
  177SLPC  H17X20245   5.436   5.076   8.586 -0.2450 -0.2770  0.1440
  177SLPC  H17Y20246   5.373   5.225   8.532 -1.6540  0.2715 -0.5275
  177SLPC  C31820247   5.411   5.078   8.373 -0.1930 -0.0909 -0.0156
  177SLPC  H18X20248   5.359   5.136   8.293  1.5070  0.1005 -1.0486
  177SLPC  H18Y20249   5.415   4.969   8.351  0.4723  0.1847 -1.4350
  177SLPC  H18Z20250   5.517   5.109   8.363  0.1149 -1.0557  0.1350
  178SLPC     N20251   0.973   6.049  10.840  0.3864 -0.1349  0.3567
  178SLPC   C1320252   1.059   6.078  10.957  0.3713  0.1929  0.4467
  178SLPC  H13A20253   1.038   6.178  10.993 -0.9616 -0.3490  1.2405
  178SLPC  H13B20254   1.039   6.009  11.037 -0.8900 -1.2001 -1.0053
  178SLPC  H13C20255   1.163   6.072  10.928  0.0664 -0.0543 -0.6226
  178SLPC   C1420256   1.028   5.927  10.763  0.3395  1.8205 -0.3916
  178SLPC  H14A20257   0.992   5.842  10.819 -1.0947  1.3402 -1.9591
  178SLPC  H14B20258   0.982   5.929  10.666  1.3230  0.2245 -0.9333
  178SLPC  H14C20259   1.136   5.925  10.758  0.4877 -1.0762  1.5446
  178SLPC   C1520260   0.980   6.167  10.750 -0.7184  0.3832 -0.1722
  178SLPC  H15A20261   0.959   6.260  10.801  0.9208  0.3455  0.6361
  178SLPC  H15B20262   1.083   6.183  10.721 -0.0607  1.4952  2.4978
  178SLPC  H15C20263   0.910   6.162  10.668 -2.4139  0.2872  1.2194
  178SLPC   C1220264   0.832   6.020  10.881 -0.1840  0.8935 -0.5279
  178SLPC  H12A20265   0.840   5.942  10.954  0.0021  2.2909  1.0079
  178SLPC  H12B20266   0.779   5.984  10.794 -1.4732  1.8058 -0.1625
  178SLPC   C1120267   0.754   6.139  10.946 -0.6451  0.3099 -0.1429
  178SLPC  H11A20268   0.729   6.214  10.868  1.8349 -1.6222 -3.0614
  178SLPC  H11B20269   0.812   6.188  11.027 -0.1487 -0.2306 -0.1653
  178SLPC     P20270   0.505   6.059  10.933  0.2875  0.4499 -0.2262
  178SLPC   O1320271   0.420   5.971  11.011  0.1441 -0.1614 -0.1098
  178SLPC   O1420272   0.431   6.179  10.906  0.3181 -0.5001 -0.0595
  178SLPC   O1220273   0.639   6.090  11.013 -0.2852  0.1047  0.2285
  178SLPC   O1120274   0.547   5.996  10.795  0.2486  0.3277  0.1239
  178SLPC    C120275   0.537   6.073  10.671  0.2615 -0.1315  0.1348
  178SLPC    HA20276   0.523   6.183  10.680 -0.7547 -0.2570  0.2141
  178SLPC    HB20277   0.624   6.056  10.605 -0.5269  0.2605 -1.0441
  178SLPC    C220278   0.419   6.014  10.593  0.0804  0.4285  0.3226
  178SLPC    HS20279   0.328   6.020  10.656  0.5850 -0.8700  1.2071
  178SLPC   O2120280   0.445   5.880  10.547  0.0739 -0.5319  0.1284
  178SLPC   C2120281   0.336   5.801  10.532 -0.3871  0.2166  0.0267
  178SLPC   O2220282   0.223   5.836  10.564  0.6214 -0.0778  0.1947
  178SLPC   C2220283   0.368   5.660  10.480 -0.1669 -0.2353 -0.0421
  178SLPC   H2R20284   0.476   5.659  10.458  0.1113 -2.4416  1.1726
  178SLPC   H2S20285   0.341   5.581  10.553  0.0149 -0.6815 -0.4591
  178SLPC    C320286   0.408   6.095  10.462  0.8377 -0.0211 -0.2066
  178SLPC    HX20287   0.507   6.094  10.411  2.0568  1.5414  1.9610
  178SLPC    HY20288   0.394   6.201  10.493  0.3062 -0.5049  1.3018
  178SLPC   O3120289   0.307   6.048  10.370 -0.4469 -0.0095  0.6578
  178SLPC   C3120290   0.190   6.101  10.371  0.7704  0.0418 -0.5807
  178SLPC   O3220291   0.162   6.196  10.444  0.0095  0.7432 -0.1452
  178SLPC   C3220292   0.096   6.040  10.264 -0.3728  0.3169  0.4241
  178SLPC   H2X20293   0.013   6.108  10.238  1.4263  3.0629  1.4145
  178SLPC   H2Y20294   0.054   5.945  10.303  1.3648 -0.4687  0.4928
  178SLPC   C2320295   0.298   5.635  10.340 -0.6110 -0.0857 -0.2959
  178SLPC   H3R20296   0.208   5.699  10.332  0.3357  1.6461  1.8367
  178SLPC   H3S20297   0.267   5.529  10.350  1.1805 -0.4594  3.0495
  178SLPC   C2420298   0.394   5.670  10.224  1.0539  0.5025  1.3659
  178SLPC   H4R20299   0.499   5.645  10.252  0.7622 -0.7419  1.4090
  178SLPC   H4S20300   0.387   5.778  10.204  0.5929 -0.0021 -1.6116
  178SLPC   C2520301   0.371   5.599  10.089  0.0220 -0.7856  0.1394
  178SLPC   H5R20302   0.307   5.673  10.036  1.4112 -0.2661 -0.9047
  178SLPC   H5S20303   0.316   5.504  10.101 -0.0453 -0.6706  0.7507
  178SLPC   C2620304   0.507   5.589  10.013  0.4970 -0.1219 -0.1571
  178SLPC   H6R20305   0.585   5.534  10.068  0.0669 -0.8842 -0.2980
  178SLPC   H6S20306   0.543   5.688   9.977 -0.9342  1.1094  1.5943
  178SLPC   C2720307   0.504   5.497   9.889 -0.0264  0.1170 -0.1584
  178SLPC   H7R20308   0.461   5.398   9.913  1.1038 -0.4388 -0.3823
  178SLPC   H7S20309   0.609   5.491   9.853  0.7367  0.0409  1.9542
  178SLPC   C2820310   0.431   5.557   9.769  0.1895 -0.7139 -0.0944
  178SLPC   H8R20311   0.465   5.661   9.750 -1.3709 -0.0390  0.5981
  178SLPC   H8S20312   0.324   5.548   9.798  0.2084 -1.9429 -0.3669
  178SLPC   C2920313   0.442   5.467   9.646  0.1167  0.0581  0.3768
  178SLPC   H9R20314   0.388   5.372   9.659  1.1954 -0.4640  1.2077
  178SLPC  C21020315   0.497   5.496   9.530 -0.2734 -0.6819 -0.3662
  178SLPC  H10R20316   0.489   5.426   9.446 -3.8281  0.7151 -1.3884
  178SLPC  C21120317   0.569   5.623   9.499 -0.2045 -0.8933 -0.5075
  178SLPC  H11R20318   0.680   5.613   9.505 -0.1268 -0.0686 -0.5476
  178SLPC  H11S20319   0.545   5.704   9.571  1.0728 -1.5608  0.7240
  178SLPC  C21220320   0.534   5.677   9.361  0.0349 -0.7452  0.4526
  178SLPC  H12R20321   0.483   5.774   9.358  3.1400  1.0416  1.4368
  178SLPC  C21320322   0.551   5.615   9.238  0.0751 -0.0302  0.6672
  178SLPC  H13R20323   0.523   5.685   9.157 -1.5803 -0.6175  0.7070
  178SLPC  C21420324   0.612   5.486   9.199 -0.4989 -0.0492 -0.4603
  178SLPC  H14R20325   0.579   5.405   9.268 -0.9965  1.0480  0.6369
  178SLPC  H14S20326   0.723   5.489   9.199 -0.4211 -1.7874 -0.1309
  178SLPC  C21520327   0.568   5.439   9.060  0.2729 -0.0330 -0.1696
  178SLPC  H15R20328   0.596   5.510   8.980 -3.0594 -0.6734 -2.0989
  178SLPC  H15S20329   0.457   5.431   9.050  0.1994 -1.7255  1.3825
  178SLPC  C21620330   0.613   5.298   9.021 -0.0559 -0.2359 -0.1147
  178SLPC  H16R20331   0.567   5.222   9.089  0.2621 -0.5423 -0.2397
  178SLPC  H16S20332   0.722   5.278   9.033 -0.4158 -1.4187  1.4746
  178SLPC  C21720333   0.563   5.261   8.879  0.5080 -0.0833  0.4431
  178SLPC  H17R20334   0.585   5.342   8.806 -0.0753 -0.3901 -0.0776
  178SLPC  H17S20335   0.453   5.250   8.884  0.0216  2.8140 -1.5655
  178SLPC  C21820336   0.639   5.134   8.827  0.1971 -0.8909 -0.0316
  178SLPC  H18R20337   0.749   5.151   8.838  0.0866  0.2458 -0.5375
  178SLPC  H18S20338   0.614   5.102   8.723  2.8357 -0.6631 -0.8362
  178SLPC  H18T20339   0.602   5.054   8.895 -0.0990  1.5487  2.8791
  178SLPC   C3320340   0.170   6.003  10.133  0.1339  0.0716 -0.4111
  178SLPC   H3X20341   0.108   5.956  10.054  0.5167 -1.3581  0.0911
  178SLPC   H3Y20342   0.248   5.926  10.150 -0.5568 -0.5071  0.2348
  178SLPC   C3420343   0.231   6.120  10.062 -0.3983  0.1565 -0.1491
  178SLPC   H4X20344   0.296   6.178  10.131 -1.1646  0.0401  0.6874
  178SLPC   H4Y20345   0.155   6.196  10.031 -0.1605  0.2573 -0.4971
  178SLPC   C3520346   0.312   6.076   9.939 -0.0857 -0.1221  0.3903
  178SLPC   H5X20347   0.366   5.980   9.956 -2.8762 -1.9958 -0.4964
  178SLPC   H5Y20348   0.384   6.157   9.919 -1.3209  0.7449 -0.7211
  178SLPC   C3620349   0.218   6.042   9.812  0.3006  0.3924 -0.5791
  178SLPC   H6X20350   0.142   6.123   9.809 -0.1839 -0.0603 -0.6621
  178SLPC   H6Y20351   0.167   5.946   9.834 -0.6659  0.6555 -1.5184
  178SLPC   C3720352   0.278   6.043   9.675 -0.0277  0.0701 -0.1223
  178SLPC   H7X20353   0.356   5.964   9.672  0.0750  0.1029  1.0888
  178SLPC   H7Y20354   0.332   6.137   9.650  1.3885 -0.4653  0.8123
  178SLPC   C3820355   0.178   6.011   9.567  0.8500  0.1104  0.3969
  178SLPC   H8X20356   0.110   6.092   9.534 -2.2858 -2.2463  0.6428
  178SLPC   H8Y20357   0.122   5.926   9.611  1.1822  0.4184  1.4484
  178SLPC   C3920358   0.243   5.967   9.444 -0.5248 -0.2638  0.2146
  178SLPC   H9X20359   0.323   5.893   9.470  1.0190  1.5380  0.8278
  178SLPC   H9Y20360   0.305   6.042   9.391  0.0628 -0.7053  0.2573
  178SLPC  C31020361   0.154   5.899   9.336 -0.2881 -0.0040  0.0076
  178SLPC  H10X20362   0.126   5.798   9.371 -0.2079 -0.2055 -0.5057
  178SLPC  H10Y20363   0.212   5.878   9.244  0.7793  1.8617  0.1915
  178SLPC  C31120364   0.030   5.982   9.286  0.0070 -0.4199 -0.5574
  178SLPC  H11X20365   0.061   6.080   9.243 -0.7810 -0.8228 -2.1321
  178SLPC  H11Y20366  -0.035   6.012   9.371 -0.4075  2.8882 -1.8741
  178SLPC  C31220367  -0.046   5.915   9.174 -0.0431  0.2991  0.0405
  178SLPC  H12X20368  -0.084   5.815   9.205  3.2534 -1.1817 -0.3420
  178SLPC  H12Y20369   0.028   5.876   9.102 -1.1082 -1.8204 -0.0028
  178SLPC  C31320370  -0.146   6.002   9.080  0.1955  1.0208  0.2631
  178SLPC  H13X20371  -0.232   6.055   9.126 -1.5784  0.7163 -2.4862
  178SLPC  H13Y20372  -0.190   5.917   9.023  0.2832  0.5878  0.8311
  178SLPC  C31420373  -0.068   6.088   8.976 -0.2415  0.5142 -0.3937
  178SLPC  H14X20374   0.039   6.092   9.004 -0.0547  2.4265 -1.2298
  178SLPC  H14Y20375  -0.100   6.193   8.996  1.0166  0.3814  2.9482
  178SLPC  C31520376  -0.085   6.066   8.828 -0.7001  0.0536 -0.0978
  178SLPC  H15X20377  -0.038   5.968   8.803  1.4767  0.5557  1.7358
  178SLPC  H15Y20378  -0.192   6.071   8.798 -0.5216 -2.9209 -1.6591
  178SLPC  C31620379  -0.011   6.166   8.744 -0.5246  0.0755 -0.4387
  178SLPC  H16X20380   0.090   6.188   8.784 -0.3299 -0.5034 -0.6150
  178SLPC  H16Y20381  -0.072   6.259   8.752  0.8855  1.0420 -0.5972
  178SLPC  C31720382  -0.017   6.122   8.594  0.2571 -0.3676  0.3720
  178SLPC  H17X20383  -0.113   6.073   8.565  0.7627 -1.5052  0.5509
  178SLPC  H17Y20384   0.059   6.045   8.567 -0.4211 -0.4144 -1.5547
  178SLPC  C31820385  -0.022   6.233   8.488 -0.0209 -0.0368 -0.9112
  178SLPC  H18X20386  -0.022   6.195   8.384  1.4368  2.1987 -1.8053
  178SLPC  H18Y20387   0.062   6.303   8.510 -0.7738  0.7757 -0.5705
  178SLPC  H18Z20388  -0.113   6.289   8.516  0.0913 -0.0855 -0.4288
  179SLPC     N20389   3.951   1.698  10.687 -0.6601 -0.1729  0.1334
  179SLPC   C1320390   3.818   1.777  10.702  0.0775 -0.1236 -0.4157
  179SLPC  H13A20391   3.730   1.713  10.700  0.2948 -0.4417  0.1599
  179SLPC  H13B20392   3.830   1.831  10.794 -0.3648 -0.0950 -0.3700
  179SLPC  H13C20393   3.811   1.847  10.620 -1.8314 -0.8672 -0.9613
  179SLPC   C1420394   3.960   1.583  10.778 -0.5933 -0.6182  0.4496
  179SLPC  H14A20395   4.054   1.534  10.759 -0.0283  1.4045 -2.8731
  179SLPC  H14B20396   3.960   1.612  10.882  2.3035  3.3970 -0.3949
  179SLPC  H14C20397   3.874   1.520  10.761 -0.7972 -0.3522  0.4700
  179SLPC   C1520398   4.058   1.797  10.716  0.0801 -0.0919 -0.6003
  179SLPC  H15A20399   4.155   1.750  10.710 -0.2313 -0.7609 -0.4287
  179SLPC  H15B20400   4.053   1.880  10.648 -0.6826 -0.1216 -0.5829
  179SLPC  H15C20401   4.052   1.839  10.816  0.2739  0.9059 -0.9972
  179SLPC   C1220402   3.965   1.664  10.534  0.3156 -0.2417 -0.2625
  179SLPC  H12A20403   3.879   1.607  10.503 -1.4004  1.6073  0.8676
  179SLPC  H12B20404   4.057   1.609  10.517  0.7816  0.2494  0.5974
  179SLPC   C1120405   3.952   1.781  10.428 -0.3259 -0.2657 -0.1047
  179SLPC  H11A20406   3.970   1.736  10.328 -1.4767 -0.2046 -0.3502
  179SLPC  H11B20407   4.040   1.846  10.449 -1.3249  1.1370 -0.0941
  179SLPC     P20408   3.713   1.797  10.349 -0.3777 -0.1918 -0.4316
  179SLPC   O1320409   3.690   1.661  10.409  0.0540 -0.8616 -0.1251
  179SLPC   O1420410   3.605   1.896  10.340  0.2287  0.1785 -0.6054
  179SLPC   O1220411   3.835   1.858  10.436  0.1162  0.0281  0.1441
  179SLPC   O1120412   3.775   1.774  10.207 -0.3838  0.0646  0.7824
  179SLPC    C120413   3.839   1.885  10.138  0.2017 -0.1676  0.3948
  179SLPC    HA20414   3.814   1.981  10.188 -2.1632 -0.6407  0.2289
  179SLPC    HB20415   3.949   1.875  10.134  0.1806 -0.2627 -0.0043
  179SLPC    C220416   3.796   1.899   9.990 -0.5465 -0.1129  0.1788
  179SLPC    HS20417   3.695   1.944   9.997  1.2252  4.3435  0.3585
  179SLPC   O2120418   3.781   1.774   9.924 -0.3150  0.2198  0.1174
  179SLPC   C2120419   3.666   1.710   9.942 -0.2913  0.3740 -0.6636
  179SLPC   O2220420   3.571   1.759   9.999 -0.3166  0.0558  0.0444
  179SLPC   C2220421   3.670   1.575   9.870  0.1559  0.1886  0.7033
  179SLPC   H2R20422   3.718   1.498   9.933 -0.8045 -0.3142  0.8368
  179SLPC   H2S20423   3.566   1.542   9.851  0.3301 -1.0041  1.7052
  179SLPC    C320424   3.888   1.993   9.914 -0.5440 -0.8009  0.0825
  179SLPC    HX20425   3.979   1.937   9.882  1.1801  2.9287 -2.3460
  179SLPC    HY20426   3.933   2.073   9.976 -0.5606 -2.5162  2.4047
  179SLPC   O3120427   3.833   2.040   9.793  0.3098 -0.1514 -0.7661
  179SLPC   C3120428   3.739   2.134   9.811  0.3258  0.0864 -0.2568
  179SLPC   O3220429   3.709   2.189   9.913 -0.0450 -0.6293 -0.1759
  179SLPC   C3220430   3.699   2.167   9.667  0.1905  0.0724  0.0743
  179SLPC   H2X20431   3.664   2.070   9.626 -0.9275  1.0936 -1.4875
  179SLPC   H2Y20432   3.793   2.191   9.614 -0.6618  0.4283 -1.3346
  179SLPC   C2320433   3.766   1.587   9.749  0.1732 -0.0327 -0.4015
  179SLPC   H3R20434   3.773   1.484   9.709 -1.2386 -0.4166  0.2539
  179SLPC   H3S20435   3.866   1.621   9.782  0.6598 -1.3474 -0.4930
  179SLPC   C2420436   3.724   1.667   9.632 -0.3804  0.4902  0.0054
  179SLPC   H4R20437   3.710   1.775   9.654 -2.2282  0.0754  1.1485
  179SLPC   H4S20438   3.627   1.635   9.589 -0.8573  0.7271  0.8803
  179SLPC   C2520439   3.839   1.643   9.530 -0.0352  0.4206  0.5126
  179SLPC   H5R20440   3.849   1.534   9.512 -3.5409  0.0529  0.0227
  179SLPC   H5S20441   3.938   1.677   9.566 -0.3453  1.3580  0.5156
  179SLPC   C2620442   3.804   1.721   9.402 -0.2241 -0.3691  0.2587
  179SLPC   H6R20443   3.826   1.829   9.415 -0.7356 -0.5193  2.9262
  179SLPC   H6S20444   3.698   1.694   9.380  0.2056 -1.6736 -0.3504
  179SLPC   C2720445   3.894   1.689   9.276 -0.1541 -0.5085  1.3713
  179SLPC   H7R20446   3.910   1.580   9.269  1.4616 -0.2179 -4.1520
  179SLPC   H7S20447   3.998   1.728   9.287 -0.8314  1.1929  2.1925
  179SLPC   C2820448   3.838   1.746   9.139 -0.2241 -0.3829 -0.1687
  179SLPC   H8R20449   3.735   1.708   9.126 -0.8876  1.5165 -0.8295
  179SLPC   H8S20450   3.897   1.701   9.056 -0.1692 -0.7856  0.0898
  179SLPC   C2920451   3.839   1.895   9.130 -0.3607 -0.0234 -0.1859
  179SLPC   H9R20452   3.761   1.952   9.183 -0.3845 -1.3590  1.2911
  179SLPC  C21020453   3.922   1.973   9.049  0.3263 -0.0967  0.0010
  179SLPC  H10R20454   3.910   2.082   9.049  1.4095  0.0417 -0.4202
  179SLPC  C21120455   4.026   1.912   8.955 -0.9747  0.5645  0.7164
  179SLPC  H11R20456   4.003   1.940   8.850  0.2596  1.8178  0.7415
  179SLPC  H11S20457   4.037   1.802   8.950 -3.7329  0.0880  2.7244
  179SLPC  C21220458   4.162   1.979   8.989 -1.3908 -0.5722  0.1231
  179SLPC  H12R20459   4.218   1.955   9.080 -0.6813 -3.7568 -1.0266
  179SLPC  C21320460   4.229   2.065   8.909 -0.3260  1.0902 -0.1249
  179SLPC  H13R20461   4.324   2.110   8.943  0.4429 -1.4554  1.3756
  179SLPC  C21420462   4.191   2.106   8.772 -0.0148 -0.3337  0.2810
  179SLPC  H14R20463   4.147   2.024   8.711 -0.4191  0.6537 -0.7957
  179SLPC  H14S20464   4.279   2.144   8.714  0.2327 -2.7604 -1.0856
  179SLPC  C21520465   4.080   2.223   8.776 -0.4801 -0.0022  0.1892
  179SLPC  H15R20466   4.114   2.314   8.829 -1.3342  0.4690 -0.0431
  179SLPC  H15S20467   3.993   2.179   8.830 -0.1387 -1.2248 -0.2336
  179SLPC  C21620468   4.015   2.277   8.645  0.1983  0.0483  0.1879
  179SLPC  H16R20469   3.957   2.197   8.596 -0.2441  1.2509 -1.3151
  179SLPC  H16S20470   4.099   2.298   8.576  0.1116  0.4092  0.1916
  179SLPC  C21720471   3.923   2.394   8.657  0.1968 -0.7876 -0.1413
  179SLPC  H17R20472   3.981   2.485   8.686  0.4260 -0.7037 -0.8346
  179SLPC  H17S20473   3.839   2.371   8.726  1.9129  0.8945  2.7600
  179SLPC  C21820474   3.845   2.430   8.528  0.4644 -0.0404 -0.6226
  179SLPC  H18R20475   3.800   2.532   8.536  1.4358  0.3475  0.1920
  179SLPC  H18S20476   3.765   2.356   8.507  0.9733 -1.0494  0.8495
  179SLPC  H18T20477   3.922   2.432   8.448  1.0208  0.9727 -0.0898
  179SLPC   C3320478   3.592   2.280   9.642 -0.1468 -0.1388  0.2816
  179SLPC   H3X20479   3.610   2.374   9.698  0.6466  2.0192 -3.2649
  179SLPC   H3Y20480   3.488   2.254   9.671 -1.1674  1.4537 -1.7024
  179SLPC   C3420481   3.564   2.330   9.496  0.4418  0.9979 -0.3720
  179SLPC   H4X20482   3.648   2.385   9.449  1.6117 -0.7207 -0.4073
  179SLPC   H4Y20483   3.479   2.400   9.512 -0.3750 -0.5578  2.7904
  179SLPC   C3520484   3.513   2.213   9.409 -0.3467 -0.3125 -0.0151
  179SLPC   H5X20485   3.418   2.176   9.453  0.2518 -0.1983  1.4122
  179SLPC   H5Y20486   3.583   2.128   9.423  1.3442  1.0388 -0.0052
  179SLPC   C3620487   3.488   2.247   9.259 -0.1789 -0.4433  0.2879
  179SLPC   H6X20488   3.582   2.291   9.219 -0.8119 -0.1900 -0.9430
  179SLPC   H6Y20489   3.407   2.323   9.255 -1.0969 -1.4564 -1.1238
  179SLPC   C3720490   3.442   2.124   9.171  0.7549  0.5234 -0.4498
  179SLPC   H7X20491   3.333   2.129   9.153  0.2036  0.9391  2.4597
  179SLPC   H7Y20492   3.441   2.041   9.245  1.5114  0.2053 -0.7797
  179SLPC   C3820493   3.528   2.095   9.048  0.1196 -0.1958 -0.8801
  179SLPC   H8X20494   3.471   2.016   8.996 -1.1098 -1.7636  2.5392
  179SLPC   H8Y20495   3.632   2.059   9.067  0.3688  0.2983 -1.2668
  179SLPC   C3920496   3.547   2.225   8.957  0.5942  0.1589 -0.2076
  179SLPC   H9X20497   3.593   2.307   9.015 -0.3387 -0.1082  0.9424
  179SLPC   H9Y20498   3.446   2.255   8.923 -0.5446 -3.2914 -0.2842
  179SLPC  C31020499   3.627   2.182   8.825 -0.4325 -0.3918 -0.6298
  179SLPC  H10X20500   3.734   2.195   8.851 -0.7871 -1.9066  1.9266
  179SLPC  H10Y20501   3.606   2.260   8.749  0.3544 -0.7294 -1.2042
  179SLPC  C31120502   3.611   2.044   8.769 -0.1012 -0.3808  0.0208
  179SLPC  H11X20503   3.509   2.012   8.741 -0.5877 -1.5309  2.8070
  179SLPC  H11Y20504   3.645   1.972   8.846 -0.3231  1.1291  1.5846
  179SLPC  C31220505   3.692   2.015   8.642 -0.3495 -1.2622  0.2381
  179SLPC  H12X20506   3.794   1.978   8.667 -0.1945 -1.4053 -0.5816
  179SLPC  H12Y20507   3.715   2.114   8.597  3.2307 -1.7609  0.6717
  179SLPC  C31320508   3.627   1.934   8.540  1.0515 -0.5019  0.3516
  179SLPC  H13X20509   3.525   1.976   8.523  1.0044  0.1249  1.9787
  179SLPC  H13Y20510   3.614   1.831   8.580 -1.8778  0.9177  3.5956
  179SLPC  C31420511   3.696   1.918   8.405  0.2284  0.4054 -0.2188
  179SLPC  H14X20512   3.643   1.838   8.350 -0.6866 -0.6554  2.0848
  179SLPC  H14Y20513   3.803   1.895   8.424  0.1369 -0.2524 -0.4967
  179SLPC  C31520514   3.694   2.036   8.312  0.2033 -0.0096 -0.0800
  179SLPC  H15X20515   3.743   2.125   8.358 -1.6008  0.8007  0.3415
  179SLPC  H15Y20516   3.592   2.070   8.286 -1.7817 -3.5210  2.2753
  179SLPC  C31620517   3.768   2.012   8.179  0.3585 -0.8556  0.9922
  179SLPC  H16X20518   3.747   2.097   8.110  0.4356 -0.2204  1.7397
  179SLPC  H16Y20519   3.721   1.922   8.133 -1.2041  1.1030 -1.4835
  179SLPC  C31720520   3.918   1.987   8.181 -0.3366 -0.2431 -0.0344
  179SLPC  H17X20521   3.940   1.893   8.236  0.3738 -0.5765 -0.8600
  179SLPC  H17Y20522   3.965   2.073   8.234  0.9251 -2.2042  2.1888
  179SLPC  C31820523   3.963   1.966   8.039 -0.2726  0.0257  0.0477
  179SLPC  H18X20524   4.068   1.931   8.034  0.8080  2.4845  2.4443
  179SLPC  H18Y20525   3.963   2.058   7.977 -1.0393  0.3657  0.5284
  179SLPC  H18Z20526   3.896   1.900   7.981 -0.7520  0.2970  0.2833
  180SLPC     N20527   2.148   6.793  11.069 -0.5426 -0.3703  0.0617
  180SLPC   C1320528   2.234   6.671  11.066 -0.2941  0.2877 -0.1993
  180SLPC  H13A20529   2.336   6.699  11.085 -0.2008 -0.3308  0.2548
  180SLPC  H13B20530   2.201   6.596  11.136  0.1497 -0.6929 -1.0106
  180SLPC  H13C20531   2.240   6.629  10.966 -1.0431 -1.5882  0.4943
  180SLPC   C1420532   2.166   6.863  11.198 -0.3599  0.0525  0.3111
  180SLPC  H14A20533   2.262   6.913  11.196  0.3324 -1.2419  0.0438
  180SLPC  H14B20534   2.098   6.943  11.223  0.3464  0.6105  0.4908
  180SLPC  H14C20535   2.175   6.789  11.275  0.0539  0.7389  0.9332
  180SLPC   C1520536   2.003   6.753  11.063 -0.4844 -0.0644 -0.4421
  180SLPC  H15A20537   1.984   6.679  11.138  0.0308  0.1035 -0.1410
  180SLPC  H15B20538   1.938   6.837  11.085  1.0184  1.2003 -0.6697
  180SLPC  H15C20539   1.971   6.707  10.970  0.3656  1.0345 -1.3107
  180SLPC   C1220540   2.183   6.892  10.960  0.0034  0.4455 -0.0197
  180SLPC  H12A20541   2.277   6.938  10.985 -0.2565  1.7023 -1.2059
  180SLPC  H12B20542   2.112   6.974  10.966  0.3416  0.7319  0.1017
  180SLPC   C1120543   2.177   6.828  10.817  0.8822 -0.1936 -0.2266
  180SLPC  H11A20544   2.183   6.915  10.747  1.5467  0.2466  0.3607
  180SLPC  H11B20545   2.080   6.781  10.792  0.9681 -0.5986  0.1937
  180SLPC     P20546   2.428   6.785  10.757  0.2751  0.2337 -0.2761
  180SLPC   O1320547   2.493   6.844  10.873  0.3115  0.1776 -0.1273
  180SLPC   O1420548   2.492   6.662  10.701  0.7060  0.2922 -0.6803
  180SLPC   O1220549   2.280   6.737  10.788 -0.7987  0.0663 -0.0533
  180SLPC   O1120550   2.409   6.892  10.647  0.0862 -0.3430  0.0307
  180SLPC    C120551   2.345   6.877  10.523 -0.0723 -0.7824 -0.0658
  180SLPC    HA20552   2.287   6.782  10.522 -0.5415 -0.6117  3.0663
  180SLPC    HB20553   2.268   6.957  10.521 -1.7370 -2.3219 -1.0844
  180SLPC    C220554   2.451   6.891  10.402 -0.0228 -0.3920 -0.8916
  180SLPC    HS20555   2.521   6.807  10.419  0.6229  0.1764 -0.6957
  180SLPC   O2120556   2.507   7.027  10.415 -0.0493 -0.2444 -0.2180
  180SLPC   C2120557   2.634   7.042  10.365 -0.0593 -0.4343  0.1056
  180SLPC   O2220558   2.701   6.948  10.325  0.5137  0.6894 -0.7737
  180SLPC   C2220559   2.673   7.186  10.353  0.0652  0.2724 -0.0003
  180SLPC   H2R20560   2.599   7.260  10.316  0.9921  1.2736  0.0592
  180SLPC   H2S20561   2.686   7.218  10.459 -1.7489  0.4896  0.1893
  180SLPC    C320562   2.378   6.867  10.268  0.2213 -0.1949  0.0138
  180SLPC    HX20563   2.288   6.931  10.255  2.2536  2.7210 -0.8692
  180SLPC    HY20564   2.349   6.760  10.264  1.3156 -0.6191  1.8807
  180SLPC   O3120565   2.461   6.897  10.153  0.0491  0.2641  0.2933
  180SLPC   C3120566   2.550   6.803  10.113 -0.1161  0.3073 -0.3636
  180SLPC   O3220567   2.571   6.689  10.155 -0.3012 -0.0371 -0.2374
  180SLPC   C3220568   2.614   6.843   9.981  0.0255  0.1330  0.0313
  180SLPC   H2X20569   2.710   6.791   9.960  0.0877  0.4394 -0.4607
  180SLPC   H2Y20570   2.632   6.952   9.983 -0.3347  0.2377 -1.3807
  180SLPC   C2320571   2.795   7.216  10.263 -0.3981  0.3618 -0.9982
  180SLPC   H3R20572   2.870   7.144  10.303  1.5851  2.4925 -0.6439
  180SLPC   H3S20573   2.833   7.318  10.283  0.6754  0.0534 -1.4148
  180SLPC   C2420574   2.762   7.188  10.116 -0.4816  0.2947 -0.0350
  180SLPC   H4R20575   2.711   7.277  10.073  0.3540  0.7833 -0.0428
  180SLPC   H4S20576   2.691   7.104  10.106  0.5012 -0.4009 -1.6223
  180SLPC   C2520577   2.878   7.144  10.034  0.2866 -0.1023  0.1226
  180SLPC   H5R20578   2.926   7.053  10.076  0.6970  0.8827  1.8932
  180SLPC   H5S20579   2.945   7.231  10.047 -0.8743  0.6985  0.9704
  180SLPC   C2620580   2.845   7.132   9.886  1.3208  0.6837 -0.1090
  180SLPC   H6R20581   2.789   7.038   9.867  0.4877  1.0698  0.4076
  180SLPC   H6S20582   2.939   7.127   9.826 -0.2587 -1.8557 -2.6241
  180SLPC   C2720583   2.761   7.250   9.830  0.4550  0.0753 -0.8374
  180SLPC   H7R20584   2.818   7.340   9.863 -1.0995  1.1138 -0.8671
  180SLPC   H7S20585   2.659   7.251   9.874  0.2176 -2.4207 -1.2010
  180SLPC   C2820586   2.758   7.244   9.675  0.3907  0.6465  0.5168
  180SLPC   H8R20587   2.725   7.143   9.642  1.3879  0.8620 -1.3383
  180SLPC   H8S20588   2.862   7.261   9.638  0.7837  0.2424  1.4054
  180SLPC   C2920589   2.652   7.337   9.618  0.5321 -0.0109  0.5667
  180SLPC   H9R20590   2.572   7.346   9.693 -2.2524 -0.8630 -2.1105
  180SLPC  C21020591   2.639   7.377   9.486  0.3846 -0.7600 -0.4212
  180SLPC  H10R20592   2.548   7.434   9.463 -1.1747 -2.9703 -0.0628
  180SLPC  C21120593   2.731   7.334   9.380  0.6282 -0.2744  0.1101
  180SLPC  H11R20594   2.684   7.252   9.321 -0.8183  1.0500 -0.6443
  180SLPC  H11S20595   2.828   7.292   9.414 -0.2004 -1.4175  1.1775
  180SLPC  C21220596   2.760   7.447   9.281  0.0345  0.2528  0.2202
  180SLPC  H12R20597   2.837   7.517   9.319 -0.2337  0.0300  1.1956
  180SLPC  C21320598   2.700   7.476   9.165 -0.1276 -0.4711 -0.3886
  180SLPC  H13R20599   2.738   7.557   9.103 -0.4264  0.6322  0.8218
  180SLPC  C21420600   2.582   7.402   9.109 -0.4665 -0.3240  0.4443
  180SLPC  H14R20601   2.484   7.454   9.118  0.4660  1.3861  1.2413
  180SLPC  H14S20602   2.559   7.306   9.160 -1.3202  0.0083  0.7052
  180SLPC  C21520603   2.590   7.386   8.957 -0.4098  0.1311 -0.5645
  180SLPC  H15R20604   2.556   7.477   8.904 -2.5018 -0.4941 -0.4002
  180SLPC  H15S20605   2.519   7.301   8.946 -0.1052 -0.0493 -1.1343
  180SLPC  C21620606   2.728   7.330   8.916  0.1444 -0.1207 -0.2916
  180SLPC  H16R20607   2.772   7.258   8.987  1.7173  0.0286 -1.0734
  180SLPC  H16S20608   2.799   7.415   8.905  1.1499 -0.4862  2.7436
  180SLPC  C21720609   2.724   7.245   8.791 -0.0614  0.0381  0.1140
  180SLPC  H17R20610   2.663   7.152   8.796  1.4668 -0.9667  0.4731
  180SLPC  H17S20611   2.828   7.213   8.771  0.1652  1.7247 -1.6867
  180SLPC  C21820612   2.677   7.320   8.666 -0.5644 -0.0994  0.8726
  180SLPC  H18R20613   2.740   7.411   8.657  2.5375 -2.2537 -2.0673
  180SLPC  H18S20614   2.569   7.346   8.672 -0.4828  1.0568 -1.4281
  180SLPC  H18T20615   2.695   7.252   8.580 -3.8085 -0.8695  0.6897
  180SLPC   C3320616   2.523   6.823   9.852  0.0822  0.4130 -0.9295
  180SLPC   H3X20617   2.420   6.860   9.869  0.1176 -0.5811  2.1804
  180SLPC   H3Y20618   2.504   6.715   9.835  0.9680  0.2268 -0.8157
  180SLPC   C3420619   2.567   6.887   9.725 -0.5781  0.0058 -0.1084
  180SLPC   H4X20620   2.671   6.852   9.709 -0.7548 -1.1788  1.1911
  180SLPC   H4Y20621   2.564   6.998   9.718 -1.1547  0.0520  0.7069
  180SLPC   C3520622   2.484   6.833   9.614  0.0840 -0.1573 -0.0551
  180SLPC   H5X20623   2.387   6.886   9.626 -0.2912 -0.5891 -1.0658
  180SLPC   H5Y20624   2.470   6.723   9.618  0.3810 -0.2615 -1.4069
  180SLPC   C3620625   2.539   6.880   9.480 -0.1228 -0.1197  0.4337
  180SLPC   H6X20626   2.643   6.843   9.464  1.1346  3.3847 -0.3682
  180SLPC   H6Y20627   2.553   6.989   9.498 -0.7427  0.0389 -0.0379
  180SLPC   C3720628   2.451   6.861   9.351  0.1295 -0.0271 -0.5691
  180SLPC   H7X20629   2.350   6.898   9.379  1.3190  2.0358  1.4043
  180SLPC   H7Y20630   2.438   6.751   9.341 -0.3913 -0.0741  0.4518
  180SLPC   C3820631   2.505   6.917   9.214  0.2594  0.1495 -0.7349
  180SLPC   H8X20632   2.616   6.918   9.213  0.2930  2.7944 -2.2767
  180SLPC   H8Y20633   2.483   7.026   9.217 -3.2618 -0.4333 -0.3011
  180SLPC   C3920634   2.454   6.845   9.088 -0.7816  0.0451 -0.8575
  180SLPC   H9X20635   2.344   6.834   9.101 -1.0342  0.3196 -2.5224
  180SLPC   H9Y20636   2.499   6.743   9.088 -0.0246  0.3713 -0.5307
  180SLPC  C31020637   2.482   6.931   8.959 -0.6322  0.1856 -0.1932
  180SLPC  H10X20638   2.585   6.913   8.921 -0.4627  0.5559  0.0806
  180SLPC  H10Y20639   2.482   7.036   8.997  0.9386 -0.4130  1.5895
  180SLPC  C31120640   2.372   6.897   8.857 -0.5061 -1.1350 -0.2450
  180SLPC  H11X20641   2.274   6.903   8.909 -0.5622 -0.0099 -0.4734
  180SLPC  H11Y20642   2.392   6.789   8.837 -1.7539 -1.3621 -0.3814
  180SLPC  C31220643   2.381   6.986   8.724 -0.5046  0.1478 -0.6192
  180SLPC  H12X20644   2.469   6.948   8.667 -0.5241  0.7013 -1.0298
  180SLPC  H12Y20645   2.384   7.093   8.753 -2.5802  0.1734 -0.3566
  180SLPC  C31320646   2.251   6.978   8.653  0.3270 -0.5917 -0.7158
  180SLPC  H13X20647   2.168   6.961   8.725  1.6050 -0.9606  0.7274
  180SLPC  H13Y20648   2.247   6.908   8.567 -4.1869 -0.0201 -1.2508
  180SLPC  C31420649   2.209   7.119   8.599 -0.3665 -0.2514 -0.2901
  180SLPC  H14X20650   2.206   7.184   8.689  2.6236  1.4339 -1.2393
  180SLPC  H14Y20651   2.106   7.123   8.558 -1.3802 -0.3260  2.0888
  180SLPC  C31520652   2.299   7.173   8.487 -0.1484  0.2195 -0.0195
  180SLPC  H15X20653   2.289   7.113   8.394  0.3260  1.1075 -0.6649
  180SLPC  H15Y20654   2.408   7.176   8.506  0.0315 -2.0177 -0.4111
  180SLPC  C31620655   2.260   7.320   8.444 -0.5147 -0.4036  0.0017
  180SLPC  H16X20656   2.271   7.383   8.535 -2.1245 -0.2703  0.1451
  180SLPC  H16Y20657   2.159   7.321   8.398  0.0937  0.7386 -1.3908
  180SLPC  C31720658   2.346   7.378   8.324  0.0625 -0.3364 -0.6225
  180SLPC  H17X20659   2.455   7.370   8.338  0.4159  2.7290 -0.8881
  180SLPC  H17Y20660   2.324   7.487   8.319 -1.9948 -0.7374 -1.8604
  180SLPC  C31820661   2.330   7.312   8.191  0.5009  0.3504  0.4563
  180SLPC  H18X20662   2.389   7.363   8.112 -0.5354  0.5384 -0.2200
  180SLPC  H18Y20663   2.224   7.306   8.159  1.0663  0.0565 -1.4833
  180SLPC  H18Z20664   2.352   7.203   8.192 -1.0547  0.0207  0.7347
  181SLPC     N20665   6.523   5.185  10.943  0.0426 -0.0305  0.3004
  181SLPC   C1320666   6.405   5.259  10.891  0.0915  0.1807 -0.2988
  181SLPC  H13A20667   6.323   5.189  10.886 -1.2546  1.7048 -0.4700
  181SLPC  H13B20668   6.381   5.344  10.953  2.2924  0.1150  0.7632
  181SLPC  H13C20669   6.424   5.303  10.794  1.1344  1.5908  0.5033
  181SLPC   C1420670   6.639   5.280  10.932 -0.2770 -0.2427  0.0576
  181SLPC  H14A20671   6.615   5.371  10.983  0.6550 -1.0246  1.9891
  181SLPC  H14B20672   6.735   5.239  10.960 -0.2380 -0.3669 -0.2472
  181SLPC  H14C20673   6.641   5.305  10.827 -1.4202 -0.2429  0.0227
  181SLPC   C1520674   6.544   5.065  10.851  0.5990 -0.7456  0.1258
  181SLPC  H15A20675   6.622   5.003  10.892 -0.4350 -2.1779  0.0041
  181SLPC  H15B20676   6.451   5.011  10.841  0.2334 -0.1377  0.1439
  181SLPC  H15C20677   6.569   5.100  10.751 -2.2232  0.7386 -0.1753
  181SLPC   C1220678   6.487   5.146  11.077  0.5157  0.1967 -0.1922
  181SLPC  H12A20679   6.442   5.228  11.131 -0.7366 -0.5853 -0.0071
  181SLPC  H12B20680   6.584   5.136  11.125  1.0676  0.8648 -1.1310
  181SLPC   C1120681   6.397   5.024  11.105 -0.2517 -0.0383  0.0808
  181SLPC  H11A20682   6.385   5.006  11.214 -0.4831 -1.0382 -0.0923
  181SLPC  H11B20683   6.449   4.934  11.066  0.6100  0.0298  1.0237
  181SLPC     P20684   6.189   4.928  10.980 -0.3333  0.4773 -0.1142
  181SLPC   O1320685   6.155   4.821  11.076 -0.3762  0.2593  0.1080
  181SLPC   O1420686   6.070   4.981  10.913  0.2563 -0.6048 -0.6753
  181SLPC   O1220687   6.271   5.042  11.046 -0.3814  0.0918 -0.0176
  181SLPC   O1120688   6.294   4.857  10.884 -0.5165  0.1395  0.0118
  181SLPC    C120689   6.261   4.779  10.766  0.3409  0.0068  0.1052
  181SLPC    HA20690   6.324   4.688  10.773  0.8350  0.3847  0.6147
  181SLPC    HB20691   6.155   4.744  10.767  0.2441  0.2247 -0.8234
  181SLPC    C220692   6.264   4.862  10.633 -0.0632  0.6366 -0.2528
  181SLPC    HS20693   6.363   4.908  10.613  1.4907 -2.6481 -0.7571
  181SLPC   O2120694   6.168   4.972  10.640  0.2451 -0.4286 -0.1316
  181SLPC   C2120695   6.216   5.096  10.620  0.3083 -0.3907 -0.3856
  181SLPC   O2220696   6.331   5.126  10.587  0.6036  0.6884 -0.7161
  181SLPC   C2220697   6.096   5.190  10.636  0.2526 -0.3642  0.1914
  181SLPC   H2R20698   6.014   5.145  10.576  1.7768  0.3000 -2.5857
  181SLPC   H2S20699   6.061   5.192  10.742  1.6874  0.0223  0.6757
  181SLPC    C320700   6.234   4.782  10.500 -0.9747 -0.1769 -0.0454
  181SLPC    HX20701   6.124   4.778  10.483 -0.8674 -0.3007 -0.7272
  181SLPC    HY20702   6.281   4.682  10.510 -1.4209 -0.2933  0.9833
  181SLPC   O3120703   6.293   4.851  10.386  0.0474 -0.8355  0.3036
  181SLPC   C3120704   6.210   4.946  10.330  0.6350 -0.0142 -0.2856
  181SLPC   O3220705   6.096   4.968  10.365  0.2973 -0.0623 -0.4751
  181SLPC   C3220706   6.290   5.021  10.229 -0.7222  0.2561  0.0268
  181SLPC   H2X20707   6.360   4.947  10.183 -1.0832  1.8963 -3.5238
  181SLPC   H2Y20708   6.345   5.096  10.290  0.5822 -0.8438  0.2635
  181SLPC   C2320709   6.124   5.335  10.592  0.9089  0.0151 -0.2555
  181SLPC   H3R20710   6.207   5.388  10.643  1.0914  0.9253 -1.4590
  181SLPC   H3S20711   6.036   5.403  10.595  0.8614 -0.0208 -0.8683
  181SLPC   C2420712   6.167   5.347  10.446  0.3532  0.2732 -0.3239
  181SLPC   H4R20713   6.114   5.265  10.394 -0.4335 -0.1187  1.0532
  181SLPC   H4S20714   6.276   5.324  10.440  0.0774 -1.2126 -0.0197
  181SLPC   C2520715   6.145   5.489  10.385  0.2665  0.1867 -0.0118
  181SLPC   H5R20716   6.203   5.564  10.443  1.7915 -0.1751 -0.9881
  181SLPC   H5S20717   6.040   5.524  10.378  0.0935 -0.5696 -3.4879
  181SLPC   C2620718   6.201   5.488  10.240  0.5183  0.0413 -0.2248
  181SLPC   H6R20719   6.132   5.431  10.173  0.6091  0.4645 -0.6817
  181SLPC   H6S20720   6.296   5.431  10.228  1.3712  1.4974 -0.6299
  181SLPC   C2720721   6.213   5.634  10.183  0.0556  0.2671  0.1272
  181SLPC   H7R20722   6.278   5.688  10.255  0.2880 -1.6122  1.3949
  181SLPC   H7S20723   6.116   5.689  10.180  0.6537  1.5208  1.7972
  181SLPC   C2820724   6.290   5.644  10.048  0.6238 -0.1400  0.2815
  181SLPC   H8R20725   6.382   5.582  10.058  1.3078  0.9506  0.9001
  181SLPC   H8S20726   6.322   5.746  10.019  0.2813  0.0417  0.5366
  181SLPC   C2920727   6.202   5.572   9.941 -0.1523 -0.1932  0.2537
  181SLPC   H9R20728   6.114   5.510   9.962  0.2298 -0.9540 -0.3660
  181SLPC  C21020729   6.222   5.587   9.803  0.1450  0.4127 -0.5207
  181SLPC  H10R20730   6.171   5.519   9.733 -0.5115  2.2696 -1.9128
  181SLPC  C21120731   6.328   5.669   9.741 -0.5197 -0.1003 -0.2471
  181SLPC  H11R20732   6.357   5.612   9.650  0.7272  2.6227 -1.7111
  181SLPC  H11S20733   6.424   5.684   9.795 -0.3435  0.8254 -0.7777
  181SLPC  C21220734   6.277   5.805   9.702  0.7068  0.2663  0.1054
  181SLPC  H12R20735   6.217   5.855   9.779 -0.0773 -0.3191 -0.1168
  181SLPC  C21320736   6.299   5.867   9.584 -0.0517  0.4624  0.1286
  181SLPC  H13R20737   6.244   5.960   9.565  0.2698  0.5906 -0.1892
  181SLPC  C21420738   6.380   5.817   9.469  0.0720 -0.1417 -0.1722
  181SLPC  H14R20739   6.461   5.748   9.503  0.5817  0.8315  0.6787
  181SLPC  H14S20740   6.434   5.900   9.418 -1.5390  0.2099 -1.3903
  181SLPC  C21520741   6.305   5.755   9.349  0.0763  0.3057  0.8371
  181SLPC  H15R20742   6.212   5.813   9.330  0.2068  0.1508 -0.3427
  181SLPC  H15S20743   6.264   5.654   9.366 -3.1698  1.2456 -0.6197
  181SLPC  C21620744   6.389   5.743   9.217  0.7543  0.9283  1.1256
  181SLPC  H16R20745   6.466   5.662   9.208  2.0488  1.8958  2.7830
  181SLPC  H16S20746   6.448   5.835   9.195 -0.9548  1.9640  0.7325
  181SLPC  C21720747   6.300   5.717   9.097 -0.3421  0.4442 -1.1169
  181SLPC  H17R20748   6.227   5.800   9.083 -0.9118  0.3565  0.9895
  181SLPC  H17S20749   6.243   5.623   9.108  0.7681 -0.0167  1.7838
  181SLPC  C21820750   6.383   5.700   8.970 -0.2608 -0.0604 -0.1353
  181SLPC  H18R20751   6.312   5.700   8.884 -0.5955 -2.1637  0.1046
  181SLPC  H18S20752   6.447   5.610   8.969  1.2524  0.9647 -2.1953
  181SLPC  H18T20753   6.447   5.791   8.961  0.0355 -0.3190 -0.6488
  181SLPC   C3320754   6.220   5.110  10.119  0.2301  0.1584  0.2001
  181SLPC   H3X20755   6.295   5.144  10.045 -2.5508  0.4773 -2.7078
  181SLPC   H3Y20756   6.182   5.198  10.175  1.1896 -0.4908  1.9384
  181SLPC   C3420757   6.115   5.026  10.038 -0.4364 -0.2964 -0.8078
  181SLPC   H4X20758   6.039   5.004  10.116 -0.2410  1.7618  0.0160
  181SLPC   H4Y20759   6.175   4.932  10.032  0.6958  0.3108  0.3829
  181SLPC   C3520760   6.072   5.077   9.910  0.1639  0.4098  0.0873
  181SLPC   H5X20761   6.024   4.989   9.863 -0.7037  0.6706  0.4709
  181SLPC   H5Y20762   6.158   5.103   9.844  1.1057  0.3686  1.2610
  181SLPC   C3620763   5.979   5.199   9.920  0.3197  0.4061 -0.2170
  181SLPC   H6X20764   6.044   5.280   9.959  1.1936  1.0635 -2.8168
  181SLPC   H6Y20765   5.900   5.168   9.991  0.6334 -0.1354 -0.0979
  181SLPC   C3720766   5.908   5.232   9.788 -0.1216  0.4029 -0.2620
  181SLPC   H7X20767   5.833   5.312   9.807 -1.4254 -1.1627  1.5847
  181SLPC   H7Y20768   5.848   5.145   9.752  0.3026  0.1844 -0.4382
  181SLPC   C3820769   6.000   5.256   9.665 -0.0500 -0.8289  0.0182
  181SLPC   H8X20770   6.073   5.173   9.656 -0.3801 -1.0778 -0.4014
  181SLPC   H8Y20771   6.064   5.347   9.678  2.4117 -2.6718  1.6869
  181SLPC   C3920772   5.928   5.261   9.527  0.1336 -1.0625  0.3872
  181SLPC   H9X20773   5.861   5.349   9.536  0.3198 -0.9430  0.5697
  181SLPC   H9Y20774   5.866   5.170   9.505 -0.2811 -0.4494 -1.1402
  181SLPC  C31020775   6.025   5.291   9.409  1.1625  0.3259  0.4671
  181SLPC  H10X20776   6.097   5.210   9.388 -1.0690 -1.8308  0.7528
  181SLPC  H10Y20777   6.083   5.382   9.438  1.2002  1.9120 -3.8042
  181SLPC  C31120778   5.955   5.309   9.271 -0.0350  0.7459 -0.1469
  181SLPC  H11X20779   5.874   5.385   9.278  0.3619  1.0355  1.9527
  181SLPC  H11Y20780   5.897   5.221   9.237 -3.2014  2.4128  0.5274
  181SLPC  C31220781   6.053   5.357   9.164  0.3405  0.7031 -0.5485
  181SLPC  H12X20782   6.135   5.282   9.162 -1.4329 -1.3111 -0.4552
  181SLPC  H12Y20783   6.103   5.451   9.197  0.9028 -0.4277  2.0325
  181SLPC  C31320784   5.985   5.375   9.032 -0.5254 -1.0200 -0.7935
  181SLPC  H13X20785   5.906   5.451   9.051 -0.4132 -1.3311  1.1224
  181SLPC  H13Y20786   5.922   5.289   9.003 -0.5562 -1.7994  1.4002
  181SLPC  C31420787   6.090   5.395   8.929  0.2618  0.5218  0.3140
  181SLPC  H14X20788   6.125   5.292   8.907 -2.0253 -0.2332 -0.0031
  181SLPC  H14Y20789   6.177   5.445   8.979  0.5555 -2.8614  3.6041
  181SLPC  C31520790   6.042   5.470   8.811  0.5902  0.0509 -0.8270
  181SLPC  H15X20791   6.024   5.577   8.836  1.2215  0.7867 -3.2741
  181SLPC  H15Y20792   5.940   5.429   8.792  0.1854  0.8949 -0.5364
  181SLPC  C31620793   6.131   5.467   8.689 -0.6928 -0.2755  0.5084
  181SLPC  H16X20794   6.231   5.497   8.727 -0.9176  0.0232  0.8814
  181SLPC  H16Y20795   6.112   5.541   8.609 -2.6437 -0.9294  0.3032
  181SLPC  C31720796   6.148   5.325   8.627  0.3959  0.7653  0.0534
  181SLPC  H17X20797   6.049   5.300   8.581  0.0497  0.0590  1.1428
  181SLPC  H17Y20798   6.173   5.247   8.702  0.5547  1.1874  0.4418
  181SLPC  C31820799   6.249   5.326   8.517 -0.5079  0.1956  0.5394
  181SLPC  H18X20800   6.270   5.220   8.491 -0.6630 -0.0093  1.2074
  181SLPC  H18Y20801   6.331   5.390   8.556 -0.5939 -0.0922  1.2200
  181SLPC  H18Z20802   6.204   5.377   8.429 -2.1957  0.0342  1.2644
  182SLPC     N20803   4.249   5.354  11.048 -0.0661 -0.9280  0.5616
  182SLPC   C1320804   4.148   5.390  11.150 -0.4117 -0.0796 -0.5051
  182SLPC  H13A20805   4.121   5.297  11.199  3.3712 -1.3424 -0.4563
  182SLPC  H13B20806   4.194   5.462  11.216 -0.3994  0.6902 -1.3497
  182SLPC  H13C20807   4.066   5.426  11.090  1.4660 -0.5856 -3.6188
  182SLPC   C1420808   4.352   5.278  11.122 -0.2812 -0.3614  0.0624
  182SLPC  H14A20809   4.313   5.186  11.162 -0.2902  0.8273  3.0500
  182SLPC  H14B20810   4.440   5.255  11.064  0.9526  0.5232  1.5058
  182SLPC  H14C20811   4.382   5.333  11.210  0.1670 -2.0106  0.9859
  182SLPC   C1520812   4.314   5.474  10.991 -0.7781 -0.0964 -0.2174
  182SLPC  H15A20813   4.367   5.525  11.070  0.3217  0.0190 -1.0072
  182SLPC  H15B20814   4.385   5.440  10.917 -1.2327  0.9978 -1.1767
  182SLPC  H15C20815   4.243   5.532  10.936 -0.9566 -1.4845 -1.5186
  182SLPC   C1220816   4.189   5.258  10.946  0.6520  0.8628 -0.1143
  182SLPC  H12A20817   4.129   5.192  11.007  2.2635  0.2874  0.9254
  182SLPC  H12B20818   4.267   5.206  10.894 -0.0892 -0.1326 -0.2638
  182SLPC   C1120819   4.095   5.329  10.841 -0.3192  0.4204  0.1823
  182SLPC  H11A20820   4.069   5.243  10.776 -0.9943 -1.8019  3.1486
  182SLPC  H11B20821   4.169   5.382  10.777  0.7271 -1.2617 -0.0549
  182SLPC     P20822   3.976   5.555  10.819 -0.2464  0.5171 -0.3894
  182SLPC   O1320823   3.857   5.623  10.875 -0.2995 -0.4722  0.3313
  182SLPC   O1420824   4.101   5.630  10.842  0.3551  0.2163 -0.0522
  182SLPC   O1220825   3.990   5.413  10.888  0.0326  0.5047 -0.2949
  182SLPC   O1120826   3.961   5.534  10.661 -0.4452 -0.0344 -0.6376
  182SLPC    C120827   3.852   5.435  10.628 -0.2677  0.5383 -0.2349
  182SLPC    HA20828   3.892   5.333  10.643  0.8856  1.0162  0.0546
  182SLPC    HB20829   3.759   5.440  10.690 -0.4634 -2.4721 -0.1519
  182SLPC    C220830   3.799   5.433  10.479 -0.0267  0.4487 -0.1314
  182SLPC    HS20831   3.707   5.370  10.470 -1.9959  2.8620  1.6770
  182SLPC   O2120832   3.900   5.389  10.387  0.0771  0.2095  0.5540
  182SLPC   C2120833   3.910   5.255  10.382  0.7733  0.2994  0.2418
  182SLPC   O2220834   3.841   5.182  10.451 -0.0751  0.7664 -0.4526
  182SLPC   C2220835   3.996   5.211  10.266  0.0755  0.6888 -0.0101
  182SLPC   H2R20836   4.034   5.301  10.212 -0.4138  1.0549  0.2442
  182SLPC   H2S20837   4.080   5.150  10.305  0.4770  0.0531 -1.7852
  182SLPC    C320838   3.751   5.574  10.434  0.7705 -0.1605  0.5651
  182SLPC    HX20839   3.830   5.650  10.453 -0.2691  1.0140  0.3112
  182SLPC    HY20840   3.665   5.606  10.497 -0.6435  0.7923 -1.6880
  182SLPC   O3120841   3.703   5.563  10.298  0.3843 -0.2484 -0.1819
  182SLPC   C3120842   3.787   5.603  10.202  0.4722 -0.0722 -0.3442
  182SLPC   O3220843   3.899   5.648  10.224 -0.1836  0.1788 -0.3598
  182SLPC   C3220844   3.717   5.573  10.069 -0.0055 -0.5851  0.1555
  182SLPC   H2X20845   3.704   5.658   9.999  1.4081 -1.1481 -0.8465
  182SLPC   H2Y20846   3.613   5.545  10.095 -0.0936  1.2157  2.0362
  182SLPC   C2320847   3.918   5.135  10.156  0.0366  0.3109 -0.2350
  182SLPC   H3R20848   3.817   5.178  10.136 -0.3459 -0.3079  0.3182
  182SLPC   H3S20849   3.891   5.032  10.188 -2.0262  0.1655 -2.1898
  182SLPC   C2420850   3.990   5.128  10.023 -0.4205 -0.5599 -0.1833
  182SLPC   H4R20851   4.080   5.064  10.029 -0.5551 -0.7391 -0.0677
  182SLPC   H4S20852   4.007   5.233   9.990 -2.5419  0.4144  1.5170
  182SLPC   C2520853   3.901   5.051   9.926  0.8806 -0.4955  0.0355
  182SLPC   H5R20854   3.811   5.114   9.912  0.9587  0.6893  3.6841
  182SLPC   H5S20855   3.854   4.965   9.978 -0.5676  1.0785  1.4835
  182SLPC   C2620856   3.966   5.001   9.795 -0.2392 -0.9843  0.8930
  182SLPC   H6R20857   3.883   4.953   9.741 -0.2795  1.3235 -1.2630
  182SLPC   H6S20858   4.038   4.921   9.823 -1.3497 -2.4347 -0.2379
  182SLPC   C2720859   4.022   5.111   9.694  0.0441  0.1449 -0.1826
  182SLPC   H7R20860   4.101   5.174   9.741 -0.4798  0.2926  0.5102
  182SLPC   H7S20861   3.938   5.183   9.686 -0.9626 -1.1211 -1.4792
  182SLPC   C2820862   4.056   5.052   9.555  0.3200  0.1164 -0.0752
  182SLPC   H8R20863   3.963   5.032   9.498 -0.3976  0.3671  0.9887
  182SLPC   H8S20864   4.118   4.963   9.579  1.5379  1.4085  1.8168
  182SLPC   C2920865   4.143   5.153   9.486 -0.6149  0.2480  0.0646
  182SLPC   H9R20866   4.203   5.214   9.556 -1.0676  1.3996 -0.5321
  182SLPC  C21020867   4.131   5.188   9.355  0.3808  0.8850 -0.3931
  182SLPC  H10R20868   4.191   5.269   9.311 -1.1147  1.4111 -1.5722
  182SLPC  C21120869   4.042   5.119   9.251  0.1856  0.7335 -0.0569
  182SLPC  H11R20870   4.015   5.187   9.167 -0.2258 -0.2055 -0.6971
  182SLPC  H11S20871   3.946   5.089   9.299  0.5760 -1.2463 -0.4196
  182SLPC  C21220872   4.107   4.992   9.196 -1.0195 -0.6691 -0.4987
  182SLPC  H12R20873   4.175   4.939   9.265  0.3985  0.2529 -1.1393
  182SLPC  C21320874   4.081   4.957   9.070  0.1395  0.6919  0.4045
  182SLPC  H13R20875   4.131   4.869   9.026 -0.2486  0.3216  0.6893
  182SLPC  C21420876   3.991   5.018   8.967  0.7253 -0.6190 -0.1169
  182SLPC  H14R20877   4.052   5.082   8.899 -0.1494  0.8265  0.4241
  182SLPC  H14S20878   3.933   5.098   9.016  0.5057 -1.2822  0.7317
  182SLPC  C21520879   3.909   4.923   8.887  1.1745 -0.1195  0.1328
  182SLPC  H15R20880   3.847   4.868   8.962 -0.0217 -0.8299 -1.3118
  182SLPC  H15S20881   3.963   4.853   8.820  0.6941 -1.3146  0.9578
  182SLPC  C21620882   3.806   4.991   8.790  0.4262 -0.2218 -0.4920
  182SLPC  H16R20883   3.865   5.046   8.713 -0.4895  0.9462 -0.3777
  182SLPC  H16S20884   3.747   5.069   8.843  0.2110 -0.0800 -0.9333
  182SLPC  C21720885   3.722   4.883   8.723  0.6348 -0.0654  0.1167
  182SLPC  H17R20886   3.665   4.832   8.804 -0.4356 -0.1260 -0.6592
  182SLPC  H17S20887   3.801   4.819   8.679  0.2469  0.4904 -1.4446
  182SLPC  C21820888   3.629   4.929   8.619  0.4458  0.4618  0.2092
  182SLPC  H18R20889   3.566   5.015   8.652  0.7761  1.6343 -2.0218
  182SLPC  H18S20890   3.552   4.854   8.588 -0.2362  1.4787 -0.6201
  182SLPC  H18T20891   3.676   4.962   8.524  0.1634  0.5227  0.0887
  182SLPC   C3320892   3.806   5.489   9.980 -0.3827 -0.1916 -0.0319
  182SLPC   H3X20893   3.755   5.412   9.918  2.4738  0.6550 -3.7515
  182SLPC   H3Y20894   3.873   5.429  10.044  0.2125 -0.0609 -0.5284
  182SLPC   C3420895   3.896   5.572   9.887 -0.1310 -0.3196  0.8843
  182SLPC   H4X20896   3.983   5.512   9.851 -0.0694 -0.7318  1.6965
  182SLPC   H4Y20897   3.941   5.655   9.944  1.6247 -2.4736  2.8374
  182SLPC   C3520898   3.839   5.615   9.750  0.2338 -0.4965  0.4696
  182SLPC   H5X20899   3.735   5.653   9.758 -0.2159 -0.9981 -2.0872
  182SLPC   H5Y20900   3.834   5.530   9.679  1.3699  1.8959 -2.6951
  182SLPC   C3620901   3.919   5.719   9.672 -0.3685 -0.1260 -0.0047
  182SLPC   H6X20902   3.932   5.810   9.735 -0.6996  0.0509 -0.1938
  182SLPC   H6Y20903   3.859   5.745   9.583  1.9106  0.0918 -1.5789
  182SLPC   C3720904   4.060   5.675   9.616 -0.4103 -0.5711  0.3096
  182SLPC   H7X20905   4.059   5.579   9.560 -0.4975 -0.6335  0.4199
  182SLPC   H7Y20906   4.134   5.650   9.695 -0.2993 -0.1277  0.3522
  182SLPC   C3820907   4.114   5.790   9.540 -0.3355 -0.0794  0.5451
  182SLPC   H8X20908   4.223   5.797   9.561  0.0191  0.0024 -1.2011
  182SLPC   H8Y20909   4.074   5.886   9.579 -0.7779 -0.7379  1.7526
  182SLPC   C3920910   4.082   5.768   9.393 -0.0353 -0.0230  0.2552
  182SLPC   H9X20911   3.972   5.755   9.389 -0.2820  1.9151 -0.2234
  182SLPC   H9Y20912   4.126   5.675   9.350  0.5127  0.2413  0.2315
  182SLPC  C31020913   4.121   5.881   9.297  0.0303 -0.4195  0.1979
  182SLPC  H10X20914   4.080   5.848   9.199  0.0812  2.8194 -1.0196
  182SLPC  H10Y20915   4.229   5.904   9.287  0.2160 -1.4377 -0.3296
  182SLPC  C31120916   4.038   6.015   9.317  0.0140  0.2697  0.7379
  182SLPC  H11X20917   4.054   6.067   9.414 -1.4208  1.3197  0.4533
  182SLPC  H11Y20918   3.929   5.992   9.325 -0.3967  1.4979 -0.8103
  182SLPC  C31220919   4.073   6.127   9.220  0.1107 -0.0358 -0.3841
  182SLPC  H12X20920   4.183   6.138   9.208  0.0338  0.0278 -1.0401
  182SLPC  H12Y20921   4.041   6.224   9.264  0.9797 -0.3420  0.9849
  182SLPC  C31320922   4.006   6.116   9.085 -0.2313 -0.6232  0.3877
  182SLPC  H13X20923   3.898   6.092   9.101 -0.8273  0.4688 -1.6907
  182SLPC  H13Y20924   4.060   6.030   9.040 -1.4005 -0.9679 -0.4139
  182SLPC  C31420925   4.009   6.248   9.007 -0.1657  0.1173 -0.6489
  182SLPC  H14X20926   4.114   6.284   9.010 -0.2215  0.2899  1.8070
  182SLPC  H14Y20927   3.953   6.320   9.071  0.7409 -0.1630  0.4834
  182SLPC  C31520928   3.931   6.238   8.875 -0.0188  0.2586 -0.0733
  182SLPC  H15X20929   3.822   6.251   8.890  0.0377  1.2338 -0.4636
  182SLPC  H15Y20930   3.926   6.133   8.838 -1.9358 -0.1563  1.2260
  182SLPC  C31620931   3.979   6.337   8.774 -0.2890  0.1044  0.8229
  182SLPC  H16X20932   4.078   6.306   8.735 -1.1019 -0.9752 -0.4983
  182SLPC  H16Y20933   3.985   6.439   8.818 -0.6657  1.3666 -1.8251
  182SLPC  C31720934   3.882   6.349   8.654  0.6269  0.0490 -0.4000
  182SLPC  H17X20935   3.782   6.358   8.700  0.8691  4.2163 -0.3470
  182SLPC  H17Y20936   3.891   6.259   8.589  0.8009 -0.9311  0.9417
  182SLPC  C31820937   3.912   6.469   8.561 -0.2890 -0.1605  0.1314
  182SLPC  H18X20938   3.896   6.563   8.620  0.4941  0.6859 -0.9548
  182SLPC  H18Y20939   3.831   6.481   8.487 -0.1815  1.4474  0.2186
  182SLPC  H18Z20940   4.015   6.480   8.520 -0.5409  2.6366  0.0060
  183SLPC     N20941   5.394   6.166  11.226  0.1707 -1.2938 -0.0060
  183SLPC   C1320942   5.374   6.026  11.273  0.0120  0.2348 -0.5071
  183SLPC  H13A20943   5.459   5.963  11.250 -0.7067 -2.1108  2.5141
  183SLPC  H13B20944   5.375   6.036  11.381  1.3684 -0.1432 -0.4564
  183SLPC  H13C20945   5.285   5.974  11.243 -1.5230  2.8951 -0.8794
  183SLPC   C1420946   5.505   6.232  11.303  0.3262  0.1716  0.0501
  183SLPC  H14A20947   5.484   6.234  11.409 -1.7578 -2.0832 -0.2192
  183SLPC  H14B20948   5.600   6.185  11.288  0.5063  1.0021 -1.7140
  183SLPC  H14C20949   5.515   6.335  11.271  3.8233 -0.1759 -0.2703
  183SLPC   C1520950   5.270   6.253  11.245  0.3562  0.4582  0.3185
  183SLPC  H15A20951   5.288   6.358  11.226 -2.1271  0.7411 -1.0321
  183SLPC  H15B20952   5.186   6.221  11.185 -0.6233  0.7657  1.4825
  183SLPC  H15C20953   5.245   6.261  11.350 -0.9955  1.0213 -0.0166
  183SLPC   C1220954   5.431   6.185  11.085 -0.5136 -0.1952 -0.1540
  183SLPC  H12A20955   5.355   6.142  11.021 -1.3954 -0.0041  0.7385
  183SLPC  H12B20956   5.525   6.135  11.066  1.0622  2.4524  0.1406
  183SLPC   C1120957   5.446   6.324  11.011 -0.8397 -0.3331  0.0764
  183SLPC  H11A20958   5.343   6.355  10.985 -0.0062  1.1666 -1.7036
  183SLPC  H11B20959   5.484   6.301  10.909  0.0157  0.3356  0.2301
  183SLPC     P20960   5.677   6.425  11.038  0.0449 -0.0089  0.4711
  183SLPC   O1320961   5.748   6.501  11.142 -0.5488 -0.0083  0.2511
  183SLPC   O1420962   5.736   6.292  11.013  0.2454 -0.1099 -0.0865
  183SLPC   O1220963   5.521   6.418  11.083  0.4849 -0.5212 -0.0866
  183SLPC   O1120964   5.666   6.505  10.905  0.3288 -0.3367  0.6413
  183SLPC    C120965   5.609   6.633  10.911  0.4961 -0.2587  0.4394
  183SLPC    HA20966   5.577   6.662  11.014  0.2670  0.1436  0.2597
  183SLPC    HB20967   5.691   6.698  10.874  0.2879 -0.5563 -0.5857
  183SLPC    C220968   5.490   6.662  10.805 -0.0590  0.0871  0.0739
  183SLPC    HS20969   5.388   6.642  10.845  0.5024  1.4338  2.4030
  183SLPC   O2120970   5.524   6.583  10.689  0.6622 -0.1351 -0.2716
  183SLPC   C2120971   5.455   6.473  10.669 -0.0651 -0.2323  0.0167
  183SLPC   O2220972   5.354   6.441  10.726 -0.3013 -0.4782  0.1366
  183SLPC   C2220973   5.500   6.422  10.533 -0.1818  0.1302  0.6760
  183SLPC   H2R20974   5.506   6.514  10.471  0.9609  0.3437  1.0876
  183SLPC   H2S20975   5.595   6.366  10.547  0.6416  1.4420  0.4971
  183SLPC    C320976   5.482   6.816  10.767  0.2434 -0.4534 -0.8926
  183SLPC    HX20977   5.579   6.843  10.720  1.0127 -2.4731 -0.5742
  183SLPC    HY20978   5.476   6.875  10.861 -2.7835 -1.0101 -0.6453
  183SLPC   O3120979   5.358   6.837  10.698 -0.3894 -0.4900  0.7956
  183SLPC   C3120980   5.246   6.852  10.764 -0.4194 -0.8533  0.1922
  183SLPC   O3220981   5.232   6.847  10.886 -0.0189  0.6986 -0.1491
  183SLPC   C3220982   5.129   6.892  10.668  0.8190  0.3430 -0.1802
  183SLPC   H2X20983   5.166   6.971  10.600  0.7968 -0.7918 -1.5561
  183SLPC   H2Y20984   5.053   6.934  10.737  1.3155  0.9138  0.0267
  183SLPC   C2320985   5.407   6.316  10.472 -0.3380 -0.0260  0.3917
  183SLPC   H3R20986   5.310   6.352  10.431  0.4873 -0.6993 -2.3552
  183SLPC   H3S20987   5.376   6.253  10.558 -0.2834  0.6396  0.9123
  183SLPC   C2420988   5.465   6.224  10.369 -0.0795 -0.4112  0.4990
  183SLPC   H4R20989   5.412   6.129  10.346 -0.4755  0.1633 -1.1255
  183SLPC   H4S20990   5.570   6.197  10.394  0.5258  0.9828 -0.3755
  183SLPC   C2520991   5.470   6.296  10.238 -0.1521 -0.2079  0.7382
  183SLPC   H5R20992   5.532   6.387  10.257  0.9761 -0.6756 -0.4796
  183SLPC   H5S20993   5.369   6.324  10.202  1.9280  1.9882 -4.4148
  183SLPC   C2620994   5.539   6.225  10.124  0.2783  0.0185 -0.2308
  183SLPC   H6R20995   5.488   6.129  10.101 -0.0665 -0.5109  2.4359
  183SLPC   H6S20996   5.642   6.196  10.154  0.4403  0.3416 -0.4789
  183SLPC   C2720997   5.552   6.323  10.001 -0.5239  0.5551  0.3073
  183SLPC   H7R20998   5.598   6.418  10.036  2.0015  0.2334 -1.7944
  183SLPC   H7S20999   5.448   6.353   9.978 -0.0900  1.7987 -0.1608
  183SLPC   C2821000   5.642   6.263   9.897  0.7591 -0.2536 -0.2981
  183SLPC   H8R21001   5.747   6.253   9.931  0.1282  0.0866  1.8951
  183SLPC   H8S21002   5.654   6.336   9.814  3.8530  1.4121  1.4054
  183SLPC   C2921003   5.577   6.134   9.841 -0.1885  0.1985 -0.0248
  183SLPC   H9R21004   5.627   6.047   9.886  0.5867  1.2346  1.1643
  183SLPC  C21021005   5.474   6.133   9.750 -0.4539  0.2170 -0.9552
  183SLPC  H10R21006   5.421   6.039   9.728  0.5658 -0.1514 -1.9341
  183SLPC  C21121007   5.414   6.256   9.690  0.7997  0.4075 -0.5786
  183SLPC  H11R21008   5.500   6.320   9.663  1.4427 -0.2710 -0.2070
  183SLPC  H11S21009   5.349   6.311   9.761  0.0274 -1.0358 -0.1151
  183SLPC  C21221010   5.323   6.218   9.580  0.3257 -0.2128 -0.5861
  183SLPC  H12R21011   5.259   6.129   9.590  0.5911 -0.3441 -0.0149
  183SLPC  C21321012   5.309   6.299   9.470 -0.4320  0.4306 -0.3294
  183SLPC  H13R21013   5.235   6.274   9.392  1.0024 -0.8594 -1.3484
  183SLPC  C21421014   5.393   6.417   9.440  0.0056  0.5995 -0.0106
  183SLPC  H14R21015   5.440   6.461   9.531  1.2348 -0.8612  0.1100
  183SLPC  H14S21016   5.340   6.498   9.387 -0.8926  0.9081  1.3056
  183SLPC  C21521017   5.512   6.367   9.349  0.3770 -0.4260 -0.1578
  183SLPC  H15R21018   5.478   6.335   9.248 -0.7054 -1.5367  0.5272
  183SLPC  H15S21019   5.562   6.279   9.396  2.7473 -0.4068 -2.4346
  183SLPC  C21621020   5.624   6.467   9.317  0.3777  0.5061 -0.5774
  183SLPC  H16R21021   5.650   6.528   9.407  0.0637 -0.4028  0.1456
  183SLPC  H16S21022   5.589   6.547   9.248  0.2707  0.3827 -0.6645
  183SLPC  C21721023   5.739   6.393   9.247 -0.2695  0.5252  0.4034
  183SLPC  H17R21024   5.707   6.329   9.161  3.1799 -0.5254 -0.2481
  183SLPC  H17S21025   5.774   6.317   9.319 -2.0014 -0.5457  0.1954
  183SLPC  C21821026   5.852   6.482   9.212 -0.5171 -0.2440  0.1328
  183SLPC  H18R21027   5.818   6.548   9.129 -1.0849 -0.3871  0.2449
  183SLPC  H18S21028   5.948   6.438   9.178  1.0715  1.9054  1.6137
  183SLPC  H18T21029   5.886   6.545   9.296  1.8754  0.3845 -1.2199
  183SLPC   C3321030   5.083   6.767  10.585  0.3588 -0.5099 -0.8098
  183SLPC   H3X21031   4.977   6.796  10.564  0.0144 -1.1321  0.0122
  183SLPC   H3Y21032   5.080   6.668  10.635 -1.3809 -0.3461 -0.4983
  183SLPC   C3421033   5.163   6.738  10.454  0.4447  0.0867 -0.3854
  183SLPC   H4X21034   5.269   6.714  10.478  0.7122  2.0020  0.5185
  183SLPC   H4Y21035   5.170   6.830  10.392  0.2344  3.0190  3.5469
  183SLPC   C3521036   5.097   6.616  10.384  0.1924 -0.5518 -0.6845
  183SLPC   H5X21037   4.989   6.639  10.373  0.1583  0.4978  1.3891
  183SLPC   H5Y21038   5.099   6.535  10.459 -0.4624  2.3450  2.6917
  183SLPC   C3621039   5.149   6.572  10.243  0.1155  0.5736 -0.0368
  183SLPC   H6X21040   5.259   6.574  10.230  0.1879  1.4489  0.6539
  183SLPC   H6Y21041   5.113   6.651  10.174 -1.1796  0.5270  0.5547
  183SLPC   C3721042   5.098   6.436  10.198  0.3131 -0.4720 -0.4890
  183SLPC   H7X21043   5.001   6.426  10.251  1.6485  1.4219  2.5987
  183SLPC   H7Y21044   5.160   6.355  10.242 -1.3048 -0.8865  1.1501
  183SLPC   C3821045   5.092   6.406  10.045 -0.1902 -0.7931 -0.2769
  183SLPC   H8X21046   5.195   6.379  10.013 -0.4286 -4.7619  1.6435
  183SLPC   H8Y21047   5.058   6.497   9.992 -2.0141 -1.9564 -1.1815
  183SLPC   C3921048   4.998   6.294  10.008  0.6234 -0.6234 -0.1327
  183SLPC   H9X21049   4.900   6.306  10.058 -0.2143 -0.5679 -1.7097
  183SLPC   H9Y21050   5.047   6.198  10.034 -1.3026 -1.6881 -0.2867
  183SLPC  C31021051   4.972   6.261   9.861  0.2683 -0.1966  0.3378
  183SLPC  H10X21052   4.888   6.190   9.849 -0.4506  0.8770 -1.6962
  183SLPC  H10Y21053   5.064   6.227   9.808  0.9506 -0.2268  1.5224
  183SLPC  C31121054   4.917   6.379   9.778  0.3605  0.4776 -0.8202
  183SLPC  H11X21055   4.992   6.461   9.790  1.1360 -0.2102 -0.8802
  183SLPC  H11Y21056   4.826   6.419   9.828  0.2180 -0.2774 -0.4555
  183SLPC  C31221057   4.908   6.352   9.626  0.0878  0.1941 -0.4869
  183SLPC  H12X21058   4.835   6.268   9.623  0.6625 -0.5343  2.3424
  183SLPC  H12Y21059   5.010   6.323   9.595 -0.0496  0.0553 -0.8050
  183SLPC  C31321060   4.856   6.469   9.540 -0.1285 -0.1228  0.2891
  183SLPC  H13X21061   4.908   6.563   9.568  0.8021 -0.1550 -1.2155
  183SLPC  H13Y21062   4.751   6.495   9.567  0.1074  0.8515  0.3080
  183SLPC  C31421063   4.865   6.437   9.390 -0.4268 -0.7712  0.5350
  183SLPC  H14X21064   4.795   6.358   9.356  3.1329 -3.0469 -2.3207
  183SLPC  H14Y21065   4.968   6.401   9.366 -0.5122 -1.0915  0.6399
  183SLPC  C31521066   4.840   6.550   9.294  0.2065  0.1037  0.0261
  183SLPC  H15X21067   4.896   6.632   9.345 -2.3188  1.3069  1.0354
  183SLPC  H15Y21068   4.737   6.591   9.300  0.8648  1.9070 -0.3447
  183SLPC  C31621069   4.901   6.530   9.154 -0.2008 -0.1403 -0.3544
  183SLPC  H16X21070   4.886   6.422   9.133 -0.3073  0.0389 -1.2238
  183SLPC  H16Y21071   5.009   6.554   9.168 -0.6371  2.0100 -0.3559
  183SLPC  C31721072   4.831   6.624   9.051 -0.5959 -0.0432  0.7938
  183SLPC  H17X21073   4.856   6.730   9.073  0.1296 -0.3071  1.2700
  183SLPC  H17Y21074   4.723   6.605   9.072 -0.9297  0.4224 -0.4098
  183SLPC  C31821075   4.876   6.613   8.906 -0.7496  0.4922  0.1161
  183SLPC  H18X21076   4.979   6.641   8.876 -0.9426 -0.7788 -1.8630
  183SLPC  H18Y21077   4.810   6.684   8.851 -0.4339 -0.9469 -2.2321
  183SLPC  H18Z21078   4.867   6.509   8.870  1.3853 -0.0334  0.9799
  184SLPC     N21079   0.525   2.956  10.743 -0.7165 -0.0384 -0.2456
  184SLPC   C1321080   0.519   2.817  10.790  0.0521 -0.3359  0.3492
  184SLPC  H13A21081   0.484   2.795  10.890  0.4342  0.8615  0.7603
  184SLPC  H13B21082   0.437   2.762  10.746 -0.9984  1.2271  0.2696
  184SLPC  H13C21083   0.604   2.756  10.764  0.6238 -0.2701  1.8996
  184SLPC   C1421084   0.653   3.021  10.792 -0.3456 -0.0265  0.4867
  184SLPC  H14A21085   0.663   3.124  10.761  1.5191  0.1804  1.6116
  184SLPC  H14B21086   0.667   3.030  10.899 -0.5657 -0.0330  0.5171
  184SLPC  H14C21087   0.734   2.971  10.742 -1.6845 -0.3407 -1.4566
  184SLPC   C1521088   0.404   3.029  10.790  0.0935 -0.3149  0.0724
  184SLPC  H15A21089   0.400   3.128  10.745 -0.8461 -1.1070 -1.7189
  184SLPC  H15B21090   0.313   2.985  10.753 -1.5018  2.0977  0.8398
  184SLPC  H15C21091   0.412   3.042  10.896  0.1697 -0.5729  0.0968
  184SLPC   C1221092   0.534   2.950  10.593 -0.1609  0.3800 -0.6107
  184SLPC  H12A21093   0.504   3.052  10.571  1.8525  1.2218  0.3473
  184SLPC  H12B21094   0.467   2.870  10.567 -0.7611 -0.4453  3.0297
  184SLPC   C1121095   0.675   2.926  10.531 -0.0140  0.6631 -0.1006
  184SLPC  H11A21096   0.744   3.013  10.536  0.7326  0.0458  0.6332
  184SLPC  H11B21097   0.662   2.920  10.421  2.2005  0.7438 -0.4053
  184SLPC     P21098   0.879   2.762  10.573 -0.3154 -0.0633  0.1981
  184SLPC   O1321099   0.946   2.842  10.686  0.4670  0.2182  0.7093
  184SLPC   O1421100   0.893   2.621  10.580 -0.2247  0.3530 -0.4285
  184SLPC   O1221101   0.723   2.796  10.572 -0.4039  0.2235 -0.6111
  184SLPC   O1121102   0.926   2.812  10.430 -0.5932 -0.4500  0.2081
  184SLPC    C121103   0.928   2.729  10.309 -0.2286 -0.2009 -0.6632
  184SLPC    HA21104   0.857   2.644  10.315  0.8865 -1.2090 -1.3639
  184SLPC    HB21105   0.891   2.790  10.223 -0.5202  2.5345  1.2667
  184SLPC    C221106   1.073   2.665  10.284 -0.4754  0.1639 -0.4498
  184SLPC    HS21107   1.103   2.625  10.383 -1.5966 -2.0886 -0.9575
  184SLPC   O2121108   1.158   2.771  10.232  0.3430  0.1664  0.4667
  184SLPC   C2121109   1.291   2.744  10.236  0.2795 -0.5866 -0.5033
  184SLPC   O2221110   1.338   2.638  10.283 -0.6782  0.0609  0.3499
  184SLPC   C2221111   1.376   2.851  10.162 -0.0138 -0.0446 -0.0198
  184SLPC   H2R21112   1.340   2.952  10.188 -0.3790 -0.0696 -0.4195
  184SLPC   H2S21113   1.480   2.821  10.187  0.7177  0.0539 -2.6313
  184SLPC    C321114   1.068   2.537  10.197  0.1976 -0.9519  0.2658
  184SLPC    HX21115   1.029   2.455  10.260 -0.0568 -0.7153  0.4179
  184SLPC    HY21116   1.175   2.512  10.176  0.6808  0.8709  0.3609
  184SLPC   O3121117   0.980   2.555  10.086  0.2105 -0.4437  0.2045
  184SLPC   C3121118   1.050   2.596   9.975  0.0030  1.2214 -0.2022
  184SLPC   O3221119   1.172   2.592   9.960  0.0743 -0.0197 -0.1182
  184SLPC   C3221120   0.945   2.648   9.877  0.8128  0.3075 -0.2089
  184SLPC   H2X21121   0.859   2.685   9.936  0.1128  0.1061 -1.0766
  184SLPC   H2Y21122   0.905   2.570   9.808 -1.0551  1.3210 -0.3209
  184SLPC   C2321123   1.370   2.853  10.006 -0.0581 -0.3120 -0.7773
  184SLPC   H3R21124   1.260   2.851   9.991 -0.2227  0.9930  0.0942
  184SLPC   H3S21125   1.397   2.751   9.971 -2.2487 -0.6628 -1.6107
  184SLPC   C2421126   1.438   2.962   9.926  0.5017  0.7488  0.2237
  184SLPC   H4R21127   1.548   2.949   9.935  0.2631 -1.3298  0.5901
  184SLPC   H4S21128   1.406   3.062   9.962  2.4407  1.8513 -0.9410
  184SLPC   C2521129   1.394   2.947   9.779 -0.5714  0.6359  0.0740
  184SLPC   H5R21130   1.283   2.939   9.772 -0.7305  2.4215  0.1765
  184SLPC   H5S21131   1.429   2.849   9.740  1.3133  0.6837  1.5116
  184SLPC   C2621132   1.452   3.062   9.699 -0.4499 -0.7132 -0.2155
  184SLPC   H6R21133   1.561   3.075   9.714 -0.7613 -0.9257  2.7933
  184SLPC   H6S21134   1.404   3.154   9.738  1.5845 -0.0285  0.8433
  184SLPC   C2721135   1.431   3.067   9.550  0.6248  0.2999  0.4042
  184SLPC   H7R21136   1.320   3.056   9.540  0.6672  1.8305 -2.8689
  184SLPC   H7S21137   1.479   2.986   9.492 -1.7894 -1.2268  0.3792
  184SLPC   C2821138   1.471   3.199   9.487 -0.0971  0.0719  0.5294
  184SLPC   H8R21139   1.428   3.289   9.536  1.3956  1.5488 -0.7369
  184SLPC   H8S21140   1.427   3.205   9.385 -0.9506  2.3640  0.9680
  184SLPC   C2921141   1.621   3.211   9.477  0.7416  0.4285 -0.0981
  184SLPC   H9R21142   1.679   3.125   9.439 -0.1104  0.2012 -0.9264
  184SLPC  C21021143   1.687   3.326   9.514  0.4141 -0.5532 -0.0032
  184SLPC  H10R21144   1.797   3.325   9.510  0.4501 -0.0881  0.6634
  184SLPC  C21121145   1.628   3.461   9.560  0.1876  0.3122 -0.3387
  184SLPC  H11R21146   1.656   3.483   9.665  2.4428 -0.1743 -0.7950
  184SLPC  H11S21147   1.516   3.465   9.557  0.0168 -1.5841  1.5777
  184SLPC  C21221148   1.678   3.565   9.468  0.2313 -0.1983 -0.3468
  184SLPC  H12R21149   1.770   3.610   9.508 -0.4889 -0.1320  1.3478
  184SLPC  C21321150   1.617   3.606   9.353 -0.5181 -0.5415  0.2198
  184SLPC  H13R21151   1.668   3.687   9.299  0.4668 -0.7655  0.7973
  184SLPC  C21421152   1.494   3.546   9.296  0.0355  0.6925 -0.3828
  184SLPC  H14R21153   1.428   3.632   9.273  1.4290  1.7112 -0.7353
  184SLPC  H14S21154   1.441   3.478   9.366 -1.6983  2.2696 -0.1084
  184SLPC  C21521155   1.514   3.471   9.163 -0.3643  0.0665  0.0576
  184SLPC  H15R21156   1.549   3.547   9.089  2.4863 -2.2049 -1.1315
  184SLPC  H15S21157   1.421   3.429   9.120 -1.1981 -0.1578  1.9824
  184SLPC  C21621158   1.603   3.352   9.164 -0.5841  0.2364 -0.0511
  184SLPC  H16R21159   1.562   3.263   9.218 -0.3007 -0.1156 -0.4113
  184SLPC  H16S21160   1.688   3.374   9.232  0.1685 -1.2773 -0.4558
  184SLPC  C21721161   1.647   3.305   9.023  0.1061 -0.7096  0.1122
  184SLPC  H17R21162   1.685   3.395   8.970 -2.4731  0.0964 -0.5404
  184SLPC  H17S21163   1.553   3.263   8.982 -1.1189 -0.3455  2.3455
  184SLPC  C21821164   1.752   3.185   9.032 -0.4699 -0.5485 -0.1464
  184SLPC  H18R21165   1.812   3.177   9.125 -1.1976 -1.7224  0.2517
  184SLPC  H18S21166   1.822   3.198   8.946 -1.5720  0.3734 -0.9216
  184SLPC  H18T21167   1.705   3.085   9.016 -0.8552 -0.2983 -0.5811
  184SLPC   C3321168   1.002   2.773   9.808 -0.5562  0.2936 -0.2188
  184SLPC   H3X21169   1.077   2.828   9.868  0.5771  0.2881 -1.5868
  184SLPC   H3Y21170   0.915   2.841   9.799 -0.9709 -0.2754 -0.6367
  184SLPC   C3421171   1.068   2.744   9.674 -0.3670 -0.3013  0.6736
  184SLPC   H4X21172   0.999   2.671   9.626 -0.6755 -0.4008  1.2574
  184SLPC   H4Y21173   1.169   2.697   9.680  0.0120  0.3442 -0.3059
  184SLPC   C3521174   1.071   2.860   9.576  0.4248  0.1423  0.2986
  184SLPC   H5X21175   1.151   2.933   9.600  0.0926  0.3141  0.8986
  184SLPC   H5Y21176   0.967   2.900   9.577  0.2190 -0.3613 -0.3591
  184SLPC   C3621177   1.102   2.816   9.428 -0.6003 -0.6187  0.5359
  184SLPC   H6X21178   1.023   2.754   9.381  1.2093 -1.7156 -1.2690
  184SLPC   H6Y21179   1.195   2.755   9.421 -1.8653 -2.5369 -0.5497
  184SLPC   C3721180   1.125   2.934   9.328 -0.2135  0.0903  0.0746
  184SLPC   H7X21181   1.197   3.009   9.368  0.1215  0.6207 -1.4714
  184SLPC   H7Y21182   1.029   2.989   9.314 -1.3613 -2.1200 -1.2036
  184SLPC   C3821183   1.185   2.894   9.199  0.0007 -0.2964  0.4694
  184SLPC   H8X21184   1.150   2.789   9.192 -1.4700  0.2689 -1.8687
  184SLPC   H8Y21185   1.296   2.888   9.206  0.0861 -2.1436 -1.4576
  184SLPC   C3921186   1.132   2.972   9.080  0.6057 -0.0695 -0.5318
  184SLPC   H9X21187   1.034   3.010   9.116  0.2111 -2.1604  0.7923
  184SLPC   H9Y21188   1.106   2.911   8.991 -2.8106  3.3630 -2.1812
  184SLPC  C31021189   1.234   3.073   9.043  0.0553 -0.2221  0.3768
  184SLPC  H10X21190   1.321   3.019   9.001  2.0659  2.8085  0.3186
  184SLPC  H10Y21191   1.256   3.129   9.137  1.1318 -3.4739  2.2268
  184SLPC  C31121192   1.184   3.168   8.928  0.0279 -0.0032 -0.2523
  184SLPC  H11X21193   1.103   3.235   8.964  1.2351  1.5709 -0.3414
  184SLPC  H11Y21194   1.151   3.116   8.836  1.5206 -2.3833  0.4759
  184SLPC  C31221195   1.295   3.266   8.888  0.0813  0.2618 -0.2911
  184SLPC  H12X21196   1.380   3.204   8.850 -0.4550  0.3051 -1.6399
  184SLPC  H12Y21197   1.338   3.317   8.977  0.3284 -0.4922  0.0280
  184SLPC  C31321198   1.269   3.381   8.792  0.0529 -0.0384 -0.1201
  184SLPC  H13X21199   1.177   3.437   8.818  0.8261  2.0312 -1.5720
  184SLPC  H13Y21200   1.260   3.331   8.693 -2.6410  0.8902 -0.4048
  184SLPC  C31421201   1.381   3.478   8.766 -0.1076  0.5185 -0.1044
  184SLPC  H14X21202   1.472   3.432   8.721 -0.5220 -0.9185  0.4424
  184SLPC  H14Y21203   1.419   3.508   8.866 -1.7467  1.1608  0.3452
  184SLPC  C31521204   1.349   3.597   8.676 -0.1746  0.1975  0.4956
  184SLPC  H15X21205   1.443   3.655   8.664  1.1613 -1.9431  0.1052
  184SLPC  H15Y21206   1.277   3.668   8.722 -2.4145 -1.7106  0.1183
  184SLPC  C31621207   1.297   3.566   8.533 -0.6705  0.2352  0.0539
  184SLPC  H16X21208   1.197   3.525   8.556 -0.8214  0.5260 -0.0844
  184SLPC  H16Y21209   1.359   3.490   8.481  2.4214  1.2395  1.9671
  184SLPC  C31721210   1.272   3.686   8.447 -0.4373 -0.6011  0.1397
  184SLPC  H17X21211   1.206   3.754   8.507  0.0708 -0.2667  0.3233
  184SLPC  H17Y21212   1.219   3.655   8.354  0.1770  0.9112 -0.7618
  184SLPC  C31821213   1.398   3.767   8.412 -0.0886  0.2479  0.7808
  184SLPC  H18X21214   1.378   3.858   8.352 -0.6510 -1.5333 -1.9285
  184SLPC  H18Y21215   1.468   3.702   8.354 -1.2432 -0.9035  0.6323
  184SLPC  H18Z21216   1.448   3.800   8.506  3.2758 -0.9621 -0.4117
  185SLPC     N21217   2.955   4.276   6.413  0.5212  0.2033  0.5400
  185SLPC   C1321218   2.984   4.146   6.349 -0.7238  0.0163 -0.6215
  185SLPC  H13A21219   2.910   4.081   6.393 -2.1852  2.2932  0.4416
  185SLPC  H13B21220   2.966   4.142   6.243  1.5600 -1.4925 -1.0203
  185SLPC  H13C21221   3.088   4.118   6.352  0.1507  2.8552 -1.3438
  185SLPC   C1421222   3.028   4.384   6.347 -0.4291 -0.1061 -0.8229
  185SLPC  H14A21223   3.134   4.368   6.335  0.4054  1.2597  3.2845
  185SLPC  H14B21224   2.994   4.395   6.245  0.4962 -1.1666 -1.2713
  185SLPC  H14C21225   3.020   4.476   6.403 -0.4509  0.4170 -1.6692
  185SLPC   C1521226   3.001   4.271   6.556  0.0238  0.3899 -0.3052
  185SLPC  H15A21227   3.004   4.369   6.602 -0.6195 -0.3112  1.3091
  185SLPC  H15B21228   2.935   4.213   6.619  1.2785 -2.0564 -1.1181
  185SLPC  H15C21229   3.100   4.231   6.569  0.6146  0.5671 -3.5093
  185SLPC   C1221230   2.809   4.303   6.394 -0.2146  0.3514 -0.0899
  185SLPC  H12A21231   2.789   4.303   6.288  0.4989 -1.2492 -0.2510
  185SLPC  H12B21232   2.787   4.404   6.427 -0.1628  0.9984 -1.9327
  185SLPC   C1121233   2.695   4.207   6.463  0.4358 -0.4567 -0.7971
  185SLPC  H11A21234   2.593   4.250   6.455  1.1909  1.2516 -1.5356
  185SLPC  H11B21235   2.716   4.210   6.572 -1.4072  1.0998 -0.4377
  185SLPC     P21236   2.589   3.972   6.456  0.2664  0.0178 -0.2837
  185SLPC   O1321237   2.466   4.055   6.495 -0.1614 -0.1923  0.0047
  185SLPC   O1421238   2.568   3.878   6.344  0.2080  0.1968 -0.5168
  185SLPC   O1221239   2.707   4.078   6.411  0.1092  0.3926 -0.3700
  185SLPC   O1121240   2.648   3.893   6.582  0.7585  0.0606  0.6684
  185SLPC    C121241   2.731   3.955   6.683 -0.2517 -0.3525 -0.2435
  185SLPC    HA21242   2.814   3.887   6.715  0.5597  0.6147 -0.2454
  185SLPC    HB21243   2.784   4.048   6.652 -1.5762  0.9410  1.2526
  185SLPC    C221244   2.651   4.011   6.809  0.7473  0.2709  0.1448
  185SLPC    HS21245   2.618   4.116   6.793  0.9877  0.6290  1.7810
  185SLPC   O2121246   2.734   4.025   6.922 -0.1372 -0.1153  0.0460
  185SLPC   C2121247   2.821   4.123   6.931  0.2901 -0.0871 -0.2223
  185SLPC   O2221248   2.859   4.193   6.840  0.5464  0.2268  0.1224
  185SLPC   C2221249   2.864   4.143   7.078  0.1726  0.4452 -0.5473
  185SLPC   H2R21250   2.773   4.177   7.131  0.6440  1.1825 -0.1881
  185SLPC   H2S21251   2.895   4.050   7.129 -3.8155 -0.4917  0.5213
  185SLPC    C321252   2.521   3.924   6.842 -0.1588 -0.0784 -0.0562
  185SLPC    HX21253   2.547   3.818   6.825 -1.9421 -0.5316 -0.0871
  185SLPC    HY21254   2.447   3.945   6.762  2.0510 -3.1255 -3.1825
  185SLPC   O3121255   2.472   3.929   6.972 -0.1848 -0.0105 -0.1789
  185SLPC   C3121256   2.376   4.023   7.004 -0.1594 -0.2545  0.6967
  185SLPC   O3221257   2.359   4.119   6.934 -0.1628 -0.6177  0.0994
  185SLPC   C3221258   2.309   4.006   7.144  0.4819  0.0375 -1.2744
  185SLPC   H2X21259   2.331   3.907   7.189 -1.5862  0.0607 -0.0682
  185SLPC   H2Y21260   2.200   4.014   7.128  0.0236  0.7130  1.6110
  185SLPC   C2321261   2.971   4.251   7.103  0.0053  0.0607 -0.3176
  185SLPC   H3R21262   2.930   4.342   7.052  1.3221  0.0198 -1.5225
  185SLPC   H3S21263   3.049   4.217   7.032 -0.3608 -1.8332  0.1376
  185SLPC   C2421264   3.027   4.261   7.245 -0.2184 -0.2276  0.3374
  185SLPC   H4R21265   3.133   4.295   7.250  0.1296 -0.8671 -1.8964
  185SLPC   H4S21266   3.029   4.154   7.276 -2.1975 -0.7221 -1.0298
  185SLPC   C2521267   2.944   4.354   7.334 -0.2073  0.0986 -0.4182
  185SLPC   H5R21268   2.839   4.323   7.316  0.0976 -1.7354  0.7500
  185SLPC   H5S21269   2.938   4.457   7.293 -0.5804 -0.6668 -2.4043
  185SLPC   C2621270   2.976   4.347   7.486  0.0899  0.0544 -0.4344
  185SLPC   H6R21271   3.003   4.449   7.521  1.8284 -0.7708  0.7941
  185SLPC   H6S21272   3.077   4.302   7.493  0.3820  0.4603 -1.7765
  185SLPC   C2721273   2.883   4.262   7.576  0.1788  0.3489  0.1771
  185SLPC   H7R21274   2.872   4.160   7.534 -0.1295  0.0506  0.9728
  185SLPC   H7S21275   2.781   4.307   7.575 -0.6801 -1.4707 -0.9257
  185SLPC   C2821276   2.956   4.254   7.712  0.5514  0.0968  0.0786
  185SLPC   H8R21277   2.972   4.354   7.759  0.9487  0.6997 -1.2920
  185SLPC   H8S21278   3.061   4.220   7.705  0.6073  0.1034  0.8265
  185SLPC   C2921279   2.891   4.163   7.820  0.5698 -0.5339  0.4969
  185SLPC   H9R21280   2.899   4.054   7.810 -0.4271 -0.4280 -2.2145
  185SLPC  C21021281   2.813   4.208   7.922  0.1001 -0.1237  0.8023
  185SLPC  H10R21282   2.766   4.127   7.979  3.0047 -2.3546  0.2651
  185SLPC  C21121283   2.783   4.353   7.960  0.6477 -0.0123 -0.0446
  185SLPC  H11R21284   2.676   4.354   7.991 -0.2714 -0.2835 -2.9723
  185SLPC  H11S21285   2.799   4.419   7.872  1.5860 -2.1469 -1.5488
  185SLPC  C21221286   2.872   4.396   8.074  0.2378  0.1954 -0.6081
  185SLPC  H12R21287   2.972   4.421   8.036  1.4461  1.1676  2.8010
  185SLPC  C21321288   2.844   4.412   8.206  0.4448 -0.7218 -0.2153
  185SLPC  H13R21289   2.924   4.444   8.275  0.6337  0.9815 -1.1577
  185SLPC  C21421290   2.717   4.389   8.278  0.2356  0.0655 -0.1900
  185SLPC  H14R21291   2.647   4.320   8.226 -2.8529  2.0463  1.0101
  185SLPC  H14S21292   2.658   4.482   8.292 -2.3466 -1.5187  0.1990
  185SLPC  C21521293   2.738   4.328   8.426 -0.0528  0.3599  0.2435
  185SLPC  H15R21294   2.799   4.235   8.422 -1.2467 -0.4181 -1.2767
  185SLPC  H15S21295   2.633   4.298   8.445  0.4508 -1.4574  0.3812
  185SLPC  C21621296   2.779   4.429   8.538  0.4723  0.4874  0.0426
  185SLPC  H16R21297   2.707   4.510   8.562 -0.1884 -0.4705  1.4228
  185SLPC  H16S21298   2.874   4.484   8.524  1.7764 -1.3499  1.1170
  185SLPC  C21721299   2.770   4.357   8.674 -0.5751 -0.2984  0.3661
  185SLPC  H17R21300   2.832   4.266   8.678  1.4111  0.8736 -1.5252
  185SLPC  H17S21301   2.670   4.309   8.672 -0.7035 -0.0844 -2.1974
  185SLPC  C21821302   2.789   4.436   8.805  0.4356  0.1473 -0.6992
  185SLPC  H18R21303   2.708   4.512   8.809 -0.2635 -0.5923 -0.5833
  185SLPC  H18S21304   2.888   4.486   8.805 -0.0604  1.1567 -0.3487
  185SLPC  H18T21305   2.781   4.374   8.897 -0.4308  2.1657  0.6580
  185SLPC   C3321306   2.334   4.134   7.232 -0.4049  0.2746 -0.0714
  185SLPC   H3X21307   2.253   4.142   7.307  0.1851  1.1120  0.4857
  185SLPC   H3Y21308   2.335   4.227   7.172 -2.5506 -0.5730 -1.5230
  185SLPC   C3421309   2.469   4.121   7.312 -0.1718 -0.1741 -0.4191
  185SLPC   H4X21310   2.545   4.174   7.251 -1.6431  2.5836 -0.0403
  185SLPC   H4Y21311   2.514   4.020   7.320  1.7866  0.7790  1.5201
  185SLPC   C3521312   2.470   4.195   7.448  0.0525  0.1575 -0.5696
  185SLPC   H5X21313   2.435   4.298   7.428 -1.1058  0.2039  1.4306
  185SLPC   H5Y21314   2.572   4.205   7.491 -0.2656  1.3920 -0.0782
  185SLPC   C3621315   2.381   4.129   7.549 -0.0192  0.1218  0.3025
  185SLPC   H6X21316   2.397   4.019   7.547  1.1053  0.2314  1.6119
  185SLPC   H6Y21317   2.278   4.157   7.518  0.5548  1.5360 -0.4584
  185SLPC   C3721318   2.403   4.184   7.690 -0.0349 -0.0971  0.0014
  185SLPC   H7X21319   2.410   4.295   7.686  0.2107 -0.1219 -0.2720
  185SLPC   H7Y21320   2.491   4.139   7.741 -1.3103  0.0954  2.5435
  185SLPC   C3821321   2.285   4.139   7.778  0.1683 -0.2605 -0.9487
  185SLPC   H8X21322   2.297   4.032   7.804  0.0752 -0.2574 -0.8952
  185SLPC   H8Y21323   2.196   4.149   7.713 -0.8114 -4.0338 -0.4482
  185SLPC   C3921324   2.242   4.222   7.905 -0.0394  0.1312 -0.0660
  185SLPC   H9X21325   2.147   4.180   7.942  0.0299  0.7843  0.8933
  185SLPC   H9Y21326   2.233   4.331   7.885  3.0217  0.3788 -0.5715
  185SLPC  C31021327   2.325   4.201   8.025 -0.4511  0.0291  0.0280
  185SLPC  H10X21328   2.403   4.280   8.019  0.3430 -0.8201 -1.2673
  185SLPC  H10Y21329   2.372   4.100   8.036 -2.1849 -1.0536 -1.9177
  185SLPC  C31121330   2.246   4.226   8.159  0.0497 -0.4842 -0.7724
  185SLPC  H11X21331   2.169   4.148   8.178  0.5765 -0.5488  1.4293
  185SLPC  H11Y21332   2.188   4.320   8.149  0.2059 -0.3202 -0.1955
  185SLPC  C31221333   2.336   4.224   8.276 -0.3039  0.6561  0.6091
  185SLPC  H12X21334   2.414   4.302   8.260 -0.0141  0.5441  1.3989
  185SLPC  H12Y21335   2.385   4.125   8.288  0.3751  0.8006 -0.8209
  185SLPC  C31321336   2.268   4.261   8.404 -0.5149 -0.0856 -0.0400
  185SLPC  H13X21337   2.198   4.175   8.419  0.0553 -0.8480 -1.5491
  185SLPC  H13Y21338   2.213   4.357   8.392 -2.8700 -1.3788 -0.2639
  185SLPC  C31421339   2.354   4.291   8.529  0.0269 -0.0010  0.5750
  185SLPC  H14X21340   2.430   4.367   8.501 -0.2028  0.5774  1.4863
  185SLPC  H14Y21341   2.404   4.196   8.560 -3.2124 -1.6533  1.1641
  185SLPC  C31521342   2.269   4.348   8.645 -0.5859 -0.1160  0.1837
  185SLPC  H15X21343   2.185   4.281   8.675 -0.3314 -0.4242  0.2072
  185SLPC  H15Y21344   2.225   4.442   8.607 -0.7308 -0.5533 -0.7743
  185SLPC  C31621345   2.358   4.384   8.763  0.5593 -0.5475 -0.6465
  185SLPC  H16X21346   2.428   4.463   8.728  1.3825 -0.0289  1.9904
  185SLPC  H16Y21347   2.414   4.295   8.797 -0.9501 -1.6545 -0.9844
  185SLPC  C31721348   2.272   4.431   8.880  0.0863  0.7327  0.5845
  185SLPC  H17X21349   2.176   4.378   8.894 -1.3869  2.3068 -2.4752
  185SLPC  H17Y21350   2.230   4.533   8.870  0.4548  0.7162 -1.7277
  185SLPC  C31821351   2.356   4.439   9.007 -0.5601 -0.0393  0.0085
  185SLPC  H18X21352   2.412   4.347   9.032  0.0163  0.1491 -0.5718
  185SLPC  H18Y21353   2.287   4.462   9.091  1.6277  2.8048  1.1768
  185SLPC  H18Z21354   2.431   4.520   9.001  0.7600 -1.3530 -3.2798
  186SLPC     N21355   3.869   1.009   6.223 -0.1651 -0.2559  0.3216
  186SLPC   C1321356   3.782   0.882   6.228 -0.1177 -0.3766 -0.0044
  186SLPC  H13A21357   3.829   0.813   6.160  0.5201  0.3433 -0.3067
  186SLPC  H13B21358   3.773   0.843   6.328  0.7476 -1.5559 -0.3615
  186SLPC  H13C21359   3.681   0.894   6.191 -0.0178  2.0261  0.3341
  186SLPC   C1421360   3.829   1.098   6.334 -0.6425  0.1575 -0.2128
  186SLPC  H14A21361   3.904   1.175   6.344  1.1940 -1.6510  0.6917
  186SLPC  H14B21362   3.733   1.146   6.320  0.0088  1.6401  0.2943
  186SLPC  H14C21363   3.827   1.045   6.428 -0.7730  0.5723  0.0195
  186SLPC   C1521364   3.837   1.074   6.089  0.0149 -0.0607 -0.1804
  186SLPC  H15A21365   3.900   1.160   6.077 -0.7237  0.2870 -1.9409
  186SLPC  H15B21366   3.855   1.002   6.010  1.6423 -0.8593  0.8604
  186SLPC  H15C21367   3.737   1.115   6.088  0.2519  0.5153 -0.5973
  186SLPC   C1221368   4.011   0.970   6.231  0.1387 -1.1562  0.3522
  186SLPC  H12A21369   4.038   0.910   6.145  1.9035  0.6488 -0.4411
  186SLPC  H12B21370   4.043   0.917   6.319  0.9665  0.2949  0.9620
  186SLPC   C1121371   4.099   1.096   6.210 -0.0218  0.3408 -0.6357
  186SLPC  H11A21372   4.076   1.165   6.126  2.2348 -0.3871 -1.9197
  186SLPC  H11B21373   4.197   1.060   6.174 -1.1219 -1.8367 -1.6315
  186SLPC     P21374   4.226   1.284   6.352 -0.3052  0.0007  0.4972
  186SLPC   O1321375   4.259   1.366   6.229 -0.2681 -0.2843 -0.4120
  186SLPC   O1421376   4.191   1.359   6.475 -0.3940  0.0661 -0.1612
  186SLPC   O1221377   4.107   1.179   6.330  0.1994  0.0474  0.1716
  186SLPC   O1121378   4.349   1.193   6.384 -0.2403  0.1684 -0.0136
  186SLPC    C121379   4.336   1.081   6.473  0.0878  0.2527 -0.7455
  186SLPC    HA21380   4.229   1.062   6.492 -0.3321  0.5259 -2.6959
  186SLPC    HB21381   4.360   0.985   6.423 -1.2669 -0.2267 -0.5199
  186SLPC    C221382   4.416   1.094   6.604  0.4472  0.3792  0.7077
  186SLPC    HS21383   4.390   1.008   6.671 -2.1847  1.5332  1.2904
  186SLPC   O2121384   4.380   1.205   6.685  0.3623  0.1816  0.1925
  186SLPC   C2121385   4.260   1.206   6.746 -0.1588 -0.2651 -0.7567
  186SLPC   O2221386   4.184   1.110   6.751 -0.3263 -0.0716  0.0734
  186SLPC   C2221387   4.248   1.330   6.835  0.9381 -0.1357 -0.6883
  186SLPC   H2R21388   4.317   1.408   6.795  0.9931  1.3122  1.9792
  186SLPC   H2S21389   4.142   1.360   6.821  1.2177  2.7142  2.1127
  186SLPC    C321390   4.568   1.087   6.583  0.3497  1.0576 -0.0743
  186SLPC    HX21391   4.598   1.179   6.528  1.0214 -0.1354 -1.7687
  186SLPC    HY21392   4.587   0.993   6.528 -1.4312  0.9090 -0.5066
  186SLPC   O3121393   4.631   1.096   6.710 -0.4135 -0.8792 -0.0335
  186SLPC   C3121394   4.649   0.989   6.765 -0.3418 -0.0568 -0.1008
  186SLPC   O3221395   4.596   0.885   6.729  0.0833  0.5697  0.4793
  186SLPC   C3221396   4.731   0.999   6.892 -0.0088  0.3201  0.2557
  186SLPC   H2X21397   4.834   1.029   6.865  0.2818 -0.8919 -0.0357
  186SLPC   H2Y21398   4.739   0.895   6.929 -1.6639  0.2068  0.3829
  186SLPC   C2321399   4.272   1.289   6.976 -0.2083 -0.3963 -0.5213
  186SLPC   H3R21400   4.368   1.235   6.992 -0.4370 -0.7166 -0.2163
  186SLPC   H3S21401   4.197   1.216   7.013 -0.3691  0.0909  0.1441
  186SLPC   C2421402   4.255   1.411   7.064  0.3111 -0.3736 -0.2864
  186SLPC   H4R21403   4.158   1.463   7.046  1.4058  1.4216 -1.3143
  186SLPC   H4S21404   4.341   1.477   7.039 -0.2642  1.3914  1.9915
  186SLPC   C2521405   4.271   1.382   7.208  0.5728  0.3971 -0.5200
  186SLPC   H5R21406   4.372   1.341   7.228  1.0715  2.1344  0.7102
  186SLPC   H5S21407   4.194   1.307   7.236  2.2303 -0.8274  0.9609
  186SLPC   C2621408   4.269   1.503   7.294 -0.4690  0.7801 -0.1840
  186SLPC   H6R21409   4.174   1.556   7.273 -1.0399 -1.3713 -3.6965
  186SLPC   H6S21410   4.354   1.572   7.272  2.0590 -1.9340  0.4449
  186SLPC   C2721411   4.273   1.467   7.439 -0.2518 -0.2308 -1.1544
  186SLPC   H7R21412   4.377   1.432   7.456 -0.7255 -1.8880 -1.5042
  186SLPC   H7S21413   4.203   1.388   7.474 -1.3493  0.4351 -1.7984
  186SLPC   C2821414   4.246   1.587   7.533  0.2302 -0.2938 -0.0426
  186SLPC   H8R21415   4.241   1.546   7.636 -0.9170 -0.1395 -0.0325
  186SLPC   H8S21416   4.141   1.617   7.517 -0.0481 -1.5880 -0.8004
  186SLPC   C2921417   4.326   1.714   7.527  0.4816 -0.3209  0.0265
  186SLPC   H9R21418   4.326   1.769   7.431 -1.1526  0.8106  0.6218
  186SLPC  C21021419   4.402   1.779   7.623 -0.6267 -0.1932 -0.3778
  186SLPC  H10R21420   4.477   1.856   7.597  0.8072 -1.2946  0.3467
  186SLPC  C21121421   4.402   1.739   7.770  0.0031  0.0788  0.3566
  186SLPC  H11R21422   4.490   1.672   7.783 -0.8512 -1.2994 -0.5908
  186SLPC  H11S21423   4.315   1.679   7.803 -0.3444  0.5250  0.2579
  186SLPC  C21221424   4.393   1.860   7.851  0.3619 -0.0967  0.3105
  186SLPC  H12R21425   4.362   1.950   7.795 -0.9824 -0.1571  0.9340
  186SLPC  C21321426   4.408   1.864   7.979 -0.5882 -0.8464 -0.8412
  186SLPC  H13R21427   4.391   1.962   8.026 -4.0282 -1.6839 -0.0819
  186SLPC  C21421428   4.446   1.748   8.063 -0.1061 -0.7483 -0.3853
  186SLPC  H14R21429   4.545   1.778   8.105 -0.7615  3.3578 -1.3099
  186SLPC  H14S21430   4.471   1.655   8.009  2.4610 -0.1388 -0.3972
  186SLPC  C21521431   4.349   1.730   8.184  0.2609  0.5752  0.1084
  186SLPC  H15R21432   4.388   1.646   8.247  1.6554  2.4600  1.9048
  186SLPC  H15S21433   4.254   1.696   8.138  1.7342 -1.6430 -1.5186
  186SLPC  C21621434   4.315   1.861   8.263  0.4913  0.6401  0.4890
  186SLPC  H16R21435   4.275   1.940   8.196  3.8169  0.3057 -2.1861
  186SLPC  H16S21436   4.410   1.906   8.300  0.3726  0.8721  0.5135
  186SLPC  C21721437   4.221   1.842   8.386 -0.2504 -0.3794  0.7627
  186SLPC  H17R21438   4.155   1.765   8.341 -0.5560  0.2943  0.0314
  186SLPC  H17S21439   4.167   1.937   8.403  1.6461  0.6456  1.4000
  186SLPC  C21821440   4.287   1.804   8.516  0.1331 -0.6743 -0.4064
  186SLPC  H18R21441   4.331   1.900   8.551 -2.6848  0.8804 -0.8064
  186SLPC  H18S21442   4.358   1.722   8.494 -2.4270 -2.8073 -1.2618
  186SLPC  H18T21443   4.217   1.775   8.597 -0.2833  0.3320 -0.3804
  186SLPC   C3321444   4.644   1.086   6.995  0.0845 -0.7043  1.3676
  186SLPC   H3X21445   4.538   1.055   6.985  0.0013 -0.0056 -0.0793
  186SLPC   H3Y21446   4.639   1.194   6.972  0.5646 -0.9603 -0.0269
  186SLPC   C3421447   4.687   1.053   7.139  0.7451  0.0710  0.5031
  186SLPC   H4X21448   4.788   1.093   7.162  1.2728 -2.1030  2.3498
  186SLPC   H4Y21449   4.698   0.945   7.163  3.1626  0.5208  1.7313
  186SLPC   C3521450   4.579   1.098   7.249  0.4412  0.7593  0.4061
  186SLPC   H5X21451   4.497   1.023   7.242  1.9018 -1.2581  2.8128
  186SLPC   H5Y21452   4.519   1.189   7.231 -1.6864 -0.3333  1.4522
  186SLPC   C3621453   4.630   1.113   7.393 -0.0722  0.0160 -0.1527
  186SLPC   H6X21454   4.704   1.195   7.401 -1.2563  1.0519  0.5575
  186SLPC   H6Y21455   4.681   1.023   7.434  0.6095  0.2417 -0.4905
  186SLPC   C3721456   4.531   1.151   7.501  0.2332 -0.3677 -0.1640
  186SLPC   H7X21457   4.449   1.075   7.501  3.7359 -4.5528 -0.0875
  186SLPC   H7Y21458   4.492   1.254   7.491 -4.0869 -1.8046 -0.2654
  186SLPC   C3821459   4.613   1.163   7.638 -1.0254  0.5357  0.2729
  186SLPC   H8X21460   4.709   1.217   7.625 -1.1921  0.5607 -0.9585
  186SLPC   H8Y21461   4.643   1.061   7.671  2.3641  0.9939 -0.9752
  186SLPC   C3921462   4.542   1.240   7.746  0.1535  0.3781 -0.8657
  186SLPC   H9X21463   4.445   1.193   7.771 -0.0741  2.1974  2.2432
  186SLPC   H9Y21464   4.510   1.339   7.706 -0.2397  1.1931  1.3299
  186SLPC  C31021465   4.628   1.248   7.880 -0.0237 -0.1413 -0.5780
  186SLPC  H10X21466   4.732   1.279   7.858  0.2890 -0.4476  0.4066
  186SLPC  H10Y21467   4.624   1.150   7.933  0.5559  0.3435  0.4032
  186SLPC  C31121468   4.566   1.353   7.978 -0.1318 -0.2139 -0.0744
  186SLPC  H11X21469   4.458   1.332   7.994 -0.0590 -1.3233 -0.9746
  186SLPC  H11Y21470   4.571   1.456   7.936 -0.4376  0.1528  0.7623
  186SLPC  C31221471   4.632   1.340   8.119 -0.3224  0.2064 -0.0074
  186SLPC  H12X21472   4.741   1.342   8.098  0.1682 -0.6860  2.1827
  186SLPC  H12Y21473   4.595   1.246   8.165 -1.3758 -1.1404 -3.2979
  186SLPC  C31321474   4.595   1.451   8.213  0.4611 -0.2319 -0.3713
  186SLPC  H13X21475   4.488   1.442   8.240  0.7433 -0.5654  0.7231
  186SLPC  H13Y21476   4.608   1.537   8.144  1.0508  0.5208  0.6547
  186SLPC  C31421477   4.689   1.480   8.332  0.7025  0.5982  0.5806
  186SLPC  H14X21478   4.797   1.475   8.307  0.9101  1.7468  1.2069
  186SLPC  H14Y21479   4.669   1.400   8.407  2.3468 -2.7778 -2.2489
  186SLPC  C31521480   4.658   1.616   8.399 -0.9158 -0.0724 -0.4610
  186SLPC  H15X21481   4.554   1.630   8.433 -0.2245  4.4532  0.4566
  186SLPC  H15Y21482   4.664   1.694   8.320  0.9223  0.9638  0.6382
  186SLPC  C31621483   4.761   1.665   8.513 -0.0890  0.1814  0.5271
  186SLPC  H16X21484   4.861   1.698   8.477 -0.0466 -0.3009  0.1959
  186SLPC  H16Y21485   4.791   1.583   8.581  0.2904  1.6092  2.1504
  186SLPC  C31721486   4.700   1.773   8.598  0.6307 -0.3358  0.0434
  186SLPC  H17X21487   4.612   1.736   8.655 -0.8176 -0.2256 -2.0289
  186SLPC  H17Y21488   4.666   1.861   8.540 -0.4905 -0.6953  0.1411
  186SLPC  C31821489   4.803   1.819   8.705  0.1503 -0.2242  0.1769
  186SLPC  H18X21490   4.906   1.834   8.669 -0.3554  4.0221  0.0419
  186SLPC  H18Y21491   4.810   1.734   8.776 -2.9016 -0.9752 -0.2499
  186SLPC  H18Z21492   4.778   1.908   8.767 -0.3723  0.6550 -1.2532
  187SLPC     N21493   5.064   4.399   6.326 -0.3774  0.5191  0.7248
  187SLPC   C1321494   5.152   4.275   6.349  0.6529  0.6055 -0.3155
  187SLPC  H13A21495   5.195   4.242   6.255 -1.3998 -1.1006 -0.7469
  187SLPC  H13B21496   5.240   4.300   6.407  1.5838 -0.6016 -1.1622
  187SLPC  H13C21497   5.094   4.200   6.400  0.4096  1.6005  0.9111
  187SLPC   C1421498   5.144   4.506   6.253 -0.0170  1.0322 -0.0552
  187SLPC  H14A21499   5.235   4.531   6.307 -0.0633 -1.4079  1.3053
  187SLPC  H14B21500   5.176   4.466   6.158 -0.4245  0.4753  0.0385
  187SLPC  H14C21501   5.090   4.597   6.232 -0.8942  0.6136  0.3197
  187SLPC   C1521502   5.035   4.451   6.460  0.1917  0.0865 -0.3216
  187SLPC  H15A21503   5.123   4.499   6.500  1.2328  0.2593 -2.6692
  187SLPC  H15B21504   4.959   4.528   6.459 -0.4597 -0.5493 -0.7213
  187SLPC  H15C21505   5.001   4.371   6.524 -2.2749  0.9713 -0.4198
  187SLPC   C1221506   4.941   4.364   6.254 -0.3725 -0.1768 -0.0004
  187SLPC  H12A21507   4.881   4.312   6.328 -0.7510  0.6953  0.3080
  187SLPC  H12B21508   4.969   4.292   6.179  1.6076 -0.2287  0.7227
  187SLPC   C1121509   4.857   4.475   6.189  0.5530 -0.3646 -0.3731
  187SLPC  H11A21510   4.783   4.428   6.121 -0.5394 -0.7773  1.0602
  187SLPC  H11B21511   4.926   4.542   6.132  1.7518 -1.2095  0.0404
  187SLPC     P21512   4.635   4.565   6.297  0.0855  0.2532 -0.0250
  187SLPC   O1321513   4.598   4.687   6.224  0.0509  0.3410 -0.5545
  187SLPC   O1421514   4.591   4.429   6.260  0.0828 -0.2329  0.0756
  187SLPC   O1221515   4.792   4.565   6.289  0.4303  0.5141  0.3275
  187SLPC   O1121516   4.615   4.580   6.454  0.1174  0.3648  0.0447
  187SLPC    C121517   4.668   4.678   6.545 -0.0244  0.6530  0.3605
  187SLPC    HA21518   4.752   4.738   6.504  1.2021  0.2168  2.1738
  187SLPC    HB21519   4.584   4.746   6.571 -0.3397  0.2226  0.4819
  187SLPC    C221520   4.712   4.611   6.672 -0.0029 -0.0920  0.4340
  187SLPC    HS21521   4.813   4.576   6.645  0.2123  0.9349 -0.1282
  187SLPC   O2121522   4.621   4.508   6.697  0.3518 -0.3783 -0.4545
  187SLPC   C2121523   4.668   4.388   6.723 -0.1062 -0.2202 -0.8381
  187SLPC   O2221524   4.789   4.358   6.723  0.0865  0.2143 -0.1456
  187SLPC   C2221525   4.554   4.296   6.751 -0.4587  0.2287  0.7340
  187SLPC   H2R21526   4.457   4.338   6.718  0.1944 -0.0808 -1.7940
  187SLPC   H2S21527   4.579   4.208   6.687 -1.5198 -0.6306  1.4528
  187SLPC    C321528   4.713   4.705   6.794 -0.6103 -0.0586  0.2174
  187SLPC    HX21529   4.604   4.707   6.814 -0.6673 -0.5133 -0.0438
  187SLPC    HY21530   4.752   4.809   6.794  0.1070 -0.2723  2.5053
  187SLPC   O3121531   4.778   4.638   6.910  0.2115 -0.3305 -0.6163
  187SLPC   C3121532   4.909   4.624   6.912 -0.1601  0.2770  0.3350
  187SLPC   O3221533   4.988   4.670   6.825  0.4253 -0.1158  0.1279
  187SLPC   C3221534   4.947   4.545   7.033 -0.0590 -0.3719 -0.0072
  187SLPC   H2X21535   5.057   4.551   7.049 -0.1058 -1.6550  0.9774
  187SLPC   H2Y21536   4.905   4.443   7.021 -0.0121 -0.4597  0.5406
  187SLPC   C2321537   4.552   4.246   6.894  0.4569  0.9259 -0.5871
  187SLPC   H3R21538   4.654   4.206   6.913  2.3005  5.2835  0.1061
  187SLPC   H3S21539   4.474   4.167   6.898  1.5101 -0.1116  0.2493
  187SLPC   C2421540   4.531   4.354   7.001  0.2968 -0.3978 -0.0952
  187SLPC   H4R21541   4.458   4.423   6.954 -0.2645 -0.1149  1.1341
  187SLPC   H4S21542   4.623   4.412   7.026  0.0461 -0.0540  0.0447
  187SLPC   C2521543   4.466   4.313   7.137 -0.4214 -0.6226  1.2098
  187SLPC   H5R21544   4.373   4.261   7.102  0.6114 -0.5796 -1.9452
  187SLPC   H5S21545   4.433   4.404   7.191  0.6970  0.1429  0.6372
  187SLPC   C2621546   4.566   4.233   7.220 -0.4022  0.3441 -0.6599
  187SLPC   H6R21547   4.586   4.143   7.159  1.3897 -1.0984  1.8443
  187SLPC   H6S21548   4.518   4.196   7.313  0.4030 -0.2356 -0.4657
  187SLPC   C2721549   4.703   4.301   7.255 -0.3184  0.6582 -0.3096
  187SLPC   H7R21550   4.688   4.409   7.278 -0.4048  0.1809  2.1632
  187SLPC   H7S21551   4.766   4.298   7.164  1.8799 -0.6095  1.1507
  187SLPC   C2821552   4.781   4.234   7.368  0.3254 -0.1194 -0.0521
  187SLPC   H8R21553   4.714   4.235   7.457 -2.5371  1.6235 -2.0841
  187SLPC   H8S21554   4.871   4.299   7.380 -1.0137  1.9136 -0.4833
  187SLPC   C2921555   4.814   4.093   7.333 -0.1953  0.3029 -0.2633
  187SLPC   H9R21556   4.821   4.082   7.223 -0.3019  2.8972 -0.5865
  187SLPC  C21021557   4.858   3.992   7.412  1.1582  0.4471 -0.1109
  187SLPC  H10R21558   4.862   3.892   7.365  0.9975 -0.1949  1.1877
  187SLPC  C21121559   4.873   3.996   7.565  0.0233 -0.4877  0.0012
  187SLPC  H11R21560   4.892   3.896   7.607 -0.0391 -0.7159 -0.5075
  187SLPC  H11S21561   4.775   4.015   7.613 -0.3865 -1.1377 -0.5648
  187SLPC  C21221562   4.966   4.096   7.630 -0.3504  0.5754  0.7549
  187SLPC  H12R21563   5.071   4.081   7.602 -0.3145 -0.9417  1.6260
  187SLPC  C21321564   4.935   4.194   7.717 -0.0914  0.4002  0.0383
  187SLPC  H13R21565   5.018   4.257   7.752 -0.3752 -0.1216  1.7598
  187SLPC  C21421566   4.792   4.231   7.769  0.5486  0.0603  0.1139
  187SLPC  H14R21567   4.706   4.165   7.746  0.2253  0.5405 -0.0881
  187SLPC  H14S21568   4.754   4.328   7.729 -2.4955 -2.0550 -2.5829
  187SLPC  C21521569   4.792   4.225   7.921  0.6845  0.2735 -0.2137
  187SLPC  H15R21570   4.687   4.239   7.957  0.0252 -0.4131 -1.7686
  187SLPC  H15S21571   4.863   4.305   7.950  0.7147  1.0397 -2.2022
  187SLPC  C21621572   4.834   4.081   7.974 -0.2906 -0.6818  0.0366
  187SLPC  H16R21573   4.943   4.063   7.958 -0.3117  1.3076 -3.3787
  187SLPC  H16S21574   4.782   3.994   7.929  1.8102 -2.5309  1.0200
  187SLPC  C21721575   4.822   4.074   8.127 -0.4721 -0.2271  0.6288
  187SLPC  H17R21576   4.718   4.100   8.154 -0.1642  0.4269  1.2295
  187SLPC  H17S21577   4.883   4.158   8.168 -0.9249 -0.0017  0.8446
  187SLPC  C21821578   4.873   3.933   8.187 -0.2304 -0.9979  0.2232
  187SLPC  H18R21579   4.970   3.904   8.140  0.4918  0.8923  0.4739
  187SLPC  H18S21580   4.804   3.846   8.178  0.8265 -1.6954 -2.0089
  187SLPC  H18T21581   4.896   3.952   8.294 -1.5698 -1.4128  0.6017
  187SLPC   C3321582   4.891   4.617   7.158  0.5737 -0.7182  0.7171
  187SLPC   H3X21583   4.781   4.610   7.165  0.4077  0.1015 -0.6610
  187SLPC   H3Y21584   4.908   4.726   7.147 -0.5438 -0.5692  0.3559
  187SLPC   C3421585   4.963   4.575   7.286  0.3056 -0.1718  0.5528
  187SLPC   H4X21586   5.067   4.614   7.281 -0.2141  1.1770 -3.5142
  187SLPC   H4Y21587   4.977   4.465   7.280 -2.8455 -0.5574 -3.5335
  187SLPC   C3521588   4.890   4.634   7.413 -1.1388  0.3062 -0.1527
  187SLPC   H5X21589   4.802   4.572   7.442  0.2177 -1.2158  0.8741
  187SLPC   H5Y21590   4.847   4.734   7.391  0.5417  0.9803 -0.5421
  187SLPC   C3621591   4.991   4.639   7.528  0.3923  0.2012 -0.3627
  187SLPC   H6X21592   5.084   4.684   7.487  0.2843  0.9607  0.1961
  187SLPC   H6Y21593   5.017   4.532   7.544  4.4821  0.8621 -1.2950
  187SLPC   C3721594   4.946   4.691   7.663  0.4905 -0.7886 -0.3221
  187SLPC   H7X21595   4.905   4.794   7.660  1.1419 -0.4783  0.7803
  187SLPC   H7Y21596   4.863   4.621   7.690  0.8869 -1.1366  0.0134
  187SLPC   C3821597   5.070   4.694   7.754  0.0862 -0.5933  0.9040
  187SLPC   H8X21598   5.145   4.757   7.702  0.7326 -0.6155  1.7942
  187SLPC   H8Y21599   5.100   4.587   7.759  0.2122 -0.5856  0.3882
  187SLPC   C3921600   5.050   4.754   7.895  0.7259  0.2966 -0.0104
  187SLPC   H9X21601   4.970   4.830   7.884  0.9669  0.3589 -1.6626
  187SLPC   H9Y21602   5.139   4.808   7.934  0.8187  1.0200 -1.1888
  187SLPC  C31021603   5.020   4.652   8.007 -0.0683  0.5591 -0.4056
  187SLPC  H10X21604   5.119   4.610   8.032 -1.0365 -1.6278  0.0042
  187SLPC  H10Y21605   4.963   4.559   7.986 -0.1238 -0.1700  2.4872
  187SLPC  C31121606   4.948   4.708   8.132  0.3253 -0.4653  0.2422
  187SLPC  H11X21607   4.844   4.733   8.100  1.0094  0.6551 -1.1651
  187SLPC  H11Y21608   5.009   4.799   8.149  1.3980 -1.2094  0.4175
  187SLPC  C31221609   4.954   4.603   8.248 -0.6854 -0.4584  0.2810
  187SLPC  H12X21610   4.929   4.653   8.344  1.1250  1.2238 -0.0649
  187SLPC  H12Y21611   5.060   4.577   8.266 -0.3755  0.9651  0.6247
  187SLPC  C31321612   4.866   4.483   8.240  0.2861 -0.9142  0.0462
  187SLPC  H13X21613   4.911   4.413   8.167 -0.0644  0.7377 -1.8342
  187SLPC  H13Y21614   4.768   4.512   8.196 -0.3360 -1.2343  1.1737
  187SLPC  C31421615   4.835   4.411   8.381 -0.0638  0.0073 -0.3404
  187SLPC  H14X21616   4.787   4.314   8.361 -1.3412  0.5655 -0.0747
  187SLPC  H14Y21617   4.763   4.482   8.428  0.6429  0.0644  0.7181
  187SLPC  C31521618   4.954   4.393   8.472  0.2693  0.2965  0.2123
  187SLPC  H15X21619   5.022   4.480   8.474  0.4410  0.1551  1.2415
  187SLPC  H15Y21620   5.004   4.307   8.422 -1.5107  1.1124 -3.2525
  187SLPC  C31621621   4.919   4.346   8.613  0.2882  0.3296  0.2869
  187SLPC  H16X21622   4.835   4.413   8.643  0.8814  2.3395 -2.2298
  187SLPC  H16Y21623   5.006   4.353   8.682  1.2891  1.1078 -1.0169
  187SLPC  C31721624   4.866   4.201   8.619  0.4984  0.1360 -0.5300
  187SLPC  H17X21625   4.951   4.130   8.606  1.5281  0.6289  2.5152
  187SLPC  H17Y21626   4.786   4.191   8.544 -0.7011  0.4405  0.6719
  187SLPC  C31821627   4.792   4.184   8.756 -0.1396  0.2902 -0.4838
  187SLPC  H18X21628   4.724   4.096   8.757 -2.0499  1.7030 -1.2313
  187SLPC  H18Y21629   4.708   4.256   8.757 -0.6594 -0.3027 -0.2873
  187SLPC  H18Z21630   4.861   4.190   8.843 -0.1623  1.5127 -0.5384
  188SLPC     N21631   5.326   6.513   6.327  0.0617  0.6365  0.5268
  188SLPC   C1321632   5.278   6.372   6.289  0.1136  0.0406 -0.1468
  188SLPC  H13A21633   5.293   6.350   6.185 -2.1071  2.5030 -1.1084
  188SLPC  H13B21634   5.334   6.301   6.347  0.1514  0.7944  0.7671
  188SLPC  H13C21635   5.171   6.359   6.302 -0.7204  4.0394 -1.7247
  188SLPC   C1421636   5.262   6.610   6.227  0.0521 -0.3315  0.1438
  188SLPC  H14A21637   5.159   6.632   6.250  0.2805  1.3855 -0.3468
  188SLPC  H14B21638   5.308   6.708   6.229 -0.6847  0.0097  0.8212
  188SLPC  H14C21639   5.286   6.578   6.127 -0.8443  1.7427 -0.8037
  188SLPC   C1521640   5.476   6.513   6.315 -0.2080 -0.2712  0.6635
  188SLPC  H15A21641   5.517   6.437   6.380  0.1120 -1.6423 -1.0729
  188SLPC  H15B21642   5.510   6.486   6.217  0.9028 -2.2100  1.5392
  188SLPC  H15C21643   5.518   6.611   6.335 -1.9239  0.9468 -1.3045
  188SLPC   C1221644   5.283   6.548   6.468  0.2154 -0.0324 -0.2891
  188SLPC  H12A21645   5.318   6.468   6.532 -3.1200 -1.2580  0.1740
  188SLPC  H12B21646   5.178   6.533   6.485  0.3476  0.7075  1.4248
  188SLPC   C1121647   5.323   6.691   6.530 -0.1681 -0.6604  0.1185
  188SLPC  H11A21648   5.280   6.701   6.631  1.5029  0.1024  0.7886
  188SLPC  H11B21649   5.268   6.758   6.461 -1.4716 -2.5917 -0.8314
  188SLPC     P21650   5.510   6.866   6.569  0.1383 -0.3920  0.7337
  188SLPC   O1321651   5.659   6.879   6.561  0.5493  0.1712  0.2993
  188SLPC   O1421652   5.428   6.958   6.479  0.0649  0.1287  0.0108
  188SLPC   O1221653   5.469   6.717   6.531  0.5151  0.3271  0.1037
  188SLPC   O1121654   5.463   6.881   6.716 -0.1556 -0.2207  0.1213
  188SLPC    C121655   5.483   6.785   6.819  0.2284  0.0917 -0.2896
  188SLPC    HA21656   5.386   6.776   6.873  1.4645  0.9418  2.2406
  188SLPC    HB21657   5.508   6.686   6.777  1.3564  0.2840 -0.0848
  188SLPC    C221658   5.599   6.821   6.915  0.1651 -0.5979 -0.0934
  188SLPC    HS21659   5.695   6.809   6.859 -0.4463 -1.4498 -0.9973
  188SLPC   O2121660   5.590   6.731   7.026  0.6123  0.4023 -0.7656
  188SLPC   C2121661   5.702   6.696   7.081  0.6542  0.4129 -0.0247
  188SLPC   O2221662   5.812   6.749   7.066  0.1690 -0.2986  0.4949
  188SLPC   C2221663   5.683   6.575   7.171  0.6195  0.5484  0.9686
  188SLPC   H2R21664   5.615   6.504   7.120  0.6686  1.5907 -0.6082
  188SLPC   H2S21665   5.778   6.518   7.180 -1.0757 -2.4966  0.6433
  188SLPC    C321666   5.580   6.964   6.965 -0.1938  0.5812 -0.1754
  188SLPC    HX21667   5.493   6.972   7.033 -0.2605  1.1364 -0.3172
  188SLPC    HY21668   5.551   7.033   6.883 -1.2408  1.3006  0.7761
  188SLPC   O3121669   5.705   6.997   7.018 -0.1451  0.5576  0.1399
  188SLPC   C3121670   5.704   7.029   7.146 -0.4655  0.2262  0.5377
  188SLPC   O3221671   5.609   7.035   7.218 -0.4070  0.1498 -0.4269
  188SLPC   C3221672   5.847   7.058   7.181  0.5083 -0.4549 -0.0939
  188SLPC   H2X21673   5.873   7.142   7.112 -1.9667 -0.0989 -0.7015
  188SLPC   H2Y21674   5.915   6.977   7.148  3.1374  1.9754 -1.1759
  188SLPC   C2321675   5.637   6.605   7.319  0.7788 -0.2587  0.0773
  188SLPC   H3R21676   5.623   6.508   7.370  3.1213 -1.2326 -1.0022
  188SLPC   H3S21677   5.534   6.646   7.311  1.3007  1.0542 -0.3318
  188SLPC   C2421678   5.725   6.700   7.401 -0.5894 -0.5917  0.4576
  188SLPC   H4R21679   5.733   6.785   7.330 -0.3728 -1.6334 -0.7987
  188SLPC   H4S21680   5.828   6.659   7.411 -0.7192 -1.2328 -0.7734
  188SLPC   C2521681   5.661   6.736   7.532  0.2857  0.1978 -0.0626
  188SLPC   H5R21682   5.573   6.797   7.502  1.4028  1.7150 -0.3878
  188SLPC   H5S21683   5.729   6.802   7.591 -0.2298  1.7904 -1.1951
  188SLPC   C2621684   5.623   6.624   7.627 -0.0027 -0.0033  0.4272
  188SLPC   H6R21685   5.685   6.533   7.610  1.7021  1.1360  0.3177
  188SLPC   H6S21686   5.516   6.599   7.608 -0.4698  2.3688 -0.3974
  188SLPC   C2721687   5.624   6.671   7.775  0.0205  0.2041  0.2248
  188SLPC   H7R21688   5.539   6.740   7.795  1.0370  0.8810  2.5805
  188SLPC   H7S21689   5.718   6.730   7.788  0.9299 -1.4191  1.2598
  188SLPC   C2821690   5.635   6.565   7.884  0.7891  0.4361  0.4563
  188SLPC   H8R21691   5.626   6.613   7.984 -2.5531  0.5032  0.2550
  188SLPC   H8S21692   5.733   6.513   7.879 -0.8160 -3.5193  4.2981
  188SLPC   C2921693   5.518   6.472   7.872  0.1779  0.3452 -0.6071
  188SLPC   H9R21694   5.538   6.382   7.811 -0.2825 -0.3266  0.2088
  188SLPC  C21021695   5.392   6.482   7.925 -0.3152 -0.4228 -0.6403
  188SLPC  H10R21696   5.319   6.402   7.907 -1.6697  0.7906 -0.7047
  188SLPC  C21121697   5.332   6.595   8.010  0.6420 -0.2808  0.1415
  188SLPC  H11R21698   5.262   6.648   7.942  1.8170  1.0298 -0.0873
  188SLPC  H11S21699   5.406   6.673   8.039 -0.7878  0.9277  0.6381
  188SLPC  C21221700   5.252   6.568   8.133 -0.7324 -0.4462  1.0340
  188SLPC  H12R21701   5.221   6.463   8.141  0.2518 -0.8457 -0.0722
  188SLPC  C21321702   5.224   6.663   8.233  0.5108 -0.1881 -0.3650
  188SLPC  H13R21703   5.159   6.640   8.319 -1.9903 -0.7802 -2.3087
  188SLPC  C21421704   5.249   6.814   8.225  0.4513  0.1712  0.0215
  188SLPC  H14R21705   5.158   6.870   8.195  0.0815 -1.0878 -1.3487
  188SLPC  H14S21706   5.325   6.836   8.147 -0.4637  0.1377 -0.8977
  188SLPC  C21521707   5.286   6.882   8.351  0.1808 -0.4739  0.5452
  188SLPC  H15R21708   5.303   6.991   8.336 -1.1371 -0.1315  1.3726
  188SLPC  H15S21709   5.377   6.830   8.388  0.4636 -1.3838 -1.3575
  188SLPC  C21621710   5.189   6.871   8.468  0.9038 -0.0492 -0.3881
  188SLPC  H16R21711   5.191   6.764   8.499 -0.9931  0.0066  0.0661
  188SLPC  H16S21712   5.088   6.899   8.431  1.6606  1.4573 -1.3896
  188SLPC  C21721713   5.217   6.961   8.583  0.0936  0.0311 -0.0013
  188SLPC  H17R21714   5.215   7.066   8.546 -0.8324  0.0504  0.0883
  188SLPC  H17S21715   5.314   6.943   8.635  0.8787  1.5473 -0.8851
  188SLPC  C21821716   5.107   6.956   8.690  0.4889  0.3220  0.0222
  188SLPC  H18R21717   5.092   6.853   8.729 -0.7038  0.4811  0.0194
  188SLPC  H18S21718   5.014   6.993   8.643  0.9020 -0.2114 -1.2420
  188SLPC  H18T21719   5.144   7.018   8.774  2.6951 -2.1095  1.0017
  188SLPC   C3321720   5.879   7.077   7.332  0.0923 -0.3562  0.4502
  188SLPC   H3X21721   5.989   7.090   7.345  0.3930  0.6844 -2.5418
  188SLPC   H3Y21722   5.848   6.991   7.395  1.2883 -0.8948  0.3422
  188SLPC   C3421723   5.822   7.205   7.394  0.8584  0.2901  0.6959
  188SLPC   H4X21724   5.716   7.206   7.360  0.9555  0.9439  0.4100
  188SLPC   H4Y21725   5.876   7.290   7.347  0.8922 -0.5382 -0.8216
  188SLPC   C3521726   5.828   7.220   7.551  0.5571 -0.1398  0.9155
  188SLPC   H5X21727   5.758   7.305   7.563 -1.4720 -1.3221 -1.6063
  188SLPC   H5Y21728   5.933   7.250   7.571  1.3085 -0.6453 -1.8298
  188SLPC   C3621729   5.795   7.094   7.626 -0.2392  1.0166  0.1572
  188SLPC   H6X21730   5.874   7.017   7.610 -1.3707  0.2600 -2.3688
  188SLPC   H6Y21731   5.700   7.041   7.607  1.6579 -2.2422 -0.9963
  188SLPC   C3721732   5.800   7.120   7.774  0.5977  0.9778  0.0851
  188SLPC   H7X21733   5.732   7.205   7.797  0.2249  0.6232  0.2950
  188SLPC   H7Y21734   5.906   7.143   7.799  0.2897  1.3669  1.0800
  188SLPC   C3821735   5.761   7.009   7.863 -0.0953 -0.2797 -0.1241
  188SLPC   H8X21736   5.820   6.917   7.841  1.4896  1.1212 -2.1505
  188SLPC   H8Y21737   5.658   6.982   7.829 -1.4544  1.4987  2.2671
  188SLPC   C3921738   5.774   7.049   8.008 -0.0528 -0.4578  0.2396
  188SLPC   H9X21739   5.721   7.144   8.033 -1.6689 -0.8134 -1.6322
  188SLPC   H9Y21740   5.884   7.063   8.021  0.4120 -2.9532 -0.4697
  188SLPC  C31021741   5.716   6.930   8.089  0.1322  0.1239  0.0719
  188SLPC  H10X21742   5.746   6.833   8.045  2.3678  1.6893 -2.0961
  188SLPC  H10Y21743   5.605   6.930   8.101  0.3030  2.0850  2.7384
  188SLPC  C31121744   5.766   6.927   8.234  0.0362  0.8291  0.3296
  188SLPC  H11X21745   5.742   7.020   8.290 -3.1218  0.2882  0.0369
  188SLPC  H11Y21746   5.875   6.913   8.219  0.4404  0.9063  2.7862
  188SLPC  C31221747   5.717   6.806   8.316  0.2582 -0.6912 -0.1151
  188SLPC  H12X21748   5.743   6.712   8.262 -0.5328  0.3084 -2.3565
  188SLPC  H12Y21749   5.606   6.814   8.317  0.1009 -2.4072  1.3062
  188SLPC  C31321750   5.776   6.820   8.459 -0.3938 -0.5544  0.5542
  188SLPC  H13X21751   5.755   6.922   8.499  0.1594 -1.1324  2.4345
  188SLPC  H13Y21752   5.885   6.808   8.446 -0.5579 -1.2429 -0.2287
  188SLPC  C31421753   5.702   6.721   8.551 -0.1383 -0.3662 -0.2678
  188SLPC  H14X21754   5.697   6.623   8.499 -0.3410 -1.0097  0.9215
  188SLPC  H14Y21755   5.602   6.765   8.572 -0.1473 -0.2471 -0.5636
  188SLPC  C31521756   5.779   6.697   8.680  0.3757  0.5911  0.1124
  188SLPC  H15X21757   5.732   6.615   8.739 -0.2411  0.2781 -0.7940
  188SLPC  H15Y21758   5.771   6.794   8.733 -0.8332 -0.1537  1.3823
  188SLPC  C31621759   5.931   6.654   8.668  0.4093 -0.2027 -0.3495
  188SLPC  H16X21760   5.985   6.746   8.639  2.0181 -1.3948 -1.3157
  188SLPC  H16Y21761   5.945   6.577   8.589  2.2652 -0.9688  0.6660
  188SLPC  C31721762   5.986   6.612   8.802 -0.2613 -1.4440 -0.0236
  188SLPC  H17X21763   5.907   6.564   8.864 -0.4082  0.2598  1.1697
  188SLPC  H17Y21764   6.003   6.711   8.848 -4.0656  0.2800 -1.9014
  188SLPC  C31821765   6.115   6.533   8.788 -0.5172 -0.2682 -0.2769
  188SLPC  H18X21766   6.089   6.443   8.728 -0.3430  1.2209 -2.7236
  188SLPC  H18Y21767   6.169   6.498   8.878 -0.9000 -0.5436 -0.1516
  188SLPC  H18Z21768   6.197   6.589   8.738  0.9809 -0.8482  1.4044
  189SLPC     N21769   3.084   2.497   6.306 -0.1817 -0.2683 -0.0727
  189SLPC   C1321770   3.191   2.459   6.208  0.2737 -0.2909  0.0897
  189SLPC  H13A21771   3.215   2.534   6.134  0.1175  0.3402  0.6672
  189SLPC  H13B21772   3.285   2.427   6.251 -0.1081 -1.8360 -0.1629
  189SLPC  H13C21773   3.148   2.381   6.148 -0.3603 -0.3582  0.6216
  189SLPC   C1421774   2.976   2.579   6.234 -0.1405  0.9905  0.1029
  189SLPC  H14A21775   2.931   2.509   6.165  3.3168  0.8494 -2.2566
  189SLPC  H14B21776   2.902   2.613   6.305 -2.7224 -1.0138 -1.4295
  189SLPC  H14C21777   3.024   2.659   6.179 -1.3823 -0.2961 -3.0907
  189SLPC   C1521778   3.140   2.587   6.411 -0.9638 -0.2071 -0.6203
  189SLPC  H15A21779   3.201   2.532   6.481  1.8386  2.7346 -0.5437
  189SLPC  H15B21780   3.205   2.660   6.365 -0.5020 -0.9437 -1.1566
  189SLPC  H15C21781   3.056   2.629   6.464  0.5639  1.3124  0.6744
  189SLPC   C1221782   3.012   2.376   6.368  0.5357  0.2198  0.5984
  189SLPC  H12A21783   3.094   2.311   6.397  0.8248 -0.4980 -1.6240
  189SLPC  H12B21784   2.957   2.322   6.292  2.1119  0.3494 -0.6827
  189SLPC   C1121785   2.922   2.407   6.492 -0.1790 -0.0791 -0.3536
  189SLPC  H11A21786   2.984   2.472   6.557 -0.3338  1.6880 -1.8782
  189SLPC  H11B21787   2.896   2.317   6.553  1.1058  0.5111  1.1173
  189SLPC     P21788   2.687   2.391   6.387  0.3059 -0.1569  0.1267
  189SLPC   O1321789   2.662   2.452   6.255  0.0031 -0.6127 -0.1318
  189SLPC   O1421790   2.717   2.245   6.375 -0.3839 -0.2259 -0.7597
  189SLPC   O1221791   2.804   2.477   6.456  0.0202  0.3108  0.7919
  189SLPC   O1121792   2.572   2.417   6.492  0.3519 -0.0901  0.1171
  189SLPC    C121793   2.565   2.364   6.629  0.0979  0.4870  0.0816
  189SLPC    HA21794   2.461   2.336   6.656  0.1058  1.9471  1.7865
  189SLPC    HB21795   2.644   2.285   6.629  2.1746  2.3368 -3.1512
  189SLPC    C221796   2.602   2.471   6.741  0.2373 -0.3039 -0.7082
  189SLPC    HS21797   2.712   2.472   6.748  0.1351 -0.0418  1.6997
  189SLPC   O2121798   2.545   2.436   6.868  0.0590 -0.6320 -0.0954
  189SLPC   C2121799   2.621   2.349   6.941  0.1473 -0.4175  0.0427
  189SLPC   O2221800   2.718   2.294   6.899 -0.0350  0.2558 -0.3238
  189SLPC   C2221801   2.563   2.328   7.075 -0.0251  0.1688  0.2657
  189SLPC   H2R21802   2.523   2.426   7.109 -1.3807  0.4857 -2.0584
  189SLPC   H2S21803   2.473   2.265   7.058 -0.2566  0.9598 -1.6174
  189SLPC    C321804   2.547   2.611   6.709  0.2123  0.7953 -0.5358
  189SLPC    HX21805   2.437   2.619   6.695  0.2345  2.0319 -0.1595
  189SLPC    HY21806   2.588   2.642   6.611 -0.3723  2.6311 -0.2369
  189SLPC   O3121807   2.611   2.711   6.797  0.2934  0.4802  0.4124
  189SLPC   C3121808   2.542   2.818   6.816 -1.0655 -0.1407 -0.0627
  189SLPC   O3221809   2.449   2.858   6.751  0.6178 -0.6871 -0.4938
  189SLPC   C3221810   2.601   2.883   6.942  0.1033  0.6840  0.4062
  189SLPC   H2X21811   2.708   2.906   6.919 -0.1768 -0.0378 -1.9517
  189SLPC   H2Y21812   2.599   2.800   7.015  2.0200 -3.1090 -3.3728
  189SLPC   C2321813   2.658   2.261   7.173 -0.5071  0.0853 -0.0274
  189SLPC   H3R21814   2.762   2.300   7.168 -0.9010  1.1282 -0.3534
  189SLPC   H3S21815   2.665   2.157   7.136  0.2032  1.3649 -4.0786
  189SLPC   C2421816   2.599   2.276   7.309  0.2230 -0.2607 -0.7541
  189SLPC   H4R21817   2.491   2.271   7.284 -0.0718  0.6025  0.2390
  189SLPC   H4S21818   2.627   2.378   7.344  1.9906  0.1492 -3.1281
  189SLPC   C2521819   2.659   2.175   7.418  0.3547  0.1858  0.3237
  189SLPC   H5R21820   2.759   2.213   7.447  1.8453 -2.8198 -0.5287
  189SLPC   H5S21821   2.667   2.077   7.367 -2.8365  0.2166 -0.4228
  189SLPC   C2621822   2.584   2.169   7.553 -0.6424  0.2909 -0.1002
  189SLPC   H6R21823   2.627   2.098   7.626  1.6261  0.2989 -1.3518
  189SLPC   H6S21824   2.483   2.125   7.534 -0.8994  0.5431  0.6340
  189SLPC   C2721825   2.560   2.305   7.625  0.1005  0.4033 -0.9448
  189SLPC   H7R21826   2.532   2.391   7.559 -0.1502  1.2002  0.1747
  189SLPC   H7S21827   2.662   2.332   7.659  0.4117 -0.7019 -0.9711
  189SLPC   C2821828   2.461   2.296   7.744 -0.5238 -0.1843 -0.5060
  189SLPC   H8R21829   2.503   2.231   7.823 -3.2156  0.0601  1.2385
  189SLPC   H8S21830   2.360   2.260   7.717 -2.0905  1.1857  2.8949
  189SLPC   C2921831   2.446   2.432   7.803 -0.2936 -0.3074  0.2024
  189SLPC   H9R21832   2.445   2.509   7.725 -2.2853  1.5305  1.8887
  189SLPC  C21021833   2.442   2.478   7.927 -0.6151  0.7181 -0.3194
  189SLPC  H10R21834   2.427   2.585   7.945 -0.7493  0.5953  0.3045
  189SLPC  C21121835   2.444   2.401   8.058 -0.8562  0.0060  0.5395
  189SLPC  H11R21836   2.543   2.410   8.107  1.2708  1.1128 -3.5523
  189SLPC  H11S21837   2.432   2.296   8.023 -2.1747  0.3414 -0.1050
  189SLPC  C21221838   2.317   2.425   8.139 -0.4072  0.5131 -1.2415
  189SLPC  H12R21839   2.295   2.531   8.159  0.4084  0.1262  2.6447
  189SLPC  C21321840   2.231   2.333   8.185 -0.3890 -0.1143  0.1586
  189SLPC  H13R21841   2.141   2.358   8.244  0.4571 -1.4466  2.1421
  189SLPC  C21421842   2.233   2.185   8.156  0.3110  0.2928 -0.1685
  189SLPC  H14R21843   2.306   2.163   8.076  1.1329  1.9006  0.1020
  189SLPC  H14S21844   2.130   2.168   8.119 -0.2896  2.8427  0.1446
  189SLPC  C21521845   2.270   2.087   8.268  0.1944  0.1344  0.5547
  189SLPC  H15R21846   2.375   2.095   8.304  0.9108 -1.3744 -1.1095
  189SLPC  H15S21847   2.269   1.987   8.220  2.2153  0.1556  0.3750
  189SLPC  C21621848   2.171   2.099   8.384 -0.2289  0.9777 -0.0366
  189SLPC  H16R21849   2.077   2.078   8.329  0.2269  0.5066 -0.6617
  189SLPC  H16S21850   2.153   2.196   8.434  1.4611  1.4435 -0.2639
  189SLPC  C21721851   2.183   1.982   8.491  0.1315  0.7928 -0.6392
  189SLPC  H17R21852   2.160   2.040   8.582 -2.0656  0.9659 -1.2414
  189SLPC  H17S21853   2.285   1.939   8.491 -0.9482 -2.0556  0.5122
  189SLPC  C21821854   2.075   1.875   8.489  0.7117  0.0296  0.7570
  189SLPC  H18R21855   2.089   1.803   8.572  0.5638  0.9091  1.5667
  189SLPC  H18S21856   2.080   1.815   8.396 -0.5065  2.4632 -1.0107
  189SLPC  H18T21857   1.972   1.917   8.487  0.6497 -0.1262 -1.0133
  189SLPC   C3321858   2.531   3.008   6.983 -0.4963  0.0264 -0.0188
  189SLPC   H3X21859   2.422   2.988   6.989 -0.5234  0.5869  2.1561
  189SLPC   H3Y21860   2.540   3.082   6.901 -0.0229 -1.9655 -1.8635
  189SLPC   C3421861   2.578   3.048   7.120  0.4038 -0.4192  0.4301
  189SLPC   H4X21862   2.686   3.068   7.107  0.6064 -1.7188 -0.0703
  189SLPC   H4Y21863   2.567   2.965   7.193 -2.3831  0.2233  0.8481
  189SLPC   C3521864   2.510   3.167   7.183  0.4712 -0.0301  0.5402
  189SLPC   H5X21865   2.402   3.140   7.192  0.8026 -1.4912  0.3828
  189SLPC   H5Y21866   2.518   3.253   7.112 -2.4646 -0.2886 -0.2650
  189SLPC   C3621867   2.563   3.224   7.314 -0.1950 -0.1121 -0.0034
  189SLPC   H6X21868   2.659   3.276   7.296  0.0449 -0.0388  1.3738
  189SLPC   H6Y21869   2.586   3.129   7.367 -1.4964 -1.2057 -1.3186
  189SLPC   C3721870   2.457   3.302   7.392  0.2562  1.1510  0.0482
  189SLPC   H7X21871   2.377   3.229   7.415  1.9891 -0.3293  1.6427
  189SLPC   H7Y21872   2.412   3.382   7.329  1.0263 -0.0546 -2.1422
  189SLPC   C3821873   2.510   3.348   7.528 -0.0635  0.1495  0.1929
  189SLPC   H8X21874   2.579   3.433   7.506  0.3737 -0.4523 -0.8591
  189SLPC   H8Y21875   2.567   3.262   7.571  0.5543 -0.4508 -1.7113
  189SLPC   C3921876   2.394   3.385   7.634 -0.5902  0.0710  0.1358
  189SLPC   H9X21877   2.324   3.445   7.572  0.2859  3.9479  2.6014
  189SLPC   H9Y21878   2.416   3.449   7.722 -2.3103 -0.1258  0.7494
  189SLPC  C31021879   2.302   3.267   7.684 -0.2938 -0.6267 -0.3856
  189SLPC  H10X21880   2.370   3.200   7.742 -1.3946 -2.0945 -0.7421
  189SLPC  H10Y21881   2.285   3.203   7.595 -4.4670 -0.9230  0.4245
  189SLPC  C31121882   2.168   3.302   7.753 -0.3711 -0.0455 -0.0174
  189SLPC  H11X21883   2.103   3.347   7.675 -2.9658 -1.7323  1.0345
  189SLPC  H11Y21884   2.181   3.376   7.836  1.1630 -2.0396  1.6251
  189SLPC  C31221885   2.095   3.178   7.805  0.3210  0.1076 -0.5277
  189SLPC  H12X21886   2.149   3.154   7.900 -1.0651  0.1020  0.2942
  189SLPC  H12Y21887   2.108   3.091   7.737  0.4834  1.0429 -1.7158
  189SLPC  C31321888   1.942   3.203   7.824  0.2542  0.0915  0.4973
  189SLPC  H13X21889   1.910   3.246   7.727 -1.2371  0.2167  1.0063
  189SLPC  H13Y21890   1.918   3.274   7.906 -1.1130 -0.0217  0.2306
  189SLPC  C31421891   1.866   3.072   7.840  0.5243  0.4155  0.6573
  189SLPC  H14X21892   1.916   2.979   7.806 -2.5487 -1.1245 -0.0343
  189SLPC  H14Y21893   1.770   3.073   7.785  0.0546 -1.2463  1.3969
  189SLPC  C31521894   1.836   3.062   7.987  0.4035 -0.1578 -0.2799
  189SLPC  H15X21895   1.773   3.147   8.017 -0.5690 -1.1442  0.5478
  189SLPC  H15Y21896   1.933   3.054   8.041 -0.2822  0.4345  1.0760
  189SLPC  C31621897   1.747   2.946   8.027 -0.3622 -0.0790  0.1647
  189SLPC  H16X21898   1.795   2.853   7.988  1.6549  0.7758  0.5018
  189SLPC  H16Y21899   1.663   2.951   7.955  0.3246  2.0177 -0.5504
  189SLPC  C31721900   1.693   2.930   8.176 -0.2802 -0.4761  0.1049
  189SLPC  H17X21901   1.645   3.026   8.201  0.9561  0.5306 -1.2507
  189SLPC  H17Y21902   1.781   2.908   8.240 -1.8768 -0.5870  2.3846
  189SLPC  C31821903   1.588   2.827   8.192 -0.0400  0.4769 -0.4010
  189SLPC  H18X21904   1.639   2.729   8.178  0.0216  0.5873 -0.9881
  189SLPC  H18Y21905   1.507   2.831   8.116 -0.4486 -3.0696 -0.3045
  189SLPC  H18Z21906   1.544   2.829   8.294 -2.2952  1.8006 -1.3297
  190SLPC     N21907   1.159   0.882   6.018 -0.0387 -0.4368  0.3227
  190SLPC   C1321908   1.169   1.007   5.941 -0.9943  0.6392  0.3043
  190SLPC  H13A21909   1.255   1.065   5.971  0.0788 -0.3690 -0.6735
  190SLPC  H13B21910   1.202   0.982   5.841  0.4912  0.3812  0.8340
  190SLPC  H13C21911   1.077   1.062   5.945 -1.9628 -0.9928  2.9238
  190SLPC   C1421912   1.273   0.781   6.030 -0.7780  0.3650  0.5080
  190SLPC  H14A21913   1.348   0.826   6.093  0.3295 -0.2695 -0.3322
  190SLPC  H14B21914   1.239   0.690   6.077  1.2361 -0.4832  0.4124
  190SLPC  H14C21915   1.323   0.757   5.938 -0.2613  0.0949  0.8583
  190SLPC   C1521916   1.038   0.807   5.970  0.4130  0.5564  0.1856
  190SLPC  H15A21917   0.952   0.859   6.009  0.3607 -0.8713  2.1287
  190SLPC  H15B21918   1.024   0.811   5.863 -0.8893  1.5783  0.3646
  190SLPC  H15C21919   1.039   0.705   6.006 -1.8079 -0.0843 -1.3331
  190SLPC   C1221920   1.118   0.929   6.160 -0.2303 -0.5598 -0.5660
  190SLPC  H12A21921   1.094   0.841   6.217  0.5633  0.2836  1.1505
  190SLPC  H12B21922   1.033   0.995   6.160 -0.1840 -0.4583  1.2646
  190SLPC   C1121923   1.224   1.008   6.245 -0.0821 -0.1004  0.1536
  190SLPC  H11A21924   1.176   1.038   6.340  0.4667  1.5203 -0.0548
  190SLPC  H11B21925   1.240   1.101   6.185 -1.8383  0.4927  0.5362
  190SLPC     P21926   1.351   0.828   6.376 -0.1695  0.1745  0.2139
  190SLPC   O1321927   1.237   0.738   6.357  0.3709  0.6887 -0.2587
  190SLPC   O1421928   1.482   0.767   6.363  0.8431 -0.1076  0.2622
  190SLPC   O1221929   1.348   0.943   6.268 -0.5256 -0.3674 -0.0297
  190SLPC   O1121930   1.337   0.896   6.513  0.3553 -0.7377 -0.4979
  190SLPC    C121931   1.422   1.011   6.541 -0.2155  0.9166 -0.0128
  190SLPC    HA21932   1.426   1.093   6.466 -1.0888  0.4671 -0.5658
  190SLPC    HB21933   1.379   1.068   6.626 -0.0774  0.0485  0.6591
  190SLPC    C221934   1.559   0.977   6.587 -0.8750 -0.3057 -0.0740
  190SLPC    HS21935   1.618   0.948   6.497 -1.9337 -1.6035 -0.3732
  190SLPC   O2121936   1.548   0.870   6.689  0.4431 -0.1569 -0.1358
  190SLPC   C2121937   1.651   0.795   6.707 -0.6902 -0.5350  0.0870
  190SLPC   O2221938   1.760   0.814   6.651  0.4762  0.2293  0.3940
  190SLPC   C2221939   1.625   0.703   6.823  0.7914  0.1655 -0.6923
  190SLPC   H2R21940   1.591   0.605   6.783 -0.2918 -0.1400  0.8912
  190SLPC   H2S21941   1.720   0.697   6.881  1.0082 -1.9957 -1.1949
  190SLPC    C321942   1.621   1.104   6.653 -0.0644 -0.1792  0.7825
  190SLPC    HX21943   1.611   1.189   6.583 -0.4542  0.5659  1.7137
  190SLPC    HY21944   1.731   1.094   6.669  0.0117 -0.1953  0.2421
  190SLPC   O3121945   1.566   1.154   6.773  0.2653 -0.0627 -0.3238
  190SLPC   C3121946   1.609   1.113   6.889 -0.9952 -0.2778 -0.0077
  190SLPC   O3221947   1.694   1.030   6.912  0.1534 -0.1493 -0.3633
  190SLPC   C3221948   1.561   1.210   7.000  0.0289 -0.1415 -0.6657
  190SLPC   H2X21949   1.521   1.137   7.074  1.3528  0.0263  0.2382
  190SLPC   H2Y21950   1.475   1.274   6.971 -0.5845 -0.9866 -0.7452
  190SLPC   C2321951   1.516   0.745   6.925 -0.5085 -0.0025  0.0752
  190SLPC   H3R21952   1.423   0.787   6.880 -1.0831  0.5026  1.6853
  190SLPC   H3S21953   1.573   0.814   6.990 -1.0394 -1.0117  1.6631
  190SLPC   C2421954   1.472   0.628   7.022 -0.3558 -0.6013  0.3409
  190SLPC   H4R21955   1.566   0.603   7.075 -0.3749  2.1614  1.8711
  190SLPC   H4S21956   1.435   0.558   6.944 -0.0378  1.2860 -1.6227
  190SLPC   C2521957   1.351   0.658   7.115 -0.3321  0.6003  0.1267
  190SLPC   H5R21958   1.264   0.702   7.061 -0.5745  1.2951  1.0606
  190SLPC   H5S21959   1.387   0.733   7.189  0.2926 -0.0081  0.4556
  190SLPC   C2621960   1.297   0.534   7.187 -0.0731  0.4825 -0.2406
  190SLPC   H6R21961   1.226   0.576   7.261 -0.0836  0.4526 -0.2338
  190SLPC   H6S21962   1.391   0.488   7.226 -0.0920  0.4888 -0.1883
  190SLPC   C2721963   1.220   0.430   7.102 -0.0204  0.1546  0.3452
  190SLPC   H7R21964   1.287   0.397   7.020  2.2159  0.7876  1.8392
  190SLPC   H7S21965   1.137   0.489   7.057  0.8566  1.5011  0.4617
  190SLPC   C2821966   1.164   0.318   7.186  0.7472  0.6110 -0.2253
  190SLPC   H8R21967   1.115   0.247   7.116  1.6880  0.3633 -0.6468
  190SLPC   H8S21968   1.082   0.368   7.241  0.1327 -1.8612  1.3175
  190SLPC   C2921969   1.266   0.257   7.274 -0.2292 -0.1458 -0.0283
  190SLPC   H9R21970   1.343   0.198   7.222 -1.9453 -1.1904 -1.5038
  190SLPC  C21021971   1.266   0.249   7.411 -0.3751 -0.4410  0.3111
  190SLPC  H10R21972   1.350   0.201   7.463 -0.7287 -2.0341 -0.5427
  190SLPC  C21121973   1.162   0.299   7.505 -0.4512  0.3465  0.9616
  190SLPC  H11R21974   1.075   0.232   7.495  1.4406 -1.8870 -2.6972
  190SLPC  H11S21975   1.129   0.399   7.469  1.0616  1.0583  1.4388
  190SLPC  C21221976   1.227   0.310   7.639  0.1839  0.6804 -0.5116
  190SLPC  H12R21977   1.212   0.230   7.712  0.1575 -0.2832 -1.5380
  190SLPC  C21321978   1.311   0.408   7.681 -0.1577 -0.0845 -0.0775
  190SLPC  H13R21979   1.348   0.407   7.785 -2.7976  4.6634  1.2394
  190SLPC  C21421980   1.348   0.531   7.603  0.5773  0.3866 -0.1446
  190SLPC  H14R21981   1.296   0.534   7.505 -0.9742 -3.7863  0.3487
  190SLPC  H14S21982   1.457   0.532   7.582  0.3470 -1.1165 -1.5712
  190SLPC  C21521983   1.327   0.669   7.685  0.7271 -0.5263  0.3875
  190SLPC  H15R21984   1.405   0.695   7.759 -1.7523 -0.8838  3.3037
  190SLPC  H15S21985   1.233   0.666   7.743  0.6741  1.0891  0.4283
  190SLPC  C21621986   1.303   0.794   7.590 -0.7671  0.1285  0.1009
  190SLPC  H16R21987   1.259   0.877   7.650 -2.0524 -1.2017  1.0818
  190SLPC  H16S21988   1.229   0.774   7.509  0.7108  1.7605 -1.7438
  190SLPC  C21721989   1.434   0.837   7.528 -0.9141  0.1032  0.0832
  190SLPC  H17R21990   1.484   0.758   7.468 -0.8219  1.2286 -1.3914
  190SLPC  H17S21991   1.506   0.859   7.609 -0.8620  2.0997 -0.4492
  190SLPC  C21821992   1.420   0.958   7.428 -0.3675  0.3469 -0.7254
  190SLPC  H18R21993   1.515   0.995   7.384  0.0965 -1.3033 -1.1858
  190SLPC  H18S21994   1.368   1.050   7.463  2.5107  2.6245 -1.9992
  190SLPC  H18T21995   1.367   0.924   7.336 -3.3412  0.9706  0.6247
  190SLPC   C3321996   1.670   1.294   7.066  0.3452 -0.6665  0.2292
  190SLPC   H3X21997   1.715   1.354   6.984 -2.6025 -1.0562 -1.8458
  190SLPC   H3Y21998   1.744   1.217   7.093  0.2662 -0.4571  1.0504
  190SLPC   C3421999   1.624   1.371   7.188 -0.0994 -0.2744 -0.0511
  190SLPC   H4X22000   1.548   1.448   7.165  0.9968  0.9378  0.2408
  190SLPC   H4Y22001   1.714   1.428   7.220 -0.0096 -0.7995  0.6611
  190SLPC   C3522002   1.570   1.296   7.311 -0.5140 -0.4472  0.1179
  190SLPC   H5X22003   1.631   1.204   7.328 -2.3929 -1.3759  2.3829
  190SLPC   H5Y22004   1.463   1.280   7.287  0.2544 -0.5110 -3.9889
  190SLPC   C3622005   1.583   1.385   7.432 -0.3264  0.2030 -0.3713
  190SLPC   H6X22006   1.501   1.460   7.428 -1.4946 -0.8554  1.9134
  190SLPC   H6Y22007   1.687   1.425   7.428 -0.3851  0.3055 -1.2831
  190SLPC   C3722008   1.568   1.298   7.561  0.3587  0.1792  0.2938
  190SLPC   H7X22009   1.477   1.235   7.551 -0.4798  1.2995  0.6064
  190SLPC   H7Y22010   1.558   1.370   7.646  2.4531  0.9719 -0.0755
  190SLPC   C3822011   1.690   1.210   7.590 -0.2816  0.3409 -0.8114
  190SLPC   H8X22012   1.780   1.272   7.573 -1.5496  3.0338  1.4494
  190SLPC   H8Y22013   1.682   1.118   7.528 -0.0991  1.1732 -2.1032
  190SLPC   C3922014   1.699   1.186   7.740  0.1286 -0.1152 -0.0563
  190SLPC   H9X22015   1.725   1.283   7.786  1.2200 -0.0610 -0.7533
  190SLPC   H9Y22016   1.786   1.118   7.755  0.1211 -0.5291 -1.7199
  190SLPC  C31022017   1.583   1.116   7.817 -0.1831 -0.2158 -0.3955
  190SLPC  H10X22018   1.564   1.015   7.775 -3.3466  0.4618 -0.8732
  190SLPC  H10Y22019   1.486   1.169   7.803  0.7119  1.4094 -0.6089
  190SLPC  C31122020   1.616   1.102   7.967 -0.5242 -0.1887  0.5337
  190SLPC  H11X22021   1.629   1.208   7.998 -0.4943  0.2683 -0.9800
  190SLPC  H11Y22022   1.715   1.052   7.968 -1.4142 -2.0432  0.1059
  190SLPC  C31222023   1.504   1.033   8.038  0.0064  0.2461  0.2696
  190SLPC  H12X22024   1.408   1.082   8.011  0.1578 -0.1093 -1.0123
  190SLPC  H12Y22025   1.525   1.040   8.146  0.3763  0.6785  0.1744
  190SLPC  C31322026   1.485   0.881   8.003  0.0694  0.4287 -0.4524
  190SLPC  H13X22027   1.584   0.831   8.005 -0.3298 -0.3481  0.2882
  190SLPC  H13Y22028   1.446   0.871   7.899 -0.5309 -0.5689 -0.1401
  190SLPC  C31422029   1.391   0.799   8.099 -0.2815  0.1627 -0.4921
  190SLPC  H14X22030   1.294   0.852   8.095 -0.2384  0.3357  0.4256
  190SLPC  H14Y22031   1.420   0.795   8.207  1.7361  0.7282 -0.9632
  190SLPC  C31522032   1.362   0.656   8.049 -0.5510 -0.2554 -0.0032
  190SLPC  H15X22033   1.459   0.604   8.063 -0.1390  0.7233  0.9585
  190SLPC  H15Y22034   1.342   0.649   7.940  0.1903  3.4465 -0.5413
  190SLPC  C31622035   1.243   0.593   8.121 -0.1209 -0.5181  0.6208
  190SLPC  H16X22036   1.153   0.651   8.092  1.8922  1.9251 -1.1939
  190SLPC  H16Y22037   1.273   0.609   8.227 -0.8933  2.4117  0.4641
  190SLPC  C31722038   1.237   0.443   8.098  0.8542 -0.2156  0.0622
  190SLPC  H17X22039   1.202   0.387   8.188  2.5881  2.0752  2.2903
  190SLPC  H17Y22040   1.339   0.402   8.080  0.8424 -0.0982 -0.2747
  190SLPC  C31822041   1.136   0.407   7.990 -0.0907 -0.0717  0.9527
  190SLPC  H18X22042   1.031   0.422   8.022  0.0350  0.2644  1.2082
  190SLPC  H18Y22043   1.148   0.303   7.951  0.5369 -0.1375  1.2996
  190SLPC  H18Z22044   1.168   0.468   7.903  0.5643 -0.2702  1.0515
  191SLPC     N22045   1.432   2.342   5.702 -0.1294  0.0362  0.0992
  191SLPC   C1322046   1.533   2.373   5.806 -0.1601  0.8885 -0.0945
  191SLPC  H13A22047   1.623   2.417   5.766 -0.6322  1.0176 -1.0464
  191SLPC  H13B22048   1.494   2.453   5.868  1.1487  1.2099  0.3421
  191SLPC  H13C22049   1.547   2.288   5.871  0.0781  0.0442 -1.2272
  191SLPC   C1422050   1.491   2.231   5.619  0.7333  0.1107 -0.4620
  191SLPC  H14A22051   1.421   2.188   5.549  0.3362  1.0046 -0.6304
  191SLPC  H14B22052   1.561   2.275   5.548  0.2439 -0.8749 -1.5965
  191SLPC  H14C22053   1.524   2.145   5.675 -3.4303 -1.6081 -0.3380
  191SLPC   C1522054   1.421   2.458   5.624 -0.0582 -0.4773 -0.0790
  191SLPC  H15A22055   1.357   2.531   5.672  1.0213 -1.0142  2.3460
  191SLPC  H15B22056   1.510   2.517   5.608  1.0062 -1.6307  1.3245
  191SLPC  H15C22057   1.385   2.434   5.525 -0.8051  1.3724 -0.3124
  191SLPC   C1222058   1.304   2.302   5.769  0.1933  0.5462 -0.1969
  191SLPC  H12A22059   1.325   2.204   5.810 -0.4978 -0.0553 -1.2412
  191SLPC  H12B22060   1.224   2.279   5.701  1.6980 -0.5842 -1.6528
  191SLPC   C1122061   1.241   2.387   5.878 -0.2406 -0.1740  0.6335
  191SLPC  H11A22062   1.226   2.486   5.829 -3.0294 -0.4266  0.8359
  191SLPC  H11B22063   1.300   2.400   5.971 -0.1963 -0.9296  0.7219
  191SLPC     P22064   1.012   2.417   5.988 -0.2989  0.5813  0.1088
  191SLPC   O1322065   1.019   2.562   5.960 -0.6562 -0.3574  0.6200
  191SLPC   O1422066   0.880   2.349   5.977 -0.2991 -0.0060  0.4068
  191SLPC   O1222067   1.110   2.337   5.892  0.0211 -0.2382  0.2046
  191SLPC   O1122068   1.065   2.393   6.137 -0.5907 -0.4211  1.1496
  191SLPC    C122069   1.092   2.262   6.182 -0.3032  0.2876  0.3808
  191SLPC    HA22070   1.066   2.183   6.108 -0.8116  0.9994 -0.2164
  191SLPC    HB22071   1.198   2.258   6.212 -0.3671 -1.3822  0.4494
  191SLPC    C222072   0.997   2.229   6.299  0.2457 -0.3260  0.6295
  191SLPC    HS22073   0.888   2.234   6.277 -0.1061  1.3557  2.4342
  191SLPC   O2122074   1.021   2.318   6.407  0.0708  0.3863  0.2456
  191SLPC   C2122075   0.934   2.412   6.429  0.1981  0.0266  0.2475
  191SLPC   O2222076   0.820   2.422   6.390  0.1633  0.6617  0.6994
  191SLPC   C2222077   1.006   2.526   6.504 -0.2266 -0.8306 -0.6411
  191SLPC   H2R22078   1.034   2.593   6.420 -0.1418 -3.1788 -2.6146
  191SLPC   H2S22079   0.930   2.569   6.573 -0.7510  1.0933 -2.3329
  191SLPC    C322080   1.030   2.083   6.344 -0.2631 -0.2314  0.0425
  191SLPC    HX22081   1.139   2.089   6.365 -0.0065 -0.0324 -1.2425
  191SLPC    HY22082   1.015   2.005   6.266  1.3527 -1.9774  1.3823
  191SLPC   O3122083   0.947   2.043   6.456  0.2103  1.0011 -0.0729
  191SLPC   C3122084   0.991   1.936   6.523 -0.5150 -0.2866 -0.3441
  191SLPC   O3222085   1.089   1.872   6.495  0.5839 -0.6550 -0.1343
  191SLPC   C3222086   0.897   1.894   6.635 -0.5340  0.0644  0.1714
  191SLPC   H2X22087   0.863   1.790   6.615 -1.3643  0.0487  1.5307
  191SLPC   H2Y22088   0.803   1.954   6.633 -0.7671 -0.2763  0.6754
  191SLPC   C2322089   1.121   2.474   6.595 -0.1013 -0.1150  0.5408
  191SLPC   H3R22090   1.200   2.441   6.524 -3.2077 -0.1858 -3.2564
  191SLPC   H3S22091   1.082   2.388   6.653 -0.3529  0.9119  1.9508
  191SLPC   C2422092   1.182   2.577   6.695 -0.3044 -0.7451 -0.1660
  191SLPC   H4R22093   1.090   2.617   6.744 -0.9640 -2.3937  0.0087
  191SLPC   H4S22094   1.226   2.654   6.628 -0.5818  0.2251  0.7406
  191SLPC   C2522095   1.284   2.507   6.794 -0.0143  0.2658  0.6724
  191SLPC   H5R22096   1.364   2.462   6.731 -1.7220  0.1481 -1.5230
  191SLPC   H5S22097   1.236   2.416   6.835  0.4736 -0.4301 -0.2475
  191SLPC   C2622098   1.327   2.595   6.905 -0.1553  0.5292 -0.7756
  191SLPC   H6R22099   1.369   2.691   6.870 -0.3559  1.8155  2.2035
  191SLPC   H6S22100   1.409   2.536   6.952 -0.0218  0.4493 -1.1053
  191SLPC   C2722101   1.226   2.624   7.019 -0.6500 -0.4040 -1.0650
  191SLPC   H7R22102   1.142   2.676   6.968 -2.5046  0.0220  2.1734
  191SLPC   H7S22103   1.264   2.697   7.093 -1.4606 -1.1141  0.0800
  191SLPC   C2822104   1.179   2.496   7.093  0.0219  0.3586 -0.4077
  191SLPC   H8R22105   1.271   2.441   7.122  0.3331  0.5353 -1.0269
  191SLPC   H8S22106   1.129   2.422   7.027  0.4926 -1.0672  0.7795
  191SLPC   C2922107   1.098   2.538   7.204 -0.4002 -0.1590 -0.0158
  191SLPC   H9R22108   1.146   2.610   7.271 -1.1034  2.0857 -1.7822
  191SLPC  C21022109   0.970   2.499   7.225 -0.0535 -0.2134  0.5176
  191SLPC  H10R22110   0.916   2.536   7.313  0.2297 -1.5041  1.2542
  191SLPC  C21122111   0.893   2.409   7.137 -0.3974  0.6514  0.5337
  191SLPC  H11R22112   0.946   2.312   7.146  0.1717  0.8426 -0.5710
  191SLPC  H11S22113   0.901   2.450   7.033  0.2803 -2.7541 -0.9002
  191SLPC  C21222114   0.743   2.390   7.162 -0.0615 -0.4765 -0.4949
  191SLPC  H12R22115   0.688   2.410   7.068 -0.0571  0.7593 -0.2577
  191SLPC  C21322116   0.681   2.341   7.275 -0.5577 -0.5188  0.6390
  191SLPC  H13R22117   0.572   2.327   7.278 -1.0227  1.9737 -1.5422
  191SLPC  C21422118   0.740   2.280   7.398  0.5037 -0.0977  0.2135
  191SLPC  H14R22119   0.848   2.266   7.377  0.2310 -1.7976 -0.2165
  191SLPC  H14S22120   0.710   2.174   7.414  1.3590 -0.6918 -1.7481
  191SLPC  C21522121   0.743   2.373   7.526 -0.4243  0.0181 -0.5197
  191SLPC  H15R22122   0.650   2.431   7.543 -1.8219 -2.1228 -0.3837
  191SLPC  H15S22123   0.816   2.452   7.499 -0.6609  1.0348  1.6509
  191SLPC  C21622124   0.797   2.305   7.658 -0.1759  0.3309  0.0652
  191SLPC  H16R22125   0.901   2.273   7.635 -0.6951 -2.5087  1.2048
  191SLPC  H16S22126   0.740   2.210   7.672 -1.3218  1.0280  0.2712
  191SLPC  C21722127   0.796   2.397   7.786 -0.7590 -0.0137  1.0446
  191SLPC  H17R22128   0.693   2.407   7.825 -0.8601 -1.0861  1.0688
  191SLPC  H17S22129   0.835   2.496   7.751  2.1349 -0.8474  1.6103
  191SLPC  C21822130   0.886   2.354   7.899  0.5488 -0.4702 -0.3350
  191SLPC  H18R22131   0.968   2.429   7.902 -1.2766  1.5771  0.3433
  191SLPC  H18S22132   0.937   2.257   7.882  1.1007 -0.0116 -1.4864
  191SLPC  H18T22133   0.825   2.354   7.991 -0.6526 -0.0983 -1.0998
  191SLPC   C3322134   0.976   1.900   6.769 -0.4918 -0.3652  0.2926
  191SLPC   H3X22135   1.078   1.856   6.767  0.8722  2.4695 -3.3881
  191SLPC   H3Y22136   0.913   1.840   6.838  1.1444 -2.0781  0.3653
  191SLPC   C3422137   0.994   2.044   6.826 -0.2272 -0.2335 -0.0156
  191SLPC   H4X22138   0.889   2.078   6.842 -1.3820 -3.2401 -0.4909
  191SLPC   H4Y22139   1.034   2.108   6.745 -1.8840 -0.1945 -0.8547
  191SLPC   C3522140   1.080   2.050   6.953 -0.3238  0.1367  0.2709
  191SLPC   H5X22141   1.112   2.156   6.960 -1.0428  0.4951 -1.3631
  191SLPC   H5Y22142   1.175   2.001   6.924  0.1180  0.4755  1.1238
  191SLPC   C3622143   1.011   2.002   7.075  0.3582  0.0981  0.5184
  191SLPC   H6X22144   1.005   1.892   7.063 -0.1724  0.2425 -0.8066
  191SLPC   H6Y22145   0.911   2.050   7.087  0.3005  0.5735 -1.4720
  191SLPC   C3722146   1.088   2.024   7.206  0.2017 -0.0127 -0.9028
  191SLPC   H7X22147   1.117   2.130   7.218 -1.3105  0.4170 -0.7924
  191SLPC   H7Y22148   1.183   1.969   7.220  1.0475  1.8824  1.3679
  191SLPC   C3822149   1.002   1.990   7.327  0.0254  0.7215  0.4021
  191SLPC   H8X22150   0.987   1.881   7.312 -1.7546  1.1175 -1.1723
  191SLPC   H8Y22151   0.897   2.023   7.310 -1.5560 -4.1424 -1.0231
  191SLPC   C3922152   1.056   2.021   7.463 -0.2730 -0.9475 -0.0175
  191SLPC   H9X22153   1.027   2.125   7.493  1.8019 -0.6478  1.0892
  191SLPC   H9Y22154   1.166   2.022   7.450 -0.4062 -0.9989 -1.3662
  191SLPC  C31022155   1.004   1.933   7.576 -0.6598  0.1765  0.1892
  191SLPC  H10X22156   1.025   1.829   7.542 -0.4953  0.9358 -2.2525
  191SLPC  H10Y22157   0.893   1.937   7.579 -0.6712 -0.1135  0.1887
  191SLPC  C31122158   1.064   1.958   7.711  0.4838  0.1454  0.2197
  191SLPC  H11X22159   1.049   1.869   7.775  0.6337 -0.2666 -0.3081
  191SLPC  H11Y22160   1.020   2.045   7.763  0.4202 -0.7021  1.6314
  191SLPC  C31222161   1.216   1.975   7.712 -0.3116 -0.1760 -0.1489
  191SLPC  H12X22162   1.236   2.068   7.655  0.2719 -0.0257  0.2922
  191SLPC  H12Y22163   1.264   1.894   7.653  2.4392  2.2516 -1.4937
  191SLPC  C31322164   1.265   1.982   7.853 -0.0417  0.5257 -0.0209
  191SLPC  H13X22165   1.237   1.880   7.889 -1.3197  1.3346  1.3953
  191SLPC  H13Y22166   1.212   2.053   7.919 -3.0095 -0.1791 -1.4907
  191SLPC  C31422167   1.411   1.996   7.862 -0.0766 -0.2827  0.0305
  191SLPC  H14X22168   1.447   2.080   7.798  0.3318 -1.0261 -0.7448
  191SLPC  H14Y22169   1.468   1.910   7.822  1.2998  0.0192  1.2484
  191SLPC  C31522170   1.462   2.016   8.007  0.0809  0.8135 -0.5082
  191SLPC  H15X22171   1.421   1.937   8.073  1.9955 -1.7917 -2.2649
  191SLPC  H15Y22172   1.412   2.108   8.045  0.8184  1.7932 -1.7966
  191SLPC  C31622173   1.615   2.032   8.021  0.4275 -0.3671  0.4514
  191SLPC  H16X22174   1.651   2.129   7.978 -0.4060  0.2865  1.1929
  191SLPC  H16Y22175   1.664   1.944   7.976  0.7395 -0.5750  1.1802
  191SLPC  C31722176   1.650   2.031   8.167 -0.3754  0.5856  0.4067
  191SLPC  H17X22177   1.604   1.938   8.207 -0.3854  1.2319  1.9311
  191SLPC  H17Y22178   1.589   2.114   8.210 -2.3011 -0.3800 -0.3370
  191SLPC  C31822179   1.805   2.033   8.197 -0.2467 -0.2627  0.2236
  191SLPC  H18X22180   1.828   1.946   8.262  1.0674 -1.0550 -1.2584
  191SLPC  H18Y22181   1.842   2.133   8.229 -2.4529  0.6281  0.1747
  191SLPC  H18Z22182   1.863   2.011   8.105  1.2970 -2.4936  1.6439
  192SLPC     N22183   1.877   4.246   6.297  0.2246  0.2979  0.1862
  192SLPC   C1322184   1.958   4.273   6.178 -0.2657  0.2006 -0.0418
  192SLPC  H13A22185   1.925   4.365   6.132  2.7431  0.4337 -1.9610
  192SLPC  H13B22186   2.061   4.262   6.208  0.7060 -1.1969 -3.4466
  192SLPC  H13C22187   1.936   4.196   6.105 -2.7906 -0.4915  1.3138
  192SLPC   C1422188   1.928   4.127   6.372 -0.5950  0.3993  0.1324
  192SLPC  H14A22189   1.995   4.145   6.455 -0.8109 -2.2561  0.9560
  192SLPC  H14B22190   1.852   4.067   6.419  0.6733  0.0305  1.8045
  192SLPC  H14C22191   1.989   4.062   6.311  1.3319 -0.0757  2.4222
  192SLPC   C1522192   1.741   4.203   6.246 -0.6854  0.3588 -0.5515
  192SLPC  H15A22193   1.744   4.097   6.227  0.9858  0.3703 -0.5644
  192SLPC  H15B22194   1.663   4.219   6.319  1.3776  1.8680  1.4961
  192SLPC  H15C22195   1.719   4.254   6.154 -0.6098 -0.4412 -1.0139
  192SLPC   C1222196   1.854   4.361   6.389  0.2477  0.6511 -0.4623
  192SLPC  H12A22197   1.803   4.438   6.334  3.7862  2.0864 -2.0437
  192SLPC  H12B22198   1.949   4.398   6.426  0.2463 -4.0636  6.1268
  192SLPC   C1122199   1.766   4.341   6.517 -0.1183  0.0901  0.1109
  192SLPC  H11A22200   1.771   4.442   6.565 -1.6962 -0.4522  1.5293
  192SLPC  H11B22201   1.806   4.268   6.590 -0.4028  0.0401  0.2195
  192SLPC     P22202   1.516   4.394   6.455  0.0181 -0.1582 -0.2548
  192SLPC   O1322203   1.573   4.516   6.396 -0.5941 -0.1762 -0.4694
  192SLPC   O1422204   1.417   4.315   6.381 -0.0383  0.1597 -0.2324
  192SLPC   O1222205   1.631   4.301   6.486 -0.9475  0.2491  0.0871
  192SLPC   O1122206   1.469   4.431   6.598  0.5150  0.4590  0.6530
  192SLPC    C122207   1.395   4.336   6.674 -0.9059  0.5090 -0.0715
  192SLPC    HA22208   1.295   4.311   6.634  0.2822 -3.1712 -1.0949
  192SLPC    HB22209   1.459   4.246   6.683  1.3051  2.1572  1.7344
  192SLPC    C222210   1.392   4.382   6.823  0.0873 -0.5323  0.4343
  192SLPC    HS22211   1.391   4.294   6.891  1.1949  0.6600  2.0663
  192SLPC   O2122212   1.287   4.472   6.846  0.1820 -0.1023 -0.2386
  192SLPC   C2122213   1.168   4.423   6.875 -0.1455  0.0715 -0.2939
  192SLPC   O2222214   1.150   4.300   6.867  0.4794 -0.1388  0.2188
  192SLPC   C2222215   1.075   4.531   6.927 -0.1352 -0.4171 -0.1732
  192SLPC   H2R22216   1.095   4.628   6.876  0.9008 -1.5169 -1.9268
  192SLPC   H2S22217   0.970   4.510   6.897  0.1382 -0.7849 -0.8854
  192SLPC    C322218   1.521   4.464   6.861  0.7129  0.1389  0.0776
  192SLPC    HX22219   1.499   4.572   6.845 -2.2727 -0.1903  1.4582
  192SLPC    HY22220   1.607   4.443   6.793 -0.0707 -0.2905 -0.8076
  192SLPC   O3122221   1.559   4.440   6.998 -0.2088 -0.4245 -0.4685
  192SLPC   C3122222   1.498   4.518   7.093 -0.2155 -0.3458  0.9984
  192SLPC   O3222223   1.413   4.598   7.069 -0.2211 -0.4870 -0.2777
  192SLPC   C3222224   1.543   4.465   7.229 -0.2699 -0.0262 -0.6890
  192SLPC   H2X22225   1.654   4.464   7.238 -0.1036  0.5618 -2.3053
  192SLPC   H2Y22226   1.513   4.359   7.223 -0.9745  0.0067  1.4708
  192SLPC   C2322227   1.096   4.558   7.073 -0.1183  0.2401 -0.3266
  192SLPC   H3R22228   1.087   4.669   7.084  0.8172  0.4923 -1.7827
  192SLPC   H3S22229   1.201   4.531   7.098  0.0820  0.5979 -0.7639
  192SLPC   C2422230   1.011   4.477   7.167  0.6464  0.1550  0.2655
  192SLPC   H4R22231   1.033   4.372   7.136  1.3818  0.1506  0.7776
  192SLPC   H4S22232   0.905   4.506   7.156 -0.2151 -2.0792  1.8364
  192SLPC   C2522233   1.054   4.497   7.311 -0.0320  0.6772  0.1012
  192SLPC   H5R22234   1.067   4.606   7.326  2.8337  0.5298 -0.5693
  192SLPC   H5S22235   1.159   4.459   7.309 -0.6047 -1.2340  2.5372
  192SLPC   C2622236   0.978   4.439   7.419  0.0680  0.0651  0.1934
  192SLPC   H6R22237   0.976   4.329   7.400  2.3373  0.0692 -0.3751
  192SLPC   H6S22238   0.874   4.477   7.426  0.6144  2.3198 -2.4041
  192SLPC   C2722239   1.054   4.457   7.557 -0.1790  0.0143  1.0231
  192SLPC   H7R22240   1.015   4.557   7.585 -1.0172  0.5554 -1.7604
  192SLPC   H7S22241   1.161   4.469   7.530 -0.9340  0.1156 -2.4015
  192SLPC   C2822242   1.011   4.371   7.678 -0.0557  0.4433 -0.4927
  192SLPC   H8R22243   1.092   4.386   7.752 -1.2643  1.1367  0.7434
  192SLPC   H8S22244   1.021   4.264   7.651  3.0681  0.9950 -1.9374
  192SLPC   C2922245   0.872   4.397   7.737 -0.7961  0.6502  0.1068
  192SLPC   H9R22246   0.794   4.378   7.661 -1.2023  0.1607  0.6297
  192SLPC  C21022247   0.844   4.450   7.855 -0.0207 -0.4712  0.5568
  192SLPC  H10R22248   0.739   4.463   7.883 -0.1498  0.2293 -0.2247
  192SLPC  C21122249   0.942   4.502   7.960  0.2230  0.1285  0.5577
  192SLPC  H11R22250   0.931   4.612   7.962 -0.9764  0.0468 -0.3428
  192SLPC  H11S22251   1.046   4.480   7.928  1.0072  1.4407  2.0870
  192SLPC  C21222252   0.909   4.448   8.100 -0.4995  0.6257 -0.3212
  192SLPC  H12R22253   0.924   4.339   8.102  0.0082  0.7012  1.7108
  192SLPC  C21322254   0.881   4.513   8.216  0.2540 -0.0742  0.1901
  192SLPC  H13R22255   0.885   4.462   8.313  1.4365  0.4696  0.4545
  192SLPC  C21422256   0.868   4.661   8.239  0.1104 -0.0801  0.2996
  192SLPC  H14R22257   0.816   4.709   8.153  2.6575 -0.2441 -1.4368
  192SLPC  H14S22258   0.970   4.706   8.250  0.7129 -1.8758  2.6644
  192SLPC  C21522259   0.776   4.701   8.361 -0.2329 -0.8085  0.2286
  192SLPC  H15R22260   0.685   4.638   8.354  1.5934 -3.5637 -0.1557
  192SLPC  H15S22261   0.752   4.808   8.343 -0.3878 -0.7157  0.9464
  192SLPC  C21622262   0.850   4.684   8.490  0.0407  0.2244 -0.6562
  192SLPC  H16R22263   0.952   4.727   8.481  0.0365  0.6038  0.7950
  192SLPC  H16S22264   0.858   4.578   8.522  2.7368 -0.3785 -2.9748
  192SLPC  C21722265   0.802   4.773   8.602  0.4821 -0.0591  0.2964
  192SLPC  H17R22266   0.880   4.776   8.681  1.6049  0.1878 -0.7799
  192SLPC  H17S22267   0.804   4.878   8.564  0.2700 -0.0844  0.2125
  192SLPC  C21822268   0.669   4.733   8.660 -0.4280 -0.1384 -0.2240
  192SLPC  H18R22269   0.625   4.802   8.734 -0.8277 -1.5491  0.9100
  192SLPC  H18S22270   0.689   4.634   8.707 -0.4955 -1.7392 -3.2711
  192SLPC  H18T22271   0.601   4.704   8.576  0.5564 -2.5356 -0.2746
  192SLPC   C3322272   1.468   4.526   7.355 -0.2163 -0.2109  0.0430
  192SLPC   H3X22273   1.362   4.498   7.342 -0.9268  2.7290 -1.4157
  192SLPC   H3Y22274   1.482   4.636   7.353 -0.1923 -0.2197 -0.3079
  192SLPC   C3422275   1.538   4.469   7.483 -0.1233  0.7512  0.6671
  192SLPC   H4X22276   1.647   4.490   7.470 -0.0871  0.4226  0.4141
  192SLPC   H4Y22277   1.520   4.360   7.493  0.6564  0.5996  0.4853
  192SLPC   C3522278   1.485   4.544   7.598 -0.5929 -0.4712  0.2042
  192SLPC   H5X22279   1.374   4.537   7.600 -0.5634 -1.9085 -1.1608
  192SLPC   H5Y22280   1.506   4.653   7.597  2.8002 -1.0111 -1.1152
  192SLPC   C3622281   1.556   4.487   7.715  0.4848 -0.5667 -0.4841
  192SLPC   H6X22282   1.663   4.517   7.719  0.0421  1.0984 -0.5344
  192SLPC   H6Y22283   1.533   4.379   7.720  1.2074 -0.6816  0.8435
  192SLPC   C3722284   1.492   4.548   7.844 -0.3390  0.3185 -0.0586
  192SLPC   H7X22285   1.383   4.532   7.859 -0.3641 -1.2781 -1.6691
  192SLPC   H7Y22286   1.507   4.658   7.849 -1.0502  0.5944 -2.6155
  192SLPC   C3822287   1.558   4.490   7.970  0.7282  0.3199  0.3126
  192SLPC   H8X22288   1.657   4.539   7.982  2.1994 -1.5620 -2.6582
  192SLPC   H8Y22289   1.572   4.382   7.948  1.2497  0.3580  0.4477
  192SLPC   C3922290   1.465   4.514   8.091 -1.0551  0.1059 -0.1587
  192SLPC   H9X22291   1.372   4.455   8.073  0.0505 -1.1185 -2.1956
  192SLPC   H9Y22292   1.434   4.621   8.090 -2.4699 -0.2796 -0.4448
  192SLPC  C31022293   1.514   4.455   8.233 -0.2551  0.3756  0.4529
  192SLPC  H10X22294   1.584   4.527   8.282 -1.3166  0.7870  1.4032
  192SLPC  H10Y22295   1.581   4.368   8.217  1.6351  1.7720  0.2788
  192SLPC  C31122296   1.403   4.435   8.328  0.0673 -0.0092  0.4466
  192SLPC  H11X22297   1.338   4.355   8.288 -0.7142  0.2213  1.2259
  192SLPC  H11Y22298   1.337   4.524   8.338  3.1957  2.5318  0.1372
  192SLPC  C31222299   1.451   4.386   8.466  0.9398 -0.2997  0.2534
  192SLPC  H12X22300   1.519   4.461   8.510 -0.6099  1.6548 -0.4908
  192SLPC  H12Y22301   1.521   4.302   8.447  1.7070  0.3726  0.0434
  192SLPC  C31322302   1.334   4.343   8.555 -0.5219  0.3665 -0.1140
  192SLPC  H13X22303   1.268   4.266   8.511 -0.0053 -0.8594  1.1716
  192SLPC  H13Y22304   1.280   4.435   8.587 -0.1405 -0.3298  2.8838
  192SLPC  C31422305   1.373   4.289   8.698 -0.5834 -0.0740  0.0881
  192SLPC  H14X22306   1.278   4.247   8.738 -0.3789 -1.4643 -0.8011
  192SLPC  H14Y22307   1.414   4.368   8.764 -1.4110  1.3123 -1.0168
  192SLPC  C31522308   1.467   4.168   8.689  0.2800 -0.3434  0.6053
  192SLPC  H15X22309   1.571   4.190   8.656  0.2990  0.0251  0.9103
  192SLPC  H15Y22310   1.419   4.099   8.616  0.8246 -0.3380  0.2353
  192SLPC  C31622311   1.465   4.075   8.814  0.3794 -0.0193  0.4402
  192SLPC  H16X22312   1.364   4.069   8.859  0.5957  2.3594  1.3764
  192SLPC  H16Y22313   1.531   4.117   8.894  1.2044 -1.1412  0.3731
  192SLPC  C31722314   1.494   3.929   8.776  0.1586 -0.7972 -0.5338
  192SLPC  H17X22315   1.581   3.935   8.707 -1.2395  2.1842 -2.2862
  192SLPC  H17Y22316   1.414   3.892   8.708  0.4212  0.2514 -1.4629
  192SLPC  C31822317   1.500   3.838   8.898 -0.4949  0.5649 -0.3857
  192SLPC  H18X22318   1.504   3.732   8.867  2.0263  1.4899 -3.7442
  192SLPC  H18Y22319   1.410   3.859   8.961 -0.2471  0.1084  0.1208
  192SLPC  H18Z22320   1.583   3.862   8.967  2.2356 -3.5484 -1.8594
  193SOD    SOD22321   3.141   5.544  13.385 -0.4475  0.2325  0.0281
  194SOD    SOD22322   0.059   5.835  16.902  0.1893 -0.0556  0.0177
  195SOD    SOD22323   5.399   0.660  11.741 -0.3870  0.1300  0.0583
  196SOD    SOD22324   0.701   4.578   0.726  0.5748 -0.2520 -0.4727
  197SOD    SOD22325   4.749   0.647   4.109  0.0405 -0.5384  0.0548
  198SOD    SOD22326   5.146   3.821   2.338 -0.1515 -0.5901 -0.0020
  199SOD    SOD22327   4.991   6.107  12.741  0.0911 -0.4066 -0.2395
  200SOD    SOD22328   0.649   5.298  14.046  0.2554 -0.1029 -0.0700
  201SOD    SOD22329   3.827   5.116  13.475  0.1020  0.2819  0.1675
  202SOD    SOD22330   6.321   0.381  10.869  0.7485 -0.2574  0.0332
  203SOD    SOD22331   5.081   0.065  14.138  0.0479  0.5838 -0.1449
  204SOD    SOD22332   0.299   2.588  10.474  0.3774  0.0621  0.3093
  205SOD    SOD22333   0.772   2.231  12.712 -0.1702 -0.1187  0.2016
  206SOD    SOD22334   5.824   1.577   5.225  0.5066  0.5652  0.1027
  207SOD    SOD22335   5.636   4.761   5.347 -0.0505  0.2670 -0.3650
  208SOD    SOD22336   5.655   4.229  12.048  0.1038  0.0686  0.0495
  209SOD    SOD22337   0.068   0.867  12.900  0.0947  0.4815  0.0930
  210SOD    SOD22338   1.911   3.261   4.989  0.3684  0.3699 -0.0396
  211SOD    SOD22339   3.451   0.450  10.845 -0.5648  0.3142 -0.1534
  212SOD    SOD22340   4.411   5.761   0.846  0.3358 -0.4187  0.2384
  213SOD    SOD22341   4.531   2.704   1.376 -0.0825 -0.1773 -0.4142
  214SOD    SOD22342   3.111   3.228  12.016  0.2171  0.0870 -0.0630
  215SOD    SOD22343   1.941   0.784   6.528  0.1455  0.0793  0.4488
  216SOD    SOD22344   2.372   6.759  13.236  0.2526 -0.0159 -0.0320
  217SOD    SOD22345   4.765   2.398  17.012  0.0907 -0.1204 -0.0962
  218SOD    SOD22346   2.393   5.364  14.656 -0.0378  0.0398  0.3276
  219SOD    SOD22347   0.802   5.095  13.426  0.2859 -0.0776  0.3982
  220SOD    SOD22348   2.549   0.201   1.651  0.5936  0.3138 -0.4080
  221SOD    SOD22349   5.331   1.959  11.522  0.0610 -0.3448  0.1070
  222SOD    SOD22350   0.486   5.416  17.072  0.0640 -0.1743 -0.0129
  223SOD    SOD22351   4.994   6.116   5.131 -0.1853  0.1078 -0.0466
  224SOD    SOD22352   6.409   1.578   6.527 -0.2021 -0.1228 -0.3767
  225SOD    SOD22353   6.703   0.787  14.297  0.0726 -0.5687 -0.1401
  226SOD    SOD22354   2.514   4.812   1.395 -0.0646 -0.4782 -0.4158
  227SOD    SOD22355   2.547   3.615  14.054  0.1317 -0.0245 -1.0654
  228SOD    SOD22356   4.768   3.909  16.243 -0.0646  0.5476  0.2379
  229SOD    SOD22357   2.950   6.461  15.099  0.2907 -0.2728 -0.3300
  230SOD    SOD22358   4.318   1.575  12.951 -0.0480  0.3062 -0.3908
  231SOD    SOD22359   1.877   5.735  11.322 -0.1145 -0.0286  0.0499
  232SOD    SOD22360   2.929   6.376   5.632 -0.3092  0.2288 -0.0737
  233SOD    SOD22361   1.732   1.091  12.753  0.2711  0.3377  0.4964
  234SOD    SOD22362   0.876   2.718  11.168  0.0585 -0.4127 -0.3503
  235SOD    SOD22363   6.671   3.992  13.432 -0.0092 -0.3861  0.4416
  236SOD    SOD22364   6.405   6.331   5.816  0.1716 -0.7320 -0.2470
  237SOD    SOD22365   4.715   4.290  14.265 -0.4780  0.2738  0.3265
  238SOD    SOD22366   1.976   3.050  16.107  0.0192 -0.1917 -0.1827
  239SOD    SOD22367   0.326   0.512   2.712 -0.0730 -0.0279  0.2738
  240SOD    SOD22368   0.920   0.927   4.609 -0.1583  0.1699  0.5369
  241SOD    SOD22369   0.474   1.982   0.682 -0.1861  0.2097  0.4081
  242SOD    SOD22370   4.972   5.771   6.298  0.1094 -0.0856  0.2115
  243SOD    SOD22371   0.464   4.163   0.469  0.6765 -0.1379  0.3028
  244SOD    SOD22372   2.068   5.347  16.402 -0.0331 -0.2708  0.0906
  245SOD    SOD22373   5.906   2.068  14.163  0.3403 -0.0838 -0.1309
  246SOD    SOD22374   6.486   5.388   0.777  0.0718 -0.4386  0.3594
  247SOD    SOD22375   4.187   2.528  13.148 -0.8267 -0.3753 -0.1483
  248SOD    SOD22376   6.018   2.172  15.830  0.0964 -0.3213 -0.6876
  249SOD    SOD22377   1.848   1.863  10.512  0.1071 -0.0727  0.4464
  250SOD    SOD22378   6.597   4.632   3.026 -0.5901  0.5860 -0.4016
  251SOD    SOD22379   3.643   4.336   4.618 -0.3022  0.3247 -0.1266
  252SOD    SOD22380   5.231   0.007  11.123  0.4589  0.2328 -0.2516
  253SOD    SOD22381   4.652   5.450  16.142 -0.0229 -0.5494 -0.4609
  254SOD    SOD22382   4.179   5.037   5.334 -0.0320  0.1830  0.1835
  255SOD    SOD22383   2.324   0.999   2.041 -0.0411 -0.1100 -0.3440
  256SOD    SOD22384   6.050   2.484  11.339  0.2289  0.0013 -0.1589
  257SOD    SOD22385   4.320   3.878  10.918 -0.2493  0.1035  0.2007
  258SOD    SOD22386   1.910   0.978   5.727  0.1195  0.3131 -0.1008
  259SOD    SOD22387   4.192   0.147  11.317 -0.4610  0.0673 -0.1452
  260SOD    SOD22388   5.593   4.412   4.155 -0.0306  0.3486  0.0549
  261SOD    SOD22389   3.591   2.512   6.098 -0.1108 -0.3124  0.1030
  262SOD    SOD22390   6.652   6.023   3.635  0.2774 -0.3352 -0.0161
  263SOD    SOD22391   4.711   5.159  11.147  0.4980 -0.3365 -0.0770
  264SOD    SOD22392   3.710   2.539   3.135 -0.0984 -0.4872 -0.2699
  265SOD    SOD22393   1.261   4.670   4.632 -0.7228 -0.2251  0.1563
  266CLA    CLA22394   4.152   2.856   4.908 -0.5431 -0.2890 -0.0803
  267CLA    CLA22395   1.924   5.344  11.251 -0.1509 -0.3056 -0.5256
  268CLA    CLA22396   3.415   4.832  14.957 -0.2905 -0.0457  0.3184
  269CLA    CLA22397   5.425   1.807   3.347 -0.0041 -0.5245  0.1554
  270CLA    CLA22398   0.837   5.269   1.600 -0.0536 -0.2920 -0.4346
  271CLA    CLA22399   5.590   1.948   3.752 -0.2021  0.4427  0.2021
  272CLA    CLA22400   1.987   5.173  13.634  0.2505  0.1692 -0.1889
  273CLA    CLA22401   3.670   4.021  14.196  0.5419 -0.4702 -0.1935
  274CLA    CLA22402   1.265   6.663  14.265 -0.2619 -0.3257  0.5834
  275CLA    CLA22403   5.299   5.677   5.241 -0.1992  0.4067  0.2488
  276CLA    CLA22404   2.340   1.477  14.355 -0.2056  0.1727  0.1757
  277CLA    CLA22405   2.965   1.128   3.274  0.4097 -0.3303  0.0331
  278CLA    CLA22406   2.029   2.947   0.201 -0.4624  0.1104  0.0154
  279CLA    CLA22407   2.822   2.877   2.347  0.0156  0.5221  0.3125
  280CLA    CLA22408   0.315   5.303   1.392  0.2252 -0.4782  0.0443
  281CLA    CLA22409   1.525   4.330  12.817 -0.1097  0.3257  0.1423
  282CLA    CLA22410   1.937   2.247  14.564  0.1390  0.1748  0.0717
  283CLA    CLA22411   5.712   1.984  14.339 -0.0671  0.0760  0.2895
  284CLA    CLA22412   6.091   3.947   4.428  0.7463 -0.0388 -0.1596
  285CLA    CLA22413   4.217   6.290  11.520  0.2616  0.3862  0.1061
  286CLA    CLA22414   2.828   6.321  14.705 -0.1869 -0.3005 -0.2860
  287CLA    CLA22415   0.106   5.188  16.868 -0.0871  0.0334 -0.1967
  288CLA    CLA22416   4.959   5.376  15.738 -0.0704 -0.1115 -0.1178
  289CLA    CLA22417   0.756   3.786   4.637 -0.0213 -0.0127  0.3359
  290CLA    CLA22418   0.838   6.573  11.871  0.1411  0.5107  0.2187
  291CLA    CLA22419   4.541   6.141   4.107  0.1318 -0.1449 -0.1727
  292CLA    CLA22420   4.954   0.114   3.935  0.2768  0.1804  0.1760
  293CLA    CLA22421   0.221   3.268   3.917 -0.2858  0.4090  0.0825
  294CLA    CLA22422   1.028   1.987  13.910  0.2459  0.0236  0.3661
  295CLA    CLA22423   2.850   0.056   5.453  0.0443 -0.1267  0.2942
  296CLA    CLA22424   0.152   1.600  11.945  0.1721 -0.0381 -0.0399
  297CLA    CLA22425   2.394   6.304  12.491  0.1823  0.0384  0.0763
  298CLA    CLA22426   4.680   2.684   1.594  0.5052  0.1178  0.2267
  299CLA    CLA22427   4.734   4.080   1.136  0.4650  0.0190  0.3266
  300CLA    CLA22428   5.604   4.575  12.372  0.0907  0.0722  0.0097
  301CLA    CLA22429   1.403   5.695   1.994  0.1856  0.1848  0.0241
  302CLA    CLA22430   4.996   6.197   1.198  0.3471  0.0695  0.0386
  303CLA    CLA22431   5.052   2.312  12.312  0.2254 -0.0841 -0.2467
  304CLA    CLA22432   4.855   4.099  12.819  0.1853 -0.1486  0.2818
  305CLA    CLA22433   4.301   5.172  15.962  0.2043  0.1527  0.2179
  306CLA    CLA22434   3.285   5.461  12.910  0.2356 -0.0694 -0.4861
  307CLA    CLA22435   0.144   3.146  11.698  0.0803  0.2411 -0.1195
  308CLA    CLA22436   4.356   0.875  12.246  0.3546 -0.1780  0.2046
  309CLA    CLA22437   0.721   4.911  14.341  0.4061  0.3156 -0.0341
  310CLA    CLA22438   0.890   5.852   4.573 -0.0328  0.3014  0.3320
  311CLA    CLA22439   1.217   4.683  16.827 -0.4409 -0.1971  0.0502
  312CLA    CLA22440   6.512   1.239   2.946  0.1849  0.0381 -0.4799
  313CLA    CLA22441   5.208   0.503   2.088 -0.0159  0.2487  0.4134
  314CLA    CLA22442   5.570   0.216  11.837 -0.0164 -0.2905  0.2482
  315CLA    CLA22443   1.312   6.816  15.233 -0.0886  0.2179 -0.3106
  316CLA    CLA22444   6.130   6.439  16.821  0.1348 -0.0167 -0.0071
  317CLA    CLA22445   6.489   2.921  11.894  0.0109 -0.4218  0.3850
  318CLA    CLA22446   1.433   1.326  12.832 -0.0469 -0.0528  0.1422
  319TIP3   OH222447   3.855   5.452  14.619  0.0277 -0.7404 -0.4141
  319TIP3    H122448   3.857   5.360  14.594  1.5662 -0.1043 -2.8995
  319TIP3    H222449   3.828   5.498  14.540 -0.6103  0.9987  0.7514
  320TIP3   OH222450   1.905   0.548   5.777  0.0208  0.1602  0.1766
  320TIP3    H122451   1.936   0.458   5.770 -0.4588 -0.0571  0.8019
  320TIP3    H222452   1.928   0.575   5.866  1.3331  1.1059 -0.4077
  321TIP3   OH222453   0.299   3.232   4.945 -0.2232 -0.0935  0.1178
  321TIP3    H122454   0.297   3.249   5.039 -0.3554 -1.3695  0.3613
  321TIP3    H222455   0.368   3.289   4.912 -1.1550  1.4590  0.7403
  322TIP3   OH222456   4.832   1.828   5.932  0.3770  0.0992 -0.3522
  322TIP3    H122457   4.914   1.871   5.908  0.3277  0.1979 -0.3413
  322TIP3    H222458   4.773   1.845   5.858  0.2017  0.4638 -0.1292
  323TIP3   OH222459   5.474   3.580  14.772  0.1207 -0.0353  0.0820
  323TIP3    H122460   5.418   3.537  14.836  0.5456  0.5155  0.8368
  323TIP3    H222461   5.413   3.632  14.719 -0.5108 -2.1170 -1.3739
  324TIP3   OH222462   6.404   2.481  13.337  0.0042  0.0189 -0.1313
  324TIP3    H122463   6.377   2.461  13.247  3.3119 -0.8642 -1.0930
  324TIP3    H222464   6.441   2.569  13.332 -0.0063  0.0586  0.4026
  325TIP3   OH222465   5.356   5.730  16.282  0.0377 -0.2552 -0.5103
  325TIP3    H122466   5.318   5.645  16.263 -0.9079  0.2879 -1.1437
  325TIP3    H222467   5.304   5.792  16.231  1.2631  0.6150 -0.7608
  326TIP3   OH222468   2.008   1.188  15.237  0.3062  0.1285 -0.1755
  326TIP3    H122469   1.980   1.181  15.329 -2.2609 -1.7884 -0.9843
  326TIP3    H222470   2.071   1.260  15.237 -1.7754  2.1918  2.5888
  327TIP3   OH222471   4.810   2.895   6.423  0.1765 -0.5204 -0.0211
  327TIP3    H122472   4.788   2.843   6.500  1.0330 -0.6373  0.1617
  327TIP3    H222473   4.906   2.895   6.422  0.2054 -2.0239 -2.1050
  328TIP3   OH222474   4.559   3.333  11.943  0.1630  0.6224  0.1240
  328TIP3    H122475   4.652   3.352  11.955  0.0462  1.7861 -0.7321
  328TIP3    H222476   4.557   3.244  11.909  0.8275 -0.2525  2.2015
  329TIP3   OH222477   1.526   4.332  15.121  0.5548 -0.0203 -0.4097
  329TIP3    H122478   1.590   4.364  15.058  0.0777  2.4494  0.2434
  329TIP3    H222479   1.541   4.384  15.200 -0.4486 -1.3220  0.6859
  330TIP3   OH222480   4.968   5.390   4.318 -0.2259 -0.0189  0.1187
  330TIP3    H122481   4.977   5.433   4.403 -2.2411 -0.8189  0.7998
  330TIP3    H222482   4.936   5.459   4.260  2.2401  0.8278 -0.3678
  331TIP3   OH222483   6.617   3.484   5.235 -0.3716  0.3602  0.2809
  331TIP3    H122484   6.534   3.437   5.246 -0.9753  1.3868  0.1774
  331TIP3    H222485   6.644   3.506   5.324 -1.4878  2.1678  0.2325
  332TIP3   OH222486   5.835   5.816  15.200  0.2749 -0.0387 -0.6938
  332TIP3    H122487   5.851   5.801  15.294 -1.4892 -0.9020 -0.4849
  332TIP3    H222488   5.745   5.846  15.196  0.2423 -0.2663 -2.1440
  333TIP3   OH222489   2.930   2.754   1.064  0.2594  0.0080  0.6754
  333TIP3    H122490   2.938   2.832   1.010  0.7242 -0.1423  0.5138
  333TIP3    H222491   2.990   2.769   1.138  0.5760 -0.3109  0.4913
  334TIP3   OH222492   4.281   3.352  13.528 -0.4693  0.3223  0.0372
  334TIP3    H122493   4.335   3.377  13.453 -0.4365  0.2350  0.0308
  334TIP3    H222494   4.335   3.372  13.604 -0.7968  1.1142  0.0701
  335TIP3   OH222495   4.778   0.282  11.609 -0.5848  0.0418 -0.3705
  335TIP3    H122496   4.704   0.223  11.595 -1.5045  1.0433  0.0568
  335TIP3    H222497   4.845   0.228  11.651  0.1753 -1.6724 -3.4935
  336TIP3   OH222498   6.603   1.053  13.526  0.2948  0.2949 -0.2052
  336TIP3    H122499   6.628   1.091  13.610 -0.2041 -1.1003  0.5851
  336TIP3    H222500   6.559   1.125  13.480 -0.9111  0.6271  1.3767
  337TIP3   OH222501   1.215   5.524   4.167 -0.4407 -0.1527 -0.1859
  337TIP3    H122502   1.157   5.600   4.166  0.3954  0.5688  1.5745
  337TIP3    H222503   1.303   5.560   4.159 -0.0280 -0.9195  0.6134
  338TIP3   OH222504   5.201   2.315  15.320 -0.5386  0.4852 -0.1575
  338TIP3    H122505   5.243   2.390  15.278  0.0174 -0.0959 -0.6760
  338TIP3    H222506   5.161   2.351  15.399 -2.1325  1.7311 -1.4510
  339TIP3   OH222507   3.135   0.191   2.690 -0.1338  0.8690 -0.6410
  339TIP3    H122508   3.109   0.223   2.776  0.8115  0.7429 -0.2957
  339TIP3    H222509   3.072   0.122   2.670 -0.4447  0.9970 -0.1166
  340TIP3   OH222510   1.832   4.647  13.374 -0.2581 -0.2514  0.1142
  340TIP3    H122511   1.744   4.636  13.409 -0.3450  1.3083  0.4748
  340TIP3    H222512   1.866   4.724  13.419  2.0881 -1.9649  1.4971
  341TIP3   OH222513   5.017   4.670   0.972  0.3001 -0.1808 -0.4709
  341TIP3    H122514   5.104   4.690   0.937  0.7563 -0.5888  0.3880
  341TIP3    H222515   4.961   4.742   0.942  0.7530 -0.3070 -1.6719
  342TIP3   OH222516   5.143   6.104  15.870 -0.4584  0.3551  0.5411
  342TIP3    H122517   5.107   6.035  15.813  2.9899 -1.4690  0.2673
  342TIP3    H222518   5.124   6.185  15.824 -2.0457 -0.6591 -0.7115
  343TIP3   OH222519   4.089   4.850   3.503 -0.4185  0.2452  0.4858
  343TIP3    H122520   4.122   4.932   3.540 -1.4281 -0.0673  2.1702
  343TIP3    H222521   4.096   4.787   3.574  0.2301 -1.1262 -0.7605
  344TIP3   OH222522   2.192   4.925   1.996 -0.0467  0.0252 -0.5246
  344TIP3    H122523   2.099   4.906   1.979 -0.0709 -0.6619  0.3145
  344TIP3    H222524   2.220   4.976   1.920 -0.8752 -0.5596 -1.2461
  345TIP3   OH222525   5.971   0.372  14.568 -0.3460  0.4421 -0.6094
  345TIP3    H122526   5.962   0.424  14.488 -1.3985 -0.3993 -1.0593
  345TIP3    H222527   5.884   0.335  14.583  0.3653 -1.1940 -0.3114
  346TIP3   OH222528   4.633   0.762  13.109 -0.8386  0.1094 -0.5216
  346TIP3    H122529   4.632   0.684  13.164 -0.1788 -1.1052 -2.1582
  346TIP3    H222530   4.647   0.835  13.170  1.0999 -1.2857  0.8098
  347TIP3   OH222531   0.403   4.147   1.987 -0.0616  1.0944  0.1942
  347TIP3    H122532   0.450   4.080   1.936 -0.6667 -1.4420  2.7008
  347TIP3    H222533   0.445   4.229   1.963  1.5404 -0.2916 -2.1978
  348TIP3   OH222534   5.619   5.469   2.653  0.1326  0.3421  0.1753
  348TIP3    H122535   5.584   5.403   2.714  0.2421  0.4197  0.3220
  348TIP3    H222536   5.700   5.498   2.694  0.3210  0.2299 -0.1208
  349TIP3   OH222537   5.637   4.703   3.492  0.7734  0.4904  0.1990
  349TIP3    H122538   5.616   4.796   3.506  0.9680  0.2654  2.4605
  349TIP3    H222539   5.613   4.686   3.401 -1.1193  2.2553  0.2977
  350TIP3   OH222540   2.447   2.314  11.507 -0.3753 -0.3877 -0.1333
  350TIP3    H122541   2.520   2.258  11.534 -1.3959 -0.0318  3.9650
  350TIP3    H222542   2.485   2.402  11.506 -0.5987 -0.2185  1.8631
  351TIP3   OH222543   1.345   3.876  10.404 -0.4469 -0.5038 -0.2495
  351TIP3    H122544   1.369   3.829  10.325 -0.4144 -0.5340 -0.2217
  351TIP3    H222545   1.414   3.855  10.467 -1.1842 -1.5951  0.2287
  352TIP3   OH222546   6.586   3.884   2.101 -0.0049 -0.6933  0.2851
  352TIP3    H122547   6.624   3.796   2.099 -0.2833 -0.8146  0.3394
  352TIP3    H222548   6.536   3.887   2.183  0.3725 -0.3312  0.5091
  353TIP3   OH222549   4.893   2.333   2.708 -0.0001 -0.2034 -0.3320
  353TIP3    H122550   4.936   2.247   2.714  1.2840  0.4370 -0.0313
  353TIP3    H222551   4.802   2.312   2.689  0.3203 -1.6359 -0.4515
  354TIP3   OH222552   3.992   3.631   5.404  0.0367  0.5242  0.0243
  354TIP3    H122553   3.955   3.719   5.395 -1.2403 -0.1869 -4.0350
  354TIP3    H222554   3.919   3.578   5.438  0.2119  0.7011  0.6786
  355TIP3   OH222555   0.542   5.779   4.176 -0.2555  0.5599 -0.1206
  355TIP3    H122556   0.473   5.840   4.201  0.3395  0.4261  1.9680
  355TIP3    H222557   0.623   5.819   4.209  0.0509 -1.7815  2.2284
  356TIP3   OH222558   5.021   3.696   4.519  0.1121 -0.1223  0.1481
  356TIP3    H122559   5.107   3.739   4.517 -0.5983  1.6609  2.9241
  356TIP3    H222560   4.980   3.723   4.437  1.4278  0.7069 -0.2776
  357TIP3   OH222561   5.705   1.872  14.825  0.4670  0.2750 -0.1261
  357TIP3    H122562   5.642   1.938  14.855  1.2799  0.9232  0.2024
  357TIP3    H222563   5.788   1.899  14.865  1.5286  0.9642 -2.6313
  358TIP3   OH222564   5.968   1.005   5.401 -0.1998  0.0375  0.4934
  358TIP3    H122565   5.951   0.972   5.313  0.0678  0.6402  0.2098
  358TIP3    H222566   5.902   1.073   5.415  0.2368  0.4798  0.4501
  359TIP3   OH222567   1.967   3.236   3.383  0.3239 -0.1695 -0.0085
  359TIP3    H122568   2.025   3.203   3.314 -1.0521 -1.5906 -0.5453
  359TIP3    H222569   2.005   3.203   3.464  0.8237 -0.2222 -0.2579
  360TIP3   OH222570   3.886   3.231   1.724  0.0151  0.3438 -0.1469
  360TIP3    H122571   3.950   3.193   1.664 -1.3818 -1.6165 -0.5312
  360TIP3    H222572   3.832   3.287   1.668 -1.4418 -1.6768 -0.8884
  361TIP3   OH222573   5.477   6.635  13.160  0.3093  0.2727 -0.5053
  361TIP3    H122574   5.523   6.665  13.081  1.8008  0.6596  0.4744
  361TIP3    H222575   5.393   6.603  13.127  0.5373  1.2215 -2.1536
  362TIP3   OH222576   2.106   0.669   1.392 -0.0080  0.7603  0.4706
  362TIP3    H122577   2.162   0.679   1.468 -0.4394  0.8844  0.7783
  362TIP3    H222578   2.018   0.687   1.424 -0.2483  0.3977  0.0375
  363TIP3   OH222579   6.699   1.655  12.051 -0.6285  0.2030  0.2482
  363TIP3    H122580   6.665   1.707  11.978 -0.2098  0.1183 -0.0064
  363TIP3    H222581   6.788   1.633  12.026 -0.6079 -0.1486  0.6181
  364TIP3   OH222582   0.794   3.292   0.590 -0.4207 -1.1047  0.4475
  364TIP3    H122583   0.819   3.377   0.554 -3.0225 -0.4489  0.0462
  364TIP3    H222584   0.746   3.312   0.670 -0.9670 -2.1900  0.4156
  365TIP3   OH222585   2.677   4.852   2.062 -0.2809 -0.4970  0.0477
  365TIP3    H122586   2.759   4.843   2.012  0.6071  2.2148  0.7995
  365TIP3    H222587   2.680   4.781   2.126  0.0684 -2.1462 -1.7258
  366TIP3   OH222588   0.013   0.635   4.127 -0.6873  0.2161  0.1084
  366TIP3    H122589  -0.068   0.594   4.097 -0.1340 -1.1382  0.4203
  366TIP3    H222590  -0.014   0.723   4.154 -1.6486  0.6434 -1.9720
  367TIP3   OH222591   0.855   4.462   4.822  0.6902  0.5817  0.0124
  367TIP3    H122592   0.762   4.483   4.821  0.7426  0.8918  1.1245
  367TIP3    H222593   0.873   4.433   4.911  1.4707 -0.3830 -0.4392
  368TIP3   OH222594   1.292   0.910  11.059 -0.8311 -0.0504  0.4353
  368TIP3    H122595   1.267   0.953  10.977 -2.5605  2.0814  1.9832
  368TIP3    H222596   1.365   0.853  11.034 -1.3170  0.4751 -2.5758
  369TIP3   OH222597   1.822   2.776   1.999  0.2331 -0.2153 -0.4345
  369TIP3    H122598   1.797   2.776   2.091  0.3250  2.3585 -0.3419
  369TIP3    H222599   1.741   2.794   1.952  0.0317 -2.3016 -0.9710
  370TIP3   OH222600   4.335   5.280  14.572 -0.7516  0.4009  0.1698
  370TIP3    H122601   4.282   5.203  14.553 -0.3858 -0.0302  0.8502
  370TIP3    H222602   4.363   5.268  14.663 -0.4117  1.1682  0.1743
  371TIP3   OH222603   2.151   2.842   2.074  0.2960  0.8275  0.4853
  371TIP3    H122604   2.122   2.873   1.988  2.5855  1.0467 -0.2905
  371TIP3    H222605   2.233   2.796   2.056  0.1050 -0.3934  2.4047
  372TIP3   OH222606   1.615   4.370   4.006 -0.4349  0.1582 -0.1303
  372TIP3    H122607   1.537   4.333   4.048 -0.8800 -0.8562 -1.7672
  372TIP3    H222608   1.667   4.404   4.079 -2.2181  0.5297  1.0366
  373TIP3   OH222609   2.764   6.698  13.053 -0.2838 -0.0548  0.1230
  373TIP3    H122610   2.737   6.615  13.014  0.0721 -0.6191  1.0346
  373TIP3    H222611   2.837   6.675  13.110 -1.1236  0.6286  1.5377
  374TIP3   OH222612   0.060   4.828   1.498 -0.0506  0.1973  0.1184
  374TIP3    H122613   0.091   4.738   1.505  1.3027  0.3887 -2.3936
  374TIP3    H222614   0.138   4.881   1.514 -0.8618  0.9715  1.7060
  375TIP3   OH222615   1.328   4.648  12.593 -0.1668  0.8378  0.1112
  375TIP3    H122616   1.329   4.704  12.671  1.2419 -0.2655  0.9476
  375TIP3    H222617   1.346   4.560  12.627  1.5894  0.4901 -1.5440
  376TIP3   OH222618   3.444   3.289   3.747  0.4004 -0.0735 -0.4220
  376TIP3    H122619   3.384   3.214   3.744 -2.7278  2.1868  0.3757
  376TIP3    H222620   3.451   3.317   3.656  0.5268 -0.5681 -0.5659
  377TIP3   OH222621   6.818   2.266  16.341 -0.2389 -0.5318  0.2643
  377TIP3    H122622   6.784   2.306  16.261  2.1902  2.2245  0.4130
  377TIP3    H222623   6.787   2.324  16.411  0.6505 -0.7843  0.8808
  378TIP3   OH222624   5.264   4.063  15.919  0.0661  0.6397  0.5672
  378TIP3    H122625   5.189   4.112  15.886 -0.6857 -1.5664 -1.2878
  378TIP3    H222626   5.332   4.075  15.852 -0.6540 -1.9319 -0.7622
  379TIP3   OH222627   5.724   0.836  13.314  0.0146  0.1078 -0.2292
  379TIP3    H122628   5.702   0.837  13.407 -2.1667  0.7440 -0.7144
  379TIP3    H222629   5.700   0.748  13.284  2.4523 -0.7545  0.1383
  380TIP3   OH222630   6.706   0.916   6.619 -0.0054  0.3487  0.1175
  380TIP3    H122631   6.631   0.959   6.577 -1.6411 -0.3201  2.2081
  380TIP3    H222632   6.778   0.977   6.606 -1.1080  1.4607 -1.1608
  381TIP3   OH222633   1.991   3.318   2.634  0.4106  0.3701 -0.0129
  381TIP3    H122634   1.975   3.230   2.601  0.1047  1.2244 -2.3056
  381TIP3    H222635   2.085   3.332   2.622  0.4210  0.4460  0.1477
  382TIP3   OH222636   6.498   2.529  12.301 -0.1434 -0.5197 -0.4494
  382TIP3    H122637   6.430   2.472  12.264 -0.1689  0.2548 -1.6462
  382TIP3    H222638   6.491   2.610  12.251  0.5742  0.1761  0.5400
  383TIP3   OH222639   2.504   6.359   2.261 -0.1691  0.7393 -0.1721
  383TIP3    H122640   2.444   6.322   2.196 -0.3241  2.2085 -0.8851
  383TIP3    H222641   2.581   6.301   2.258 -1.5427 -1.2566  0.8491
  384TIP3   OH222642   1.630   3.495  16.625 -0.2419 -0.2034 -0.4388
  384TIP3    H122643   1.697   3.506  16.692  0.2193 -1.4827 -0.6673
  384TIP3    H222644   1.594   3.583  16.611  1.5505  0.5450 -0.4890
  385TIP3   OH222645   2.717   4.368  13.484 -0.3414 -0.4331 -0.2437
  385TIP3    H122646   2.755   4.352  13.397  0.8288  0.4816  0.0788
  385TIP3    H222647   2.684   4.282  13.511  0.5745 -1.0487 -0.9915
  386TIP3   OH222648   3.601   1.987  11.379 -0.4148  0.2683 -0.0742
  386TIP3    H122649   3.643   1.962  11.462 -1.1044 -2.1990 -0.3758
  386TIP3    H222650   3.578   2.079  11.391  0.0067  0.1561  2.2563
  387TIP3   OH222651   3.977   5.441  12.365  0.0540  0.1083  0.1657
  387TIP3    H122652   4.069   5.419  12.349  0.1505  1.0810 -0.7307
  387TIP3    H222653   3.931   5.358  12.353  0.8002 -0.3770  0.5595
  388TIP3   OH222654   2.032   3.937  16.360  0.0232  0.2061  0.1974
  388TIP3    H122655   1.988   3.868  16.311  1.5609  1.1517 -2.7566
  388TIP3    H222656   1.961   3.983  16.406 -1.4180 -1.1992 -0.5319
  389TIP3   OH222657   3.240   5.612   2.461 -0.1451  0.1222  0.0354
  389TIP3    H122658   3.296   5.687   2.478  0.8655 -0.8210  1.0629
  389TIP3    H222659   3.260   5.551   2.532 -2.8134 -0.0764  0.7027
  390TIP3   OH222660   1.159   3.687  13.815 -0.2214  0.2634 -0.0516
  390TIP3    H122661   1.219   3.680  13.889 -1.5693  2.1477  1.2915
  390TIP3    H222662   1.076   3.653  13.848 -0.0967 -1.9934 -1.7818
  391TIP3   OH222663   4.753   2.935   3.946  0.1295 -0.3474  0.0575
  391TIP3    H122664   4.748   2.933   4.041  2.5049  3.1468  0.4309
  391TIP3    H222665   4.803   2.857   3.923  0.8436 -0.4546  1.8336
  392TIP3   OH222666   5.907   2.967  16.377  0.4002 -0.1600  0.5434
  392TIP3    H122667   6.000   2.988  16.382  0.2219  0.5320  1.0953
  392TIP3    H222668   5.863   3.043  16.416 -0.3824 -0.5722  0.4809
  393TIP3   OH222669   6.579   4.634   0.148 -0.2705  0.1048  0.1153
  393TIP3    H122670   6.567   4.728   0.137 -1.5916  0.0693  1.0069
  393TIP3    H222671   6.525   4.595   0.079 -1.3114  0.0023  0.9585
  394TIP3   OH222672   3.147   0.989  10.531  0.1465 -0.0918  0.6780
  394TIP3    H122673   3.119   0.898  10.538 -1.6323  0.3494 -0.1496
  394TIP3    H222674   3.074   1.033  10.487  0.7981  1.8183  1.4221
  395TIP3   OH222675   2.354   0.605  16.765  0.5782  0.0073  0.0111
  395TIP3    H122676   2.377   0.663  16.837 -0.1119  0.7949 -0.3833
  395TIP3    H222677   2.432   0.552  16.751  1.4097  1.1639  0.0779
  396TIP3   OH222678   6.207   6.467   0.428  0.3128  0.0475  0.1750
  396TIP3    H122679   6.241   6.382   0.455  0.9917  0.4700  0.6790
  396TIP3    H222680   6.120   6.449   0.395  0.7349 -0.9606 -0.4319
  397TIP3   OH222681   2.666   0.434   3.298  0.5276  0.2233  0.7328
  397TIP3    H122682   2.610   0.389   3.361 -0.6585 -0.7499 -0.9303
  397TIP3    H222683   2.607   0.494   3.252  1.3551  0.8936  0.5187
  398TIP3   OH222684   2.617   2.875  17.073  0.3468 -0.0991  0.1132
  398TIP3    H122685   2.651   2.803  17.127 -2.1053 -1.3391  0.1236
  398TIP3    H222686   2.588   2.940  17.136  1.0064  0.1782  0.1435
  399TIP3   OH222687   6.101   0.471  16.756  0.0071  0.3324 -0.4117
  399TIP3    H122688   6.129   0.380  16.757 -1.8905 -0.3327  1.7088
  399TIP3    H222689   6.174   0.520  16.794  0.1958 -0.6507  0.5329
  400TIP3   OH222690   1.472   5.012  14.368 -0.1965 -0.0150 -0.1979
  400TIP3    H122691   1.496   4.922  14.346  0.9586  0.3978 -0.7297
  400TIP3    H222692   1.377   5.011  14.372 -0.3223 -0.8362 -2.2055
  401TIP3   OH222693   6.038   1.588   1.713 -0.0041 -0.2816 -0.0759
  401TIP3    H122694   6.059   1.639   1.792  2.2382  0.2961 -0.9733
  401TIP3    H222695   6.042   1.651   1.642 -1.6476 -0.8783 -0.7533
  402TIP3   OH222696   6.791   3.144   4.055  0.2090 -0.2379  0.2216
  402TIP3    H122697   6.860   3.204   4.082 -1.3782  2.0295 -0.4005
  402TIP3    H222698   6.791   3.147   3.959  0.0900 -1.2381  0.1785
  403TIP3   OH222699   0.485   4.668   1.609  0.4840 -0.0279  0.1015
  403TIP3    H122700   0.390   4.678   1.616  0.4427  0.5173 -1.0823
  403TIP3    H222701   0.499   4.573   1.603  0.2121 -0.2796  2.4823
  404TIP3   OH222702   2.378   3.105  13.181 -0.2529  0.3256  0.5581
  404TIP3    H122703   2.444   3.090  13.114 -3.1634 -1.0333 -2.2741
  404TIP3    H222704   2.322   3.173  13.145 -0.5453  1.3693  2.8142
  405TIP3   OH222705   6.365   3.887   6.166 -0.0154 -0.1979  0.5755
  405TIP3    H122706   6.455   3.905   6.140  0.3531  0.2011  2.0191
  405TIP3    H222707   6.365   3.795   6.192 -0.4602 -0.6888 -1.0640
  406TIP3   OH222708   0.830   4.369   0.316 -0.5883 -0.1064 -0.2008
  406TIP3    H122709   0.828   4.377   0.221 -0.5330  0.1924 -0.1772
  406TIP3    H222710   0.923   4.374   0.338 -0.6294  0.2339 -0.0974
  407TIP3   OH222711   1.900   2.416   1.388  0.0615  0.1861  0.0142
  407TIP3    H122712   1.904   2.323   1.408 -0.9004  0.4840  1.7558
  407TIP3    H222713   1.863   2.456   1.466  2.1689  2.2901  0.0464
  408TIP3   OH222714   4.780   6.248  15.056  0.8322 -0.4636  0.4193
  408TIP3    H122715   4.762   6.154  15.046  0.1160 -0.1596 -1.6498
  408TIP3    H222716   4.866   6.261  15.015  2.3632 -0.6299  3.3411
  409TIP3   OH222717   1.413   3.346   5.176 -0.0627  0.6806  0.4257
  409TIP3    H122718   1.324   3.370   5.201  0.2964  1.0172  1.4236
  409TIP3    H222719   1.450   3.425   5.138 -0.5209  0.2430 -0.9907
  410TIP3   OH222720   3.594   2.806  13.907  0.0950 -0.6120 -0.0240
  410TIP3    H122721   3.577   2.713  13.919  1.2264 -0.9048 -0.5662
  410TIP3    H222722   3.676   2.822  13.953  0.0887  0.0518 -0.2264
  411TIP3   OH222723   3.342   1.861  11.800  0.1062  0.1375  0.4401
  411TIP3    H122724   3.260   1.904  11.824 -0.2986 -0.5264  0.2563
  411TIP3    H222725   3.404   1.888  11.868 -0.2905  0.5418  0.6464
  412TIP3   OH222726   2.100   1.832   1.590  0.3618 -0.0206 -0.5219
  412TIP3    H122727   2.076   1.809   1.680 -0.7581 -1.2940 -1.1080
  412TIP3    H222728   2.193   1.810   1.583  0.5939  0.5835  0.4563
  413TIP3   OH222729   2.659   4.079   5.159  0.4642  0.0005 -0.2233
  413TIP3    H122730   2.631   4.041   5.075  1.1511  0.2508 -0.5699
  413TIP3    H222731   2.621   4.021   5.225  0.6758 -0.7343 -0.7302
  414TIP3   OH222732   5.819   0.647   4.728  0.3042 -0.5630  0.3989
  414TIP3    H122733   5.836   0.732   4.769 -1.0235  0.7785 -1.6103
  414TIP3    H222734   5.833   0.583   4.797 -3.0176  1.5771  3.4025
  415TIP3   OH222735   1.138   1.446   2.517  0.4988  0.0172  0.0548
  415TIP3    H122736   1.185   1.527   2.537  2.1420 -1.0684  0.7910
  415TIP3    H222737   1.048   1.462   2.547  1.2892  0.8338  2.1841
  416TIP3   OH222738   4.072   6.782  14.367  0.1402 -0.0047 -0.0710
  416TIP3    H122739   3.988   6.825  14.382  0.6911  1.6477 -1.4081
  416TIP3    H222740   4.074   6.710  14.431 -3.3016 -1.6546 -1.5226
  417TIP3   OH222741   5.392   1.678  16.680 -0.6658  0.9460 -0.3188
  417TIP3    H122742   5.328   1.712  16.617  0.0574  1.2018 -0.9214
  417TIP3    H222743   5.380   1.583  16.675 -0.1465  0.9175 -1.3661
  418TIP3   OH222744   5.445   6.051   4.395 -0.0432 -0.2117 -0.8062
  418TIP3    H122745   5.360   6.012   4.418  0.3200 -0.8036 -0.4586
  418TIP3    H222746   5.508   5.980   4.406  0.8937  0.8681  1.6111
  419TIP3   OH222747   3.313   4.100   2.245 -0.0125  0.0470 -0.4711
  419TIP3    H122748   3.298   4.046   2.323 -0.8842  0.4337 -0.3566
  419TIP3    H222749   3.408   4.110   2.240  0.0121  0.9063  1.1588
  420TIP3   OH222750   1.926   4.017   5.522  0.5603 -0.3668  0.2260
  420TIP3    H122751   1.893   4.047   5.607  1.8534 -0.5149  0.7955
  420TIP3    H222752   1.860   4.048   5.460 -0.6973 -0.7125  1.3113
  421TIP3   OH222753   5.062   6.668   2.169  0.4800  0.0924  0.0683
  421TIP3    H122754   5.083   6.615   2.093  0.8619  0.0102  0.2316
  421TIP3    H222755   5.090   6.615   2.244  0.9528  0.5665  0.2289
  422TIP3   OH222756   6.728   3.611  10.558 -0.5100 -0.1510 -0.3393
  422TIP3    H122757   6.801   3.622  10.498  0.3788 -0.2852  0.6867
  422TIP3    H222758   6.679   3.694  10.552  1.3133  1.0970  1.0252
  423TIP3   OH222759   2.533   1.386   5.465  0.0768  0.0199  0.2048
  423TIP3    H122760   2.594   1.455   5.491  3.4495 -2.2756 -1.0084
  423TIP3    H222761   2.538   1.384   5.370 -3.1092  0.6357 -0.0824
  424TIP3   OH222762   5.283   5.041  16.007 -0.2080 -0.3495  0.2215
  424TIP3    H122763   5.360   5.066  15.957 -0.3117  0.2270  0.3385
  424TIP3    H222764   5.274   5.110  16.073 -0.9515 -0.2848  0.0665
  425TIP3   OH222765   4.289   5.324  11.581  0.6848  0.1489  0.0140
  425TIP3    H122766   4.212   5.270  11.596  0.1358  0.5709 -1.1788
  425TIP3    H222767   4.354   5.264  11.544 -0.1915  0.4177 -2.0654
  426TIP3   OH222768   0.659   5.312   2.991 -0.3681 -0.0416 -0.5963
  426TIP3    H122769   0.700   5.388   2.950  0.6382 -0.7952 -1.0338
  426TIP3    H222770   0.650   5.336   3.083  0.6951  0.3162 -0.5713
  427TIP3   OH222771   0.088   2.314   0.215  0.3024 -0.2850  0.3493
  427TIP3    H122772   0.066   2.279   0.128  1.7333  1.0062 -0.5876
  427TIP3    H222773   0.004   2.316   0.261 -1.2293  2.1874 -2.1921
  428TIP3   OH222774   1.037   0.640   6.218  0.0991 -0.2044  0.1458
  428TIP3    H122775   1.088   0.676   6.290 -1.0191  0.8768  0.4342
  428TIP3    H222776   1.077   0.555   6.200  0.4043 -0.5011  2.0322
  429TIP3   OH222777   0.038   3.857  14.167  0.0329  0.3111 -0.1500
  429TIP3    H122778   0.041   3.913  14.090 -0.7640  1.4492  0.6269
  429TIP3    H222779   0.104   3.894  14.226  0.3049 -0.2715 -0.0731
  430TIP3   OH222780   0.673   0.979   0.520  0.2898 -0.1801  0.0515
  430TIP3    H122781   0.697   0.988   0.428 -4.1305  3.4300 -1.1303
  430TIP3    H222782   0.642   0.888   0.528  0.6778 -0.5517 -2.0521
  431TIP3   OH222783   2.686   4.667  12.015 -0.0510  0.4322 -0.2729
  431TIP3    H122784   2.659   4.575  12.021 -1.9586  1.0221  0.8831
  431TIP3    H222785   2.754   4.667  11.947  0.3126 -1.8827 -0.0037
  432TIP3   OH222786   5.623   3.657   5.847  0.0646 -0.2695  0.2354
  432TIP3    H122787   5.633   3.669   5.941 -1.1077  0.2026  0.3164
  432TIP3    H222788   5.630   3.745   5.810 -0.1511 -0.3684 -0.0461
  433TIP3   OH222789   6.238   2.775  13.134  0.1348  0.1860  0.3666
  433TIP3    H122790   6.301   2.848  13.127 -0.3262  0.6002  0.4684
  433TIP3    H222791   6.195   2.773  13.049 -0.2599  0.4131  0.5574
  434TIP3   OH222792   5.785   1.206   5.458 -0.6439 -0.9135 -0.4995
  434TIP3    H122793   5.818   1.280   5.509  1.0175 -0.4975 -2.0782
  434TIP3    H222794   5.690   1.209   5.471 -0.5317  0.8781  0.2757
  435TIP3   OH222795   1.709   0.039   2.057 -0.2381 -0.1235 -0.0287
  435TIP3    H122796   1.771   0.001   1.995  2.7130  1.0201  2.0011
  435TIP3    H222797   1.687  -0.033   2.116  2.1922  0.2204  1.4260
  436TIP3   OH222798   3.757   2.341  15.843  0.0102 -0.1347 -0.5443
  436TIP3    H122799   3.729   2.266  15.790 -0.4909  0.6258 -1.3931
  436TIP3    H222800   3.679   2.365  15.893  0.6161 -1.1558  0.9688
  437TIP3   OH222801   3.529   4.558   4.143 -0.5937  0.2142  0.3296
  437TIP3    H122802   3.565   4.476   4.174 -2.3261 -1.5185 -1.8530
  437TIP3    H222803   3.448   4.533   4.098 -2.5088  3.4009  1.6647
  438TIP3   OH222804   1.620   4.439   0.957  0.1331  0.4950 -0.2285
  438TIP3    H122805   1.527   4.445   0.933 -0.2183 -0.4469  0.7710
  438TIP3    H222806   1.645   4.349   0.935  0.6162  0.5385  0.1271
  439TIP3   OH222807   5.252   6.768   5.934  0.7947  0.2385  0.2470
  439TIP3    H122808   5.217   6.842   5.984  0.6800 -0.2134  0.8511
  439TIP3    H222809   5.344   6.791   5.919  0.5607  0.8731 -0.2900
  440TIP3   OH222810   1.331   2.712   5.482  0.3115 -0.0310 -0.1329
  440TIP3    H122811   1.316   2.716   5.577 -1.1452  2.4478 -0.3740
  440TIP3    H222812   1.277   2.639   5.452  0.7780 -0.8390  0.9299
  441TIP3   OH222813   2.412   5.886   5.474 -0.2980 -0.3518 -0.6687
  441TIP3    H122814   2.426   5.871   5.381  2.1117 -0.6528 -0.3287
  441TIP3    H222815   2.463   5.818   5.518 -0.0193  0.7695  0.8574
  442TIP3   OH222816   5.626   0.341   1.380  0.4201 -0.0326  0.2368
  442TIP3    H122817   5.573   0.274   1.424 -0.5463  0.0842 -0.6935
  442TIP3    H222818   5.678   0.380   1.450 -0.5411 -0.3343  1.1519
  443TIP3   OH222819   5.520   5.075   1.292  0.2359 -0.0085  1.1463
  443TIP3    H122820   5.481   5.007   1.347  1.4568 -1.3476  0.4249
  443TIP3    H222821   5.446   5.109   1.240 -0.2776 -1.3131  0.9945
  444TIP3   OH222822   1.306   4.672  11.351  0.3065 -0.4063 -0.0365
  444TIP3    H122823   1.270   4.698  11.267 -0.8652 -2.3338 -0.1866
  444TIP3    H222824   1.234   4.628  11.396  0.7558  0.9966  2.2017
  445TIP3   OH222825   3.305   4.688  11.045  0.2299  0.2578 -0.9973
  445TIP3    H122826   3.219   4.645  11.047  1.1977 -1.7426  0.0952
  445TIP3    H222827   3.305   4.737  10.962 -1.5389 -0.5975 -1.5565
  446TIP3   OH222828   3.509   2.318   6.210  0.2517  0.0549  0.0097
  446TIP3    H122829   3.457   2.245   6.176 -0.4198  0.1774  0.7353
  446TIP3    H222830   3.578   2.276   6.262 -0.1367 -0.0798  0.4312
  447TIP3   OH222831   0.042   3.700  13.029 -0.4224  0.1926  0.1047
  447TIP3    H122832   0.005   3.615  13.054 -1.5355  0.7024  0.2379
  447TIP3    H222833  -0.010   3.727  12.953  0.4470  0.4064 -0.4295
  448TIP3   OH222834   4.698   0.663  13.931  0.2356  0.2723 -0.3250
  448TIP3    H122835   4.745   0.614  13.863 -0.0410  2.0383 -1.8580
  448TIP3    H222836   4.756   0.736  13.952 -0.1251  0.2914  0.6490
  449TIP3   OH222837   1.232   3.221  15.600 -0.5729  0.0525  0.5039
  449TIP3    H122838   1.295   3.148  15.604 -0.1051  0.4886  2.3725
  449TIP3    H222839   1.267   3.278  15.532 -1.9161 -2.2234 -2.3203
  450TIP3   OH222840   3.636   3.567  14.325 -0.1568  0.3171  0.3598
  450TIP3    H122841   3.708   3.624  14.350 -0.8559  0.9932  0.8863
  450TIP3    H222842   3.672   3.511  14.257  0.6800  1.0739  0.1610
  451TIP3   OH222843   2.892   0.659   1.932  0.3229  0.1725  0.4639
  451TIP3    H122844   2.930   0.584   1.977 -2.1732 -0.6783  1.2747
  451TIP3    H222845   2.848   0.709   2.000  0.2647  1.3219 -0.3751
  452TIP3   OH222846   4.716   5.476   4.935  0.6247  0.1216  0.6487
  452TIP3    H122847   4.714   5.561   4.891 -0.5652 -1.1890 -2.0325
  452TIP3    H222848   4.800   5.475   4.981  1.7356  1.8244 -1.1716
  453TIP3   OH222849   2.172   4.085  11.453  0.0452 -0.3787  0.0551
  453TIP3    H122850   2.258   4.125  11.465  0.1052 -0.5604  0.2372
  453TIP3    H222851   2.124   4.147  11.399  0.3911 -0.4107 -0.2971
  454TIP3   OH222852   5.152   0.195   5.671  0.1443 -0.4568  0.8556
  454TIP3    H122853   5.073   0.167   5.625  0.9147 -0.7509 -0.3196
  454TIP3    H222854   5.119   0.249   5.743 -1.0725  0.9962 -0.6933
  455TIP3   OH222855   3.806   2.668   6.434  0.3438 -0.5688 -0.1160
  455TIP3    H122856   3.888   2.624   6.411 -0.8487 -2.4735 -1.0363
  455TIP3    H222857   3.820   2.759   6.410  2.0275 -0.9236 -0.6570
  456TIP3   OH222858   5.751   1.015   5.773  0.7342  0.4663 -0.3052
  456TIP3    H122859   5.751   0.923   5.800  1.1505  0.5987  0.1571
  456TIP3    H222860   5.843   1.040   5.773  0.8615  0.2480 -2.6673
  457TIP3   OH222861   0.226   0.027  14.546 -0.9569  0.4298  0.3288
  457TIP3    H122862   0.322   0.026  14.537 -0.9972  1.0997 -0.2180
  457TIP3    H222863   0.203   0.120  14.545 -1.6143  0.2690  0.4979
  458TIP3   OH222864   3.719   4.465   2.269 -0.2707  0.2694  0.0240
  458TIP3    H122865   3.676   4.547   2.247 -0.4796  0.2286  0.2703
  458TIP3    H222866   3.675   4.436   2.350 -0.7653 -0.5042 -0.5061
  459TIP3   OH222867   6.305   0.370   4.116 -0.2616  0.2884 -0.1228
  459TIP3    H122868   6.265   0.408   4.038 -0.9480 -1.5181 -0.6866
  459TIP3    H222869   6.242   0.306   4.148  1.0918 -0.8272  0.4331
  460TIP3   OH222870   0.864   3.494   3.596  0.1685 -0.3350 -0.6286
  460TIP3    H122871   0.889   3.507   3.504  1.6145  2.3645  0.0460
  460TIP3    H222872   0.918   3.420   3.625  1.3109  0.1487 -1.4269
  461TIP3   OH222873   4.011   4.167  11.984 -0.0969 -0.2301  0.5425
  461TIP3    H122874   3.975   4.198  11.901  2.2808 -0.2001 -0.5626
  461TIP3    H222875   4.016   4.072  11.974 -0.8366 -0.3395  1.1251
  462TIP3   OH222876   2.566   1.444  12.487 -0.1347  0.4654 -0.4815
  462TIP3    H122877   2.551   1.364  12.436 -1.5148  0.5142 -0.1893
  462TIP3    H222878   2.563   1.415  12.578 -0.5736  0.8325 -0.3765
  463TIP3   OH222879   2.247   4.331   2.900  0.0224 -0.1598 -0.4781
  463TIP3    H122880   2.183   4.400   2.881  2.3359  3.2940  2.8016
  463TIP3    H222881   2.321   4.352   2.843  0.7686  0.2054  0.5943
  464TIP3   OH222882   2.524   5.285  16.382  0.8954 -0.1554 -0.7963
  464TIP3    H122883   2.608   5.330  16.383  0.2195  1.1357  0.2948
  464TIP3    H222884   2.479   5.320  16.306  0.5482  0.6907 -0.2066
  465TIP3   OH222885   3.414   6.587  12.864 -0.5918  0.0194  0.0019
  465TIP3    H122886   3.372   6.566  12.947 -0.4966  0.0970  0.0707
  465TIP3    H222887   3.353   6.644  12.819  0.0585  1.3280  0.7222
  466TIP3   OH222888   5.514   6.820  16.665 -0.5278  0.0981 -0.1750
  466TIP3    H122889   5.498   6.854  16.577 -1.3310 -0.1414 -0.1233
  466TIP3    H222890   5.604   6.786  16.662 -0.0176  1.4094 -0.4777
  467TIP3   OH222891   1.355   5.964   5.825 -0.2417 -0.4944  0.2829
  467TIP3    H122892   1.404   5.887   5.852 -0.4709 -0.1996  1.6076
  467TIP3    H222893   1.420   6.021   5.785  0.3959 -0.3961  1.4117
  468TIP3   OH222894   5.672   5.840  11.216 -0.3679  0.5001 -0.3064
  468TIP3    H122895   5.686   5.933  11.197  1.6129 -0.0628 -1.8842
  468TIP3    H222896   5.739   5.818  11.281 -1.9360  0.5035  1.4149
  469TIP3   OH222897   3.994   6.031  16.240  0.4221 -0.2279 -0.0054
  469TIP3    H122898   4.042   6.000  16.164 -0.1243  0.5782 -0.6951
  469TIP3    H222899   4.040   6.110  16.268  0.2868 -0.2056  0.1613
  470TIP3   OH222900   4.494   6.683   2.817 -0.5425 -0.7360 -0.0950
  470TIP3    H122901   4.507   6.708   2.726  2.1932 -1.0428  0.1209
  470TIP3    H222902   4.461   6.593   2.812 -1.4017 -0.3998 -0.7626
  471TIP3   OH222903   3.424   5.573   0.140  0.3758  0.1356 -0.0246
  471TIP3    H122904   3.366   5.635   0.185 -0.6614 -0.0616 -1.0411
  471TIP3    H222905   3.453   5.620   0.063  0.8318 -0.1020  0.0016
  472TIP3   OH222906   6.633   3.510   1.311  0.4034 -0.1146 -0.0524
  472TIP3    H122907   6.546   3.544   1.289  0.8695  1.0722 -0.1129
  472TIP3    H222908   6.633   3.420   1.277 -1.5364 -0.9018  1.8005
  473TIP3   OH222909   3.882   2.442   2.191 -0.1880 -0.1603 -0.8504
  473TIP3    H122910   3.885   2.536   2.176  1.8398 -0.2784 -1.4913
  473TIP3    H222911   3.847   2.433   2.280 -0.2150  1.2034 -0.7016
  474TIP3   OH222912   0.831   2.043   3.640 -0.4910  0.0369 -0.0416
  474TIP3    H122913   0.802   2.134   3.648 -0.2877  0.2825 -1.7163
  474TIP3    H222914   0.752   1.995   3.614 -0.8416 -0.4843  1.8453
  475TIP3   OH222915   0.492   3.676  16.663  0.3166  0.3374 -0.6278
  475TIP3    H122916   0.540   3.595  16.676 -0.4882 -0.4446 -2.2621
  475TIP3    H222917   0.437   3.660  16.587 -0.2915  2.2288 -0.6493
  476TIP3   OH222918   2.421   3.904   6.106 -0.3605 -0.4193  0.0027
  476TIP3    H122919   2.330   3.887   6.129 -0.3681 -0.0910  0.2187
  476TIP3    H222920   2.469   3.898   6.189 -0.1188 -0.9953 -0.1687
  477TIP3   OH222921   5.392   0.988  15.604 -0.6867  0.0890  0.0886
  477TIP3    H122922   5.438   0.926  15.547 -0.1250 -0.1395  0.7735
  477TIP3    H222923   5.423   1.074  15.575  1.5539 -0.1160  1.6429
  478TIP3   OH222924   0.363   4.601   3.188  0.4699  0.4299 -0.0651
  478TIP3    H122925   0.380   4.693   3.170 -1.4170  0.5107 -1.6998
  478TIP3    H222926   0.449   4.564   3.210  1.1575  2.6821  1.3688
  479TIP3   OH222927   1.014   3.651  15.735 -0.3349 -0.4158  0.7837
  479TIP3    H122928   1.065   3.594  15.678 -0.1651  1.1872 -0.7632
  479TIP3    H222929   0.974   3.592  15.799  0.4886 -2.1388 -0.2239
  480TIP3   OH222930   1.609   3.084  11.276 -0.1889 -0.1074 -0.0304
  480TIP3    H122931   1.564   3.006  11.244  0.9353 -0.2353 -1.4104
  480TIP3    H222932   1.623   3.138  11.198 -1.7252  1.9256  1.0160
  481TIP3   OH222933   3.444   5.797  16.108  0.3413 -0.2768 -0.0355
  481TIP3    H122934   3.402   5.848  16.178  0.8124 -0.2961  0.2635
  481TIP3    H222935   3.525   5.765  16.147 -0.6557 -2.5669  0.2982
  482TIP3   OH222936   6.570   4.998   2.486 -0.3913  0.1929 -0.5707
  482TIP3    H122937   6.588   4.904   2.491  0.8128  0.3602 -1.3557
  482TIP3    H222938   6.492   5.005   2.431 -0.9779 -0.3926  0.1851
  483TIP3   OH222939   2.822   4.295   0.268  0.2451  0.5055  0.8003
  483TIP3    H122940   2.875   4.231   0.316  2.9941  0.9815 -1.3300
  483TIP3    H222941   2.780   4.244   0.199  0.3372  0.6245  0.6585
  484TIP3   OH222942   4.877   2.057  13.677  0.3088 -0.9665 -0.0602
  484TIP3    H122943   4.862   2.142  13.719 -0.3659  0.0132 -2.1746
  484TIP3    H222944   4.972   2.049  13.672  0.3724 -0.0607 -0.3698
  485TIP3   OH222945   3.567   6.702   0.260  0.0738  0.7259  0.1943
  485TIP3    H122946   3.580   6.674   0.350 -1.1258  0.0399  0.1757
  485TIP3    H222947   3.631   6.772   0.247 -1.4708  2.6976  2.4222
  486TIP3   OH222948   3.927   3.190   1.419  0.0398 -0.4873  0.1925
  486TIP3    H122949   3.851   3.138   1.443 -0.5979 -0.0204 -0.7499
  486TIP3    H222950   3.981   3.130   1.367 -2.7555  0.7301 -4.8165
  487TIP3   OH222951   1.223   4.307  13.759 -0.2958  0.4328 -0.4676
  487TIP3    H122952   1.175   4.236  13.715  0.9478 -0.7008 -0.0392
  487TIP3    H222953   1.242   4.273  13.846  1.4545  0.7675 -0.6880
  488TIP3   OH222954   2.342   3.630  13.160 -0.2619 -0.1763  0.3603
  488TIP3    H122955   2.319   3.638  13.067 -1.0256  1.6443  0.6578
  488TIP3    H222956   2.412   3.694  13.174 -0.4772 -0.0890  1.1203
  489TIP3   OH222957   6.150   6.139  12.919  0.0071  0.3024  0.2721
  489TIP3    H122958   6.082   6.178  12.974 -2.3308 -1.4748 -1.1792
  489TIP3    H222959   6.161   6.051  12.954  0.3085 -0.0102 -0.5851
  490TIP3   OH222960   0.966   3.146  14.403 -0.0098 -0.0383 -0.3671
  490TIP3    H122961   0.965   3.129  14.497 -2.5915  0.6479 -0.1764
  490TIP3    H222962   0.964   3.059  14.363  0.0120 -0.3255  0.2394
  491TIP3   OH222963   2.590   0.466   2.732  0.4615 -0.0788 -0.2837
  491TIP3    H122964   2.567   0.395   2.672 -0.7906  1.7638 -2.1214
  491TIP3    H222965   2.507   0.490   2.774  1.1749 -0.7716  1.5931
  492TIP3   OH222966   6.808   4.848  12.809 -0.4925 -0.0899  0.0978
  492TIP3    H122967   6.832   4.887  12.725 -0.7748 -0.0114  0.0510
  492TIP3    H222968   6.775   4.761  12.787  0.3865 -0.4672  0.2277
  493TIP3   OH222969   5.973   3.743  14.454  0.8238 -0.1261  0.2198
  493TIP3    H122970   5.959   3.837  14.458 -0.9982 -0.0235 -3.7845
  493TIP3    H222971   6.038   3.730  14.385 -0.2243 -1.8055 -0.5369
  494TIP3   OH222972   0.120   5.417   3.209 -0.5727  0.3621  0.3228
  494TIP3    H122973   0.142   5.385   3.121 -1.1517 -1.3738  0.7663
  494TIP3    H222974   0.065   5.494   3.193  2.3322  2.4106 -0.7882
  495TIP3   OH222975   1.112   6.163  14.822  0.1326  0.3240 -0.2777
  495TIP3    H122976   1.058   6.240  14.840 -1.4073 -0.6249 -0.6584
  495TIP3    H222977   1.138   6.173  14.730 -0.5390  0.1334 -0.4971
  496TIP3   OH222978   0.659   0.559   2.382  0.1648 -0.0581  0.3591
  496TIP3    H122979   0.681   0.466   2.378 -1.7311 -0.5277  0.0955
  496TIP3    H222980   0.576   0.567   2.335  0.2077  1.7539  0.4986
  497TIP3   OH222981   0.760   3.714   0.066  0.5525  0.2140 -0.3119
  497TIP3    H122982   0.702   3.717   0.142 -0.5190  1.1511 -1.1317
  497TIP3    H222983   0.771   3.621   0.048  2.3956 -0.1310  2.1178
  498TIP3   OH222984   4.052   3.663  17.121 -0.1088 -0.3347 -0.4789
  498TIP3    H122985   4.141   3.663  17.085  0.0154 -1.2577 -0.1925
  498TIP3    H222986   4.063   3.695  17.210 -0.2264  0.6332 -0.8035
  499TIP3   OH222987   3.598   2.968  16.399  0.6024 -0.6106 -0.0679
  499TIP3    H122988   3.649   3.047  16.417  0.1545 -0.4340  0.4323
  499TIP3    H222989   3.635   2.934  16.317  1.1409 -0.1720 -0.0099
  500TIP3   OH222990   5.379   3.450   0.820  0.3675 -0.5325  0.1719
  500TIP3    H122991   5.287   3.446   0.846  0.3877 -0.7102  0.2219
  500TIP3    H222992   5.427   3.435   0.902  0.4287 -1.5006 -0.0250
  501TIP3   OH222993   0.998   3.793   0.580  0.2185  0.0180  0.1492
  501TIP3    H122994   0.994   3.720   0.641 -1.4214  0.9732  1.2912
  501TIP3    H222995   1.051   3.762   0.507  0.0707 -2.0669  0.8808
  502TIP3   OH222996   5.298   4.441  16.916  0.0786  0.3284  0.7912
  502TIP3    H122997   5.382   4.469  16.953 -0.6893  1.7952  1.5234
  502TIP3    H222998   5.285   4.497  16.839  0.6260 -1.1883 -0.4415
  503TIP3   OH222999   5.531   1.763   5.751 -0.5107 -0.3666 -0.2541
  503TIP3    H123000   5.606   1.705   5.762 -0.3253 -0.2958 -1.1189
  503TIP3    H223001   5.508   1.789   5.841  0.3353 -0.5860  0.0375
  504TIP3   OH223002   0.397   2.175  14.025  0.0672  0.5630 -0.1999
  504TIP3    H123003   0.312   2.143  13.993  0.6367  0.0606 -1.2420
  504TIP3    H223004   0.445   2.198  13.945  0.8026  1.1341  0.4008
  505TIP3   OH223005   3.359   3.068  13.023  0.3934 -0.0768 -0.3952
  505TIP3    H123006   3.272   3.032  13.040  0.3285  0.6979  1.0575
  505TIP3    H223007   3.419   3.008  13.069  0.3931  0.8313  0.8415
  506TIP3   OH223008   4.951   4.195   5.957  0.2187  0.5182  0.5260
  506TIP3    H123009   4.864   4.193   5.997  0.0680  0.0714  0.1849
  506TIP3    H223010   5.002   4.132   6.007  0.0391 -0.0175  0.0509
  507TIP3   OH223011   1.624   0.632  11.655 -0.0160  0.3469  0.3449
  507TIP3    H123012   1.567   0.568  11.698  1.9329 -0.9116  1.2105
  507TIP3    H223013   1.610   0.618  11.562 -0.8314 -0.2141  0.5449
  508TIP3   OH223014   5.756   2.858   6.433 -0.6830 -0.2271  0.0388
  508TIP3    H123015   5.717   2.818   6.355 -0.6681  0.1863 -0.1823
  508TIP3    H223016   5.761   2.951   6.413  1.2845 -0.3690 -0.3224
  509TIP3   OH223017   2.952   5.016  12.284  0.0359  0.0732  0.4446
  509TIP3    H123018   3.022   5.068  12.324  0.4350  0.9143 -1.2575
  509TIP3    H223019   2.880   5.078  12.273  0.7948  0.5643 -2.3417
  510TIP3   OH223020   3.548   1.573  10.621  0.0880 -0.2495  0.1670
  510TIP3    H123021   3.456   1.577  10.594 -0.1259 -0.4976  0.8166
  510TIP3    H223022   3.598   1.587  10.541 -0.5175 -0.3701 -0.2377
  511TIP3   OH223023   2.107   0.936  14.836 -0.4691  0.4177 -0.5224
  511TIP3    H123024   2.037   1.001  14.845 -0.0242  0.8669 -0.2738
  511TIP3    H223025   2.166   0.974  14.771 -0.4985 -0.0083 -0.8067
  512TIP3   OH223026   1.932   5.412  15.913 -0.3871  0.6322  0.1305
  512TIP3    H123027   1.887   5.416  15.997 -0.5151  1.1327  0.0431
  512TIP3    H223028   1.867   5.443  15.850 -0.3754  0.0162 -0.1891
  513TIP3   OH223029   6.000   1.590  17.089 -0.3557  0.4247 -0.5297
  513TIP3    H123030   6.062   1.529  17.049 -0.7943  2.1215 -4.2603
  513TIP3    H223031   5.916   1.544  17.089  0.0166 -0.2888  0.3726
  514TIP3   OH223032   4.801   2.890  14.808  0.0077  0.5671  0.3863
  514TIP3    H123033   4.846   2.806  14.815 -0.1379  0.5098  0.6274
  514TIP3    H223034   4.769   2.908  14.896  1.2561  1.5554  0.6657
  515TIP3   OH223035   1.136   6.683   0.146  0.2979 -0.3267  0.0690
  515TIP3    H123036   1.168   6.604   0.190 -0.3115 -0.4687  0.2602
  515TIP3    H223037   1.041   6.675   0.148  0.1657 -1.6657 -3.6215
  516TIP3   OH223038   3.199   0.906  13.540 -0.0384  0.0645  0.4840
  516TIP3    H123039   3.128   0.869  13.487 -0.9486 -0.3055  1.9045
  516TIP3    H223040   3.161   0.984  13.581  0.0610 -0.6174  1.9380
  517TIP3   OH223041   5.735   6.686   4.105 -1.0189  0.7142  0.1636
  517TIP3    H123042   5.665   6.699   4.041 -0.6692  0.0489 -0.3655
  517TIP3    H223043   5.723   6.597   4.137 -0.2754  0.4994 -0.1199
  518TIP3   OH223044   4.789   6.563   4.907 -0.3987 -0.0352  0.1017
  518TIP3    H123045   4.711   6.511   4.888 -1.7786  1.9286  0.1171
  518TIP3    H223046   4.829   6.579   4.822 -1.4114  1.0107 -0.1934
  519TIP3   OH223047   1.995   1.696  15.501 -0.2022  0.0503  0.4474
  519TIP3    H123048   1.949   1.752  15.438 -1.5448 -1.1686  0.2858
  519TIP3    H223049   2.087   1.703  15.476 -0.1961  2.7631  0.9213
  520TIP3   OH223050   2.741   0.596   4.870 -0.0388  0.4376  0.0584
  520TIP3    H123051   2.745   0.686   4.837  0.0501 -0.5013 -2.6819
  520TIP3    H223052   2.648   0.576   4.875 -0.0516  0.5726  0.3917
  521TIP3   OH223053   4.392   1.687   4.770  0.3737 -0.0355 -0.3695
  521TIP3    H123054   4.456   1.753   4.743  0.1460  0.8376  1.1024
  521TIP3    H223055   4.318   1.700   4.712  0.8046  0.2111 -0.8707
  522TIP3   OH223056   3.928   5.084   3.054  0.4471  0.0162  0.6470
  522TIP3    H123057   3.890   4.998   3.071  0.0668 -0.1588 -0.9635
  522TIP3    H223058   3.959   5.114   3.140  0.7931 -1.8026  1.1900
  523TIP3   OH223059   5.573   2.020  13.354 -0.2104 -0.4947 -0.0679
  523TIP3    H123060   5.539   1.932  13.341 -1.1537 -0.3652  1.2652
  523TIP3    H223061   5.538   2.047  13.440  1.9534  0.2836  0.6446
  524TIP3   OH223062   0.426   2.582  11.411 -0.0658 -0.3589 -0.6065
  524TIP3    H123063   0.364   2.641  11.369  0.4210  0.2885 -0.4429
  524TIP3    H223064   0.396   2.576  11.502  0.9646  1.1797 -0.1391
  525TIP3   OH223065   6.050   1.895   2.185  0.3162 -0.1490  0.2392
  525TIP3    H123066   6.056   1.962   2.117 -0.2923 -0.2152  0.1139
  525TIP3    H223067   6.111   1.925   2.253 -0.8838  1.2178  0.7661
  526TIP3   OH223068   4.326   2.100   1.957 -0.0221 -0.0489  0.3695
  526TIP3    H123069   4.272   2.024   1.978  0.9644 -0.8941 -0.0122
  526TIP3    H223070   4.407   2.086   2.006  1.1289 -0.5164 -1.5401
  527TIP3   OH223071   3.922   2.979  15.361  0.7415 -0.1217  0.0821
  527TIP3    H123072   3.854   2.943  15.417  0.6811 -0.4649 -0.2066
  527TIP3    H223073   3.895   3.070  15.344  1.4518  0.4294  1.7014
  528TIP3   OH223074   3.674   0.377  16.045  0.2890 -0.2491  0.3933
  528TIP3    H123075   3.750   0.433  16.060  0.6488 -0.8607  0.8803
  528TIP3    H223076   3.655   0.389  15.952  0.9936 -0.1054  0.2593
  529TIP3   OH223077   6.774   2.737   1.591 -0.8597  0.5692 -0.1913
  529TIP3    H123078   6.745   2.664   1.536 -3.8452  1.5404 -0.0752
  529TIP3    H223079   6.805   2.696   1.672 -2.2635 -0.5885 -0.2195
  530TIP3   OH223080   3.785   3.556  11.853  0.2788  0.4891  0.0910
  530TIP3    H123081   3.714   3.605  11.812 -0.1311  0.6839  1.0098
  530TIP3    H223082   3.801   3.601  11.936  0.7664 -0.1690  0.3648
  531TIP3   OH223083   4.356   0.752  14.699 -0.4803  0.3872 -0.1010
  531TIP3    H123084   4.430   0.766  14.758 -0.8399 -0.0989  0.4755
  531TIP3    H223085   4.384   0.680  14.643  0.5839  2.0065 -1.7575
  532TIP3   OH223086   1.623   1.182   0.197  0.1817  0.1734 -0.1397
  532TIP3    H123087   1.641   1.161   0.288  0.3454 -2.5429 -0.6885
  532TIP3    H223088   1.543   1.133   0.176  1.1505 -0.7844 -1.8789
  533TIP3   OH223089   3.765   5.307  13.039  0.3574 -0.5612 -0.1234
  533TIP3    H123090   3.748   5.214  13.027  1.5616 -0.6039 -1.7479
  533TIP3    H223091   3.839   5.326  12.982 -2.0470  2.1535 -2.6898
  534TIP3   OH223092   3.271   1.989  11.536 -0.1904  0.4801  0.0840
  534TIP3    H123093   3.253   2.082  11.546 -1.5510  0.1971  0.4905
  534TIP3    H223094   3.265   1.954  11.625 -0.0122 -0.0467 -0.1037
  535TIP3   OH223095   1.415   0.597   4.203  0.3102 -0.1380  0.1641
  535TIP3    H123096   1.508   0.612   4.185  1.3020 -2.3895  2.5732
  535TIP3    H223097   1.404   0.622   4.295 -2.1736  2.4011 -0.6788
  536TIP3   OH223098   5.233   1.422  10.234  0.0564  0.1672  0.5132
  536TIP3    H123099   5.257   1.331  10.218 -0.0592  0.5558 -2.1767
  536TIP3    H223100   5.146   1.417  10.274 -1.0889 -0.8821 -1.9451
  537TIP3   OH223101   6.717   3.849  11.973  0.5362  0.4155 -0.1486
  537TIP3    H123102   6.802   3.867  11.933 -0.4176  1.5691 -1.7578
  537TIP3    H223103   6.656   3.846  11.900 -0.7423 -1.0189  0.9092
  538TIP3   OH223104   6.323   0.728   2.905  0.8194 -0.2787  0.4523
  538TIP3    H123105   6.342   0.770   2.989  0.1503 -1.1529  1.0603
  538TIP3    H223106   6.278   0.796   2.854 -0.0959 -0.1871  1.3553
  539TIP3   OH223107   4.413   3.672  15.211  0.3914 -0.1765 -0.1559
  539TIP3    H123108   4.328   3.679  15.255  1.7150  0.4641  2.5189
  539TIP3    H223109   4.392   3.670  15.117 -2.4976  1.0325  0.3646
  540TIP3   OH223110   3.633   3.656   3.091 -0.7141 -0.0903 -0.4681
  540TIP3    H123111   3.715   3.633   3.046 -1.1224  1.2865 -2.0410
  540TIP3    H223112   3.567   3.658   3.021 -1.6941  0.7518  0.4312
  541TIP3   OH223113   3.720   5.064   2.054  0.2613 -0.1151 -0.1303
  541TIP3    H123114   3.800   5.099   2.092  0.3921 -1.2797  0.7393
  541TIP3    H223115   3.649   5.111   2.098  0.4583  0.1605 -0.1100
  542TIP3   OH223116   2.157   6.016   0.956 -0.0756 -0.1761 -0.0564
  542TIP3    H123117   2.195   5.929   0.947  1.4240  0.4424 -0.1099
  542TIP3    H223118   2.130   6.022   1.047 -2.7155 -1.6275 -0.6541
  543TIP3   OH223119   0.554   2.373  12.157 -0.3040  0.4566  0.4657
  543TIP3    H123120   0.469   2.355  12.116 -1.1024 -0.0390  2.2559
  543TIP3    H223121   0.559   2.469  12.160 -0.3955  0.5029 -0.3972
  544TIP3   OH223122   1.899   4.702  14.667  0.2787 -0.0227 -0.7674
  544TIP3    H123123   1.887   4.683  14.574  1.4607  2.6899 -1.5786
  544TIP3    H223124   1.856   4.787  14.679  1.2214  0.2598  0.8595
  545TIP3   OH223125   3.493   0.831  12.840  0.2649 -0.4888  0.3249
  545TIP3    H123126   3.445   0.785  12.772 -0.3121 -1.1773  1.1852
  545TIP3    H223127   3.461   0.794  12.923  0.7820  0.4853  0.9875
  546TIP3   OH223128   1.308   6.609  12.807  0.0001  0.3036  0.0120
  546TIP3    H123129   1.304   6.674  12.737  2.6589  0.7140  0.1424
  546TIP3    H223130   1.399   6.580  12.808 -0.3935 -1.0872  2.0636
  547TIP3   OH223131   5.606   2.687   1.693 -0.2360  0.2643 -0.2581
  547TIP3    H123132   5.520   2.671   1.731 -0.6056 -0.2260 -1.2818
  547TIP3    H223133   5.589   2.741   1.616  0.4029  0.3751 -0.3286
  548TIP3   OH223134   0.246   0.984  13.290  0.3227  0.3391  0.2332
  548TIP3    H123135   0.177   0.999  13.354 -0.1098  2.3809 -0.6426
  548TIP3    H223136   0.301   1.063  13.296  1.2245 -0.1982 -0.7363
  549TIP3   OH223137   6.170   1.582   5.470  0.4484 -0.0257 -0.1470
  549TIP3    H123138   6.203   1.670   5.447  0.4647 -0.8881 -4.1734
  549TIP3    H223139   6.246   1.537   5.506  1.0249  0.9579 -0.0935
  550TIP3   OH223140   4.867   2.140   2.424  0.7610  0.0949 -0.3913
  550TIP3    H123141   4.957   2.114   2.407  0.9553 -0.0215  0.7754
  550TIP3    H223142   4.833   2.164   2.338  1.7441 -0.3433 -0.9212
  551TIP3   OH223143   2.712   0.031  16.759 -0.4287  0.8743  0.0665
  551TIP3    H123144   2.797   0.069  16.782 -0.4369  0.8165  0.1870
  551TIP3    H223145   2.697   0.061  16.669 -0.6857  1.6111  0.3455
  552TIP3   OH223146   2.879   0.287  12.634 -0.8798  0.0789  0.2801
  552TIP3    H123147   2.956   0.331  12.669 -1.1098 -0.3688  1.4021
  552TIP3    H223148   2.898   0.194  12.646 -1.3668 -0.0473  0.0795
  553TIP3   OH223149   4.765   0.213  16.948 -0.2462 -0.2892 -0.1077
  553TIP3    H123150   4.775   0.297  16.992  0.2397  0.7077 -2.0028
  553TIP3    H223151   4.830   0.214  16.878 -1.8838 -1.1682 -1.7437
  554TIP3   OH223152   3.136   5.271   1.095 -0.1527  0.3269 -0.4789
  554TIP3    H123153   3.220   5.259   1.139  0.3598 -0.7254 -1.6859
  554TIP3    H223154   3.117   5.364   1.106  0.2107  0.2222  1.4547
  555TIP3   OH223155   4.017   3.768   6.425  0.3248 -0.2669  0.0211
  555TIP3    H123156   4.060   3.732   6.502  0.8062 -0.5366 -0.3687
  555TIP3    H223157   3.958   3.699   6.396 -2.7615  1.1795  2.3373
  556TIP3   OH223158   3.175   4.344  12.737 -0.0925  0.5066  0.1628
  556TIP3    H123159   3.174   4.432  12.777  0.2358  0.3549  0.5128
  556TIP3    H223160   3.261   4.310  12.758 -0.5474 -0.2602  0.8235
  557TIP3   OH223161   0.664   0.621  12.240  0.3884 -0.0335 -0.7726
  557TIP3    H123162   0.684   0.606  12.148  2.0822  2.8571 -1.0237
  557TIP3    H223163   0.749   0.624  12.283 -0.1672  1.4305  0.3315
  558TIP3   OH223164   1.866   4.203  16.477  0.0314 -0.0840  0.4196
  558TIP3    H123165   1.774   4.229  16.484 -0.0731 -0.3895  0.1894
  558TIP3    H223166   1.903   4.264  16.413 -0.0057  0.0406  0.5143
  559TIP3   OH223167   6.797   4.340   4.256 -0.7009  0.0552  0.1436
  559TIP3    H123168   6.745   4.281   4.202 -1.2163  0.5205  0.1254
  559TIP3    H223169   6.734   4.402   4.292  0.1358  2.2919 -1.9841
  560TIP3   OH223170   5.173   0.601  14.871 -0.1092 -0.1417  0.1062
  560TIP3    H123171   5.148   0.632  14.784 -0.8207  0.7376  0.6029
  560TIP3    H223172   5.135   0.513  14.878  2.4039 -1.4688 -1.5369
  561TIP3   OH223173   4.118   6.528  11.705  0.2685  0.3744 -0.0238
  561TIP3    H123174   4.024   6.529  11.689  0.6037  2.0714 -2.4751
  561TIP3    H223175   4.153   6.461  11.647  0.7158  0.9111 -0.3925
  562TIP3   OH223176   1.647   3.681   4.209 -0.3100 -0.2995 -0.2248
  562TIP3    H123177   1.666   3.773   4.187 -3.9536  0.5409 -0.5984
  562TIP3    H223178   1.730   3.635   4.196  1.8169  2.9904  0.4868
  563TIP3   OH223179   0.441   3.449  14.098  0.1676 -0.0370  0.1352
  563TIP3    H123180   0.346   3.456  14.095  0.1900 -0.0103 -1.0723
  563TIP3    H223181   0.464   3.466  14.189 -1.0256 -0.6920  0.5706
  564TIP3   OH223182   2.445   3.477   4.035  0.5324 -0.2903  0.4127
  564TIP3    H123183   2.491   3.546   4.082  0.6343 -0.5882  0.7551
  564TIP3    H223184   2.354   3.483   4.066  0.3382  0.2813 -0.2444
  565TIP3   OH223185   0.620   0.741  13.166  0.0962 -0.7189 -0.3483
  565TIP3    H123186   0.696   0.777  13.119 -0.0241 -1.9221 -1.5416
  565TIP3    H223187   0.567   0.700  13.097 -0.9850 -1.0211  0.6355
  566TIP3   OH223188   5.667   5.811   2.268  0.0031  0.6654 -0.5897
  566TIP3    H123189   5.732   5.764   2.216 -0.1083  1.2931 -1.3171
  566TIP3    H223190   5.585   5.764   2.253  0.3184 -0.2954  0.5501
  567TIP3   OH223191   2.212   4.883  12.969 -0.1856  0.9636  0.4747
  567TIP3    H123192   2.175   4.962  12.930  1.9124  2.1226  0.6958
  567TIP3    H223193   2.143   4.851  13.029 -1.5510  1.8689 -0.5517
  568TIP3   OH223194   6.712   4.349  11.533 -0.1439 -0.0302 -0.6603
  568TIP3    H123195   6.728   4.293  11.609  0.3604 -0.0602 -0.7859
  568TIP3    H223196   6.759   4.307  11.462  0.5648  0.7593 -0.6663
  569TIP3   OH223197   0.887   6.268   4.432  0.3073 -0.0428  0.1230
  569TIP3    H123198   0.960   6.235   4.484  0.9104  1.4489  0.2723
  569TIP3    H223199   0.812   6.216   4.461  1.0467 -0.6971  0.9180
  570TIP3   OH223200   2.033   0.447   1.678  0.1575  0.2445  0.1624
  570TIP3    H123201   2.023   0.479   1.588  0.2010  2.6840  0.9671
  570TIP3    H223202   2.011   0.522   1.733  0.4164 -1.1079  2.2158
  571TIP3   OH223203   1.539   3.041  13.378  0.0156  0.4489 -0.7265
  571TIP3    H123204   1.548   2.947  13.394  0.5105  0.5228 -0.5594
  571TIP3    H223205   1.519   3.047  13.284 -0.7391  0.1408 -0.5947
  572TIP3   OH223206   0.630   6.700   2.902  0.2570  0.0257  0.2982
  572TIP3    H123207   0.602   6.621   2.949 -1.8446 -0.2419 -1.2778
  572TIP3    H223208   0.635   6.673   2.811  0.8891  1.3939 -0.0917
  573TIP3   OH223209   6.023   0.423   2.578  0.2594 -0.5542 -0.5623
  573TIP3    H123210   5.947   0.466   2.538 -0.2979 -0.9028  0.1018
  573TIP3    H223211   6.054   0.485   2.644  0.0154 -0.7689 -0.2388
  574TIP3   OH223212   2.310   0.010  13.651 -0.2114  0.1787  0.0069
  574TIP3    H123213   2.245  -0.057  13.674 -3.1113  2.8560  0.3981
  574TIP3    H223214   2.331   0.052  13.734  0.4807  0.6528 -0.4008
  575TIP3   OH223215   3.550   4.025  13.077 -0.3178  0.3390  0.4801
  575TIP3    H123216   3.574   4.029  12.985  0.0285  0.3839  0.5693
  575TIP3    H223217   3.522   3.935  13.091 -2.1023  0.7611 -0.0804
  576TIP3   OH223218   2.837   5.108  13.250  0.0887 -0.1761  0.0881
  576TIP3    H123219   2.809   5.187  13.204  1.0069  0.1420  0.0507
  576TIP3    H223220   2.808   5.120  13.340  0.2774  0.2339  0.0955
  577TIP3   OH223221   3.042   3.168   1.950  0.0468 -0.6442  0.5800
  577TIP3    H123222   3.011   3.258   1.943 -1.7345 -1.1599  1.1817
  577TIP3    H223223   3.002   3.123   1.876  1.0364 -0.9161  0.2058
  578TIP3   OH223224   3.218   2.274  16.596 -0.1045  0.0971 -0.5443
  578TIP3    H123225   3.150   2.304  16.656  0.1240 -0.4167 -0.0211
  578TIP3    H223226   3.259   2.354  16.563  0.8048  0.3689  1.1737
  579TIP3   OH223227   6.409   6.340   2.222 -0.2335 -0.1221 -0.0473
  579TIP3    H123228   6.422   6.393   2.300  2.0894 -0.2902 -0.2375
  579TIP3    H223229   6.455   6.258   2.242  0.2800 -0.2146 -1.5105
  580TIP3   OH223230   5.774   4.640   5.493 -0.0512  0.1427 -0.6233
  580TIP3    H123231   5.868   4.647   5.508  0.2743 -2.8801 -0.5932
  580TIP3    H223232   5.738   4.611   5.577 -0.6942 -0.6312 -1.1446
  581TIP3   OH223233   2.640   3.321  15.076 -0.3539  0.1435  0.4633
  581TIP3    H123234   2.706   3.264  15.035 -0.7427  0.2027 -0.2554
  581TIP3    H223235   2.651   3.406  15.034 -0.0089  0.5254  1.2912
  582TIP3   OH223236   1.106   4.828  10.897 -0.9532  0.6575 -0.0588
  582TIP3    H123237   1.161   4.788  10.830  1.9135 -0.9469  2.9503
  582TIP3    H223238   1.162   4.891  10.941 -2.0205  0.2259  2.0739
  583TIP3   OH223239   1.325   4.397  16.761  0.7795 -0.1332 -0.3756
  583TIP3    H123240   1.271   4.476  16.748 -0.5906 -1.1533 -1.1170
  583TIP3    H223241   1.396   4.426  16.819 -1.8809  0.7317  2.7697
  584TIP3   OH223242   1.655   0.730  11.927 -0.2005 -0.5954 -0.4766
  584TIP3    H123243   1.739   0.686  11.911 -0.3154 -0.6090 -1.0642
  584TIP3    H223244   1.604   0.714  11.847  0.2627  1.8155 -1.3229
  585TIP3   OH223245   6.209   4.268   4.324  0.3568 -0.2146 -0.7730
  585TIP3    H123246   6.157   4.348   4.333  0.5652 -0.1809  0.3244
  585TIP3    H223247   6.150   4.198   4.354  0.3550 -0.4037 -1.2157
  586TIP3   OH223248   3.963   4.070   0.937  0.0681  0.2479  0.5960
  586TIP3    H123249   3.884   4.041   0.893  0.0398  0.1081  0.7389
  586TIP3    H223250   3.947   4.053   1.030  0.8067 -1.0965  0.5108
  587TIP3   OH223251   3.108   1.716  11.567 -0.5732  0.4118  0.2550
  587TIP3    H123252   3.192   1.681  11.596 -0.1920  1.1564  0.0770
  587TIP3    H223253   3.128   1.805  11.537 -0.9221 -0.2883 -2.3000
  588TIP3   OH223254   2.753   5.591   4.578  0.9632  0.5783 -0.0000
  588TIP3    H123255   2.713   5.526   4.636 -1.5985  1.5321 -0.5871
  588TIP3    H223256   2.810   5.540   4.521  1.6383 -0.6874  1.7040
  589TIP3   OH223257   0.831   3.913   5.605  0.2791  0.2944 -0.7610
  589TIP3    H123258   0.788   3.933   5.521 -1.1255  0.0807 -0.1139
  589TIP3    H223259   0.826   3.817   5.612  0.4735  0.3050 -0.4777
  590TIP3   OH223260   6.197   2.883  11.761  0.2589  0.1118  0.2749
  590TIP3    H123261   6.280   2.909  11.800  0.5666 -1.0078  0.4046
  590TIP3    H223262   6.162   2.963  11.722  0.7598  0.8730  1.3658
  591TIP3   OH223263   0.429   2.206  16.619  0.4827 -0.1497  0.1057
  591TIP3    H123264   0.381   2.257  16.554  0.5723 -0.0082  0.1490
  591TIP3    H223265   0.451   2.269  16.687  0.9164 -0.1663 -0.0151
  592TIP3   OH223266   5.293   0.359   6.526  0.4792  0.1304 -0.0501
  592TIP3    H123267   5.286   0.413   6.447  0.2947  0.1271 -0.0365
  592TIP3    H223268   5.304   0.270   6.494 -2.8557 -0.3879 -0.1481
  593TIP3   OH223269   1.116   4.928  12.493 -0.0047 -0.5899  0.1374
  593TIP3    H123270   1.103   5.005  12.548  0.6306  0.2905 -0.8937
  593TIP3    H223271   1.210   4.909  12.499  0.5131  0.8096 -2.1990
  594TIP3   OH223272   0.770   5.080  12.956  0.1012  0.4226  0.1926
  594TIP3    H123273   0.780   5.040  12.870 -1.1508  0.0872  0.1862
  594TIP3    H223274   0.850   5.056  13.003  0.6005  0.2533 -0.7320
  595TIP3   OH223275   0.480   4.091  16.794  0.2874  0.2454  0.7540
  595TIP3    H123276   0.498   4.130  16.709  0.0503  0.7675  0.9416
  595TIP3    H223277   0.464   3.998  16.775  0.3657  0.3333  0.2488
  596TIP3   OH223278   1.343   5.925  15.916 -0.0584 -0.3226  0.5249
  596TIP3    H123279   1.248   5.922  15.910 -0.1615  1.2386  0.8093
  596TIP3    H223280   1.372   5.837  15.893 -1.5324 -0.6567 -0.1485
  597TIP3   OH223281   1.578   6.154   6.247 -0.1899  0.1058  0.6072
  597TIP3    H123282   1.663   6.145   6.203  0.0118  1.4062  0.7125
  597TIP3    H223283   1.597   6.204   6.326 -1.1539  1.0136  0.2854
  598TIP3   OH223284   3.528   5.435   3.502  0.0413  0.5320  0.4170
  598TIP3    H123285   3.596   5.453   3.438 -0.5862 -0.3613 -0.5480
  598TIP3    H223286   3.446   5.459   3.458 -0.4549 -0.6640  0.6372
  599TIP3   OH223287   6.267   4.267  11.030 -0.2240 -0.2565  0.5215
  599TIP3    H123288   6.326   4.335  10.996 -0.7842  0.4300  0.8912
  599TIP3    H223289   6.306   4.185  11.000  1.1974  0.1489  1.1461
  600TIP3   OH223290   6.514   0.733   5.696 -0.0021  0.2379  0.1769
  600TIP3    H123291   6.480   0.818   5.666  0.0795  0.2372  0.0810
  600TIP3    H223292   6.597   0.723   5.649  0.0528  0.1660  0.2898
  601TIP3   OH223293   3.112   2.620   2.349 -0.2315 -0.0191 -0.4289
  601TIP3    H123294   3.177   2.568   2.395 -1.0548 -0.0589  0.7368
  601TIP3    H223295   3.036   2.622   2.408  0.2160  3.7235  0.2905
  602TIP3   OH223296   6.667   5.940  12.593 -0.1413 -0.0980 -0.3465
  602TIP3    H123297   6.759   5.941  12.565 -0.0314  0.9876  0.0037
  602TIP3    H223298   6.657   5.858  12.640  0.8180  0.0530  0.1409
  603TIP3   OH223299   6.697   4.887   0.858 -0.2488 -0.1359 -0.3426
  603TIP3    H123300   6.723   4.978   0.846  0.5992 -0.2090  0.8018
  603TIP3    H223301   6.707   4.871   0.951 -1.0427 -1.2187 -0.4196
  604TIP3   OH223302   6.548   4.104  16.848  0.6268  0.2929 -0.8475
  604TIP3    H123303   6.562   4.021  16.894 -0.5748  0.7293  0.3820
  604TIP3    H223304   6.594   4.169  16.901  0.2406  0.6382 -0.9338
  605TIP3   OH223305   6.305   3.680   3.477  0.4709  0.5438 -0.4993
  605TIP3    H123306   6.298   3.752   3.539 -1.4966 -0.2329  0.2351
  605TIP3    H223307   6.275   3.603   3.526  2.4811 -0.8093 -1.2619
  606TIP3   OH223308   3.218   4.177  15.016 -0.0978 -0.0816 -0.4687
  606TIP3    H123309   3.288   4.192  15.080 -0.1116  0.3699 -0.5507
  606TIP3    H223310   3.170   4.260  15.014 -1.8061 -0.9581  0.9572
  607TIP3   OH223311   1.195   3.405  12.197  0.0110 -0.2473  0.3884
  607TIP3    H123312   1.226   3.495  12.198 -1.8651  0.4273  0.1038
  607TIP3    H223313   1.156   3.393  12.111 -1.9101 -0.5352  1.2378
  608TIP3   OH223314   1.881   2.365  11.967 -0.6624  0.3500 -0.5543
  608TIP3    H123315   1.860   2.425  12.039 -1.3002 -0.0809 -0.3700
  608TIP3    H223316   1.796   2.346  11.926 -0.9132 -2.4227  0.9802
  609TIP3   OH223317   5.157   2.500   1.058  0.1118  0.1356  0.3201
  609TIP3    H123318   5.125   2.459   1.139 -1.5200  2.7595  1.1238
  609TIP3    H223319   5.210   2.574   1.088  0.9620  0.1151 -1.0500
  610TIP3   OH223320   3.058   1.080  11.997  0.8465  0.3552 -0.9199
  610TIP3    H123321   3.047   0.987  12.018 -0.0272  0.4895 -0.7545
  610TIP3    H223322   3.007   1.092  11.917  0.7234  0.7548 -0.7807
  611TIP3   OH223323   5.289   4.277   1.697 -0.8419 -0.1500  0.3337
  611TIP3    H123324   5.232   4.253   1.624 -1.0186 -0.5316  0.5918
  611TIP3    H223325   5.345   4.346   1.663 -0.6261 -0.6341 -0.2987
  612TIP3   OH223326   5.643   1.733  16.428  0.7316 -0.2095 -0.4407
  612TIP3    H123327   5.722   1.782  16.450  0.9901  0.0699 -1.8854
  612TIP3    H223328   5.649   1.720  16.333 -1.0280 -0.0696 -0.5980
  613TIP3   OH223329   1.013   5.653  13.821  0.2771 -0.1519 -0.6960
  613TIP3    H123330   1.008   5.742  13.855 -0.9762 -0.2983 -0.4362
  613TIP3    H223331   0.930   5.640  13.775 -1.0774 -2.2061  1.9816
  614TIP3   OH223332   0.730   0.454  10.783  0.5051 -0.0410  0.1239
  614TIP3    H123333   0.748   0.529  10.725 -1.2288 -0.2266 -0.7281
  614TIP3    H223334   0.719   0.380  10.724  0.3448 -0.5836  0.8226
  615TIP3   OH223335   5.648   3.803  15.180 -0.0309 -0.1527  0.7039
  615TIP3    H123336   5.740   3.783  15.195 -0.0717 -1.5934 -0.7640
  615TIP3    H223337   5.639   3.810  15.085 -1.2419  1.0826  0.8673
  616TIP3   OH223338   3.836   3.430  12.442 -0.3436  0.1832  0.0498
  616TIP3    H123339   3.931   3.441  12.444 -0.5196  1.8209  0.7039
  616TIP3    H223340   3.812   3.418  12.534 -0.7432 -0.6067 -0.1480
  617TIP3   OH223341   4.892   2.614  14.530  0.3473 -0.0080  0.1112
  617TIP3    H123342   4.890   2.707  14.508  1.7522  0.0860  0.2702
  617TIP3    H223343   4.910   2.612  14.624 -1.8314 -0.4450  0.5628
  618TIP3   OH223344   0.136   0.358   4.986 -0.4944  0.4808  0.1995
  618TIP3    H123345   0.085   0.317   4.916 -1.3737 -0.9545  1.6094
  618TIP3    H223346   0.092   0.440   5.003 -1.8516 -0.3366  0.7829
  619TIP3   OH223347   5.754   3.969   6.152  0.5702 -0.0017  0.2929
  619TIP3    H123348   5.678   3.920   6.183  0.9601  0.8476  2.7605
  619TIP3    H223349   5.729   4.061   6.162  1.6600  0.2913  0.4691
  620TIP3   OH223350   3.456   6.022   0.418 -0.6751 -0.3307  0.4735
  620TIP3    H123351   3.525   6.043   0.480 -1.1638 -0.4559  1.0764
  620TIP3    H223352   3.501   6.010   0.334 -0.2217  1.8550  0.3450
  621TIP3   OH223353   1.810   3.162   1.882  0.4379  0.0860 -0.0152
  621TIP3    H123354   1.898   3.157   1.920  0.1092  0.0667  0.7476
  621TIP3    H223355   1.769   3.079   1.905  0.5256 -0.3019 -1.1657
  622TIP3   OH223356   6.012   2.808   2.507 -0.3326  0.1006  0.0495
  622TIP3    H123357   5.969   2.723   2.497 -0.0550 -0.1403  0.8147
  622TIP3    H223358   5.981   2.860   2.433 -2.4077  0.1299  0.8609
  623TIP3   OH223359   2.024   2.867  15.678  0.1156 -0.0504  0.5655
  623TIP3    H123360   1.936   2.839  15.656  0.2573  0.8495 -1.3233
  623TIP3    H223361   2.047   2.930  15.611  2.3100 -0.4631  0.8390
  624TIP3   OH223362   1.001   6.813  14.696 -0.0333 -0.3447  0.6329
  624TIP3    H123363   1.058   6.836  14.769  1.8747 -1.0836 -0.5281
  624TIP3    H223364   1.052   6.750  14.645 -1.2779  0.1227 -1.3215
  625TIP3   OH223365   2.278   5.316  12.322  0.0597 -0.3003  0.5243
  625TIP3    H123366   2.332   5.322  12.243 -0.5950  0.5431  0.1333
  625TIP3    H223367   2.275   5.222  12.341 -0.2606 -0.5716 -0.7931
  626TIP3   OH223368   1.946   0.164  16.610  0.2327 -0.1802 -0.4830
  626TIP3    H123369   2.035   0.191  16.629 -0.0310  0.1526  0.2983
  626TIP3    H223370   1.950   0.132  16.520  1.4056 -1.4012 -0.0249
  627TIP3   OH223371   0.076   4.994   0.216 -0.1258  0.8031 -0.2811
  627TIP3    H123372   0.029   4.936   0.276 -1.3383  1.2075 -0.8119
  627TIP3    H223373   0.045   4.969   0.129  0.1616  1.5060 -0.5932
  628TIP3   OH223374   4.495   5.721   2.301 -0.0250  0.0028  0.2758
  628TIP3    H123375   4.505   5.778   2.225  0.6766  0.9452  1.0636
  628TIP3    H223376   4.573   5.736   2.353 -0.8717 -0.0200  1.5884
  629TIP3   OH223377   3.805   1.376  12.605  0.3616  0.2518  0.4155
  629TIP3    H123378   3.822   1.469  12.595  1.7606 -0.0964 -0.9406
  629TIP3    H223379   3.718   1.362  12.568  1.2602  0.6398 -2.0135
  630TIP3   OH223380   6.782   4.881   5.214 -0.2149  0.3686 -0.2501
  630TIP3    H123381   6.751   4.791   5.207 -0.8829  0.5877 -0.1154
  630TIP3    H223382   6.804   4.906   5.125  0.6239 -0.1510 -0.2043
  631TIP3   OH223383   2.376   4.140   4.388  0.4349 -0.1077  0.0762
  631TIP3    H123384   2.367   4.052   4.352  0.4093 -0.0388 -0.0868
  631TIP3    H223385   2.463   4.140   4.429 -0.4283 -0.9277  2.0681
  632TIP3   OH223386   1.887   1.493  11.808 -0.0141  0.1193 -0.1926
  632TIP3    H123387   1.898   1.428  11.878  0.8609  1.3088  0.8214
  632TIP3    H223388   1.976   1.521  11.786 -0.1800 -1.0291 -2.6215
  633TIP3   OH223389   2.796   4.529  17.139  0.6212  0.0422  0.5540
  633TIP3    H123390   2.815   4.619  17.111 -1.8920  1.3291  2.5978
  633TIP3    H223391   2.858   4.512  17.210  2.5237 -0.7423 -1.1858
  634TIP3   OH223392   1.364   3.185  11.411 -0.2542  0.0400  0.8692
  634TIP3    H123393   1.335   3.095  11.397  1.0627 -0.4967  1.3891
  634TIP3    H223394   1.457   3.183  11.388 -0.7428  1.9115 -1.7554
  635TIP3   OH223395   0.070   4.198   3.815  0.2453  0.7264 -0.0873
  635TIP3    H123396   0.042   4.112   3.845  0.6454  0.6421  0.0432
  635TIP3    H223397   0.137   4.226   3.877  1.5706  0.2575 -1.2499
  636TIP3   OH223398   1.001   6.127   5.559  0.1231  0.3107  0.3065
  636TIP3    H123399   0.981   6.187   5.631 -0.0091 -0.1062  0.6172
  636TIP3    H223400   0.950   6.048   5.578 -0.4582  0.4431 -0.5986
  637TIP3   OH223401   3.090   2.166  12.829  0.3556 -0.5793 -0.1546
  637TIP3    H123402   3.101   2.073  12.812 -0.3784 -0.5367 -0.9296
  637TIP3    H223403   3.130   2.209  12.753  2.4908 -0.1835  1.1369
  638TIP3   OH223404   6.107   5.818  11.363  0.0087 -0.0471  0.9406
  638TIP3    H123405   6.166   5.849  11.295 -1.3433 -1.2235 -0.8856
  638TIP3    H223406   6.163   5.768  11.423  0.9780 -0.5887 -0.3674
  639TIP3   OH223407   2.913   3.233  11.925 -0.0944  0.0121  0.7289
  639TIP3    H123408   2.835   3.189  11.958 -0.3767  0.6514  0.9493
  639TIP3    H223409   2.891   3.255  11.834 -0.3775  0.6226  0.9334
  640TIP3   OH223410   3.870   2.305  11.499 -0.4395 -0.5617 -0.2560
  640TIP3    H123411   3.899   2.286  11.410  1.4847 -1.7846  0.5704
  640TIP3    H223412   3.774   2.310  11.492 -0.5262 -2.9845 -1.9820
  641TIP3   OH223413   0.404   6.284   2.592  0.7381  0.3717  0.3785
  641TIP3    H123414   0.371   6.258   2.506 -0.0035 -0.2802  0.8539
  641TIP3    H223415   0.482   6.229   2.604  0.6541  0.2257  0.2668
  642TIP3   OH223416   3.816   0.257   2.622 -0.1961 -0.2631  0.1718
  642TIP3    H123417   3.826   0.165   2.648  0.2453  0.0130  1.0493
  642TIP3    H223418   3.867   0.265   2.542 -1.2031 -1.0459 -0.5732
  643TIP3   OH223419   1.117   4.469   0.829 -0.0689 -0.0931  0.1327
  643TIP3    H123420   1.082   4.475   0.741  0.8893 -2.0334 -0.4461
  643TIP3    H223421   1.079   4.543   0.876 -2.1413 -0.1361 -1.3668
  644TIP3   OH223422   4.406   1.388  15.642 -0.0343 -0.0389 -0.1425
  644TIP3    H123423   4.438   1.327  15.708  1.1354 -0.2788 -0.8927
  644TIP3    H223424   4.312   1.395  15.658  0.1131 -0.6725  1.0575
  645TIP3   OH223425   5.160   1.403   2.016  0.5022 -0.1336 -0.4819
  645TIP3    H123426   5.204   1.359   2.089  1.5855 -0.0109 -1.0430
  645TIP3    H223427   5.231   1.431   1.959 -0.2779  0.7689 -1.0281
  646TIP3   OH223428   4.583   6.619   6.085 -0.0309  0.3367  0.2290
  646TIP3    H123429   4.616   6.607   5.996  1.6419 -0.8158  0.9477
  646TIP3    H223430   4.628   6.552   6.136 -0.9070  1.0153  1.9655
  647TIP3   OH223431   6.448   5.837  11.398  0.0389  0.0617  0.3166
  647TIP3    H123432   6.407   5.784  11.330 -0.3598  2.8547 -1.7939
  647TIP3    H223433   6.540   5.809  11.398  0.1719  0.3362 -1.8324
  648TIP3   OH223434   5.159   5.157   4.682  0.0163  0.5835 -0.1561
  648TIP3    H123435   5.153   5.179   4.775 -1.2786  0.6271 -0.2248
  648TIP3    H223436   5.220   5.083   4.678  0.2702  0.7400  0.6937
  649TIP3   OH223437   5.907   3.382  16.692  0.4084  0.2990 -0.2227
  649TIP3    H123438   5.915   3.403  16.785 -0.4202 -0.5212  0.0533
  649TIP3    H223439   5.962   3.446  16.648  1.0275  0.5352  0.8534
  650TIP3   OH223440   5.379   2.546  12.143 -0.1252  0.3050  0.3326
  650TIP3    H123441   5.450   2.608  12.157 -0.1191  0.6766 -1.2136
  650TIP3    H223442   5.315   2.566  12.212  1.6077 -0.6087  2.2910
  651TIP3   OH223443   2.382   1.993   2.166 -0.4203  0.1463 -0.3405
  651TIP3    H123444   2.331   1.963   2.241 -1.4272  1.0740 -0.6160
  651TIP3    H223445   2.330   1.966   2.090 -0.1478  0.4866 -0.6495
  652TIP3   OH223446   0.639   2.611  16.308 -0.3206  0.0744 -0.6407
  652TIP3    H123447   0.649   2.528  16.261  0.7405 -0.3041  0.2068
  652TIP3    H223448   0.632   2.677  16.239 -0.5681 -0.6574 -1.3246
  653TIP3   OH223449   0.738   5.719   4.964  0.6601  0.7225 -0.4459
  653TIP3    H123450   0.681   5.679   4.898  1.0877  0.4326 -0.6450
  653TIP3    H223451   0.790   5.646   4.998  0.1961  0.8051  0.4795
  654TIP3   OH223452   4.258   5.180   3.066  0.1076  1.1948  0.0854
  654TIP3    H123453   4.199   5.169   2.992  1.3818  0.9424 -0.9488
  654TIP3    H223454   4.298   5.093   3.078  0.6988  1.4965  0.3575
  655TIP3   OH223455   3.514   1.228  15.096 -0.2248  0.0876 -0.6052
  655TIP3    H123456   3.482   1.140  15.114 -1.4182  0.8682  1.5736
  655TIP3    H223457   3.447   1.286  15.132  0.7198  1.8997 -1.5901
  656TIP3   OH223458   6.400   4.961  14.315  0.1139  0.4803  0.0749
  656TIP3    H123459   6.448   4.968  14.397 -0.5610 -2.1184  0.8011
  656TIP3    H223460   6.323   5.016  14.327 -0.0507  0.0096  1.2778
  657TIP3   OH223461   3.448   4.757  13.388  0.0100  0.0176 -0.1940
  657TIP3    H123462   3.426   4.774  13.297  0.8356 -1.8641 -0.8016
  657TIP3    H223463   3.377   4.702  13.420  0.2414 -0.1736 -0.0114
  658TIP3   OH223464   4.999   2.765  12.508 -0.5310 -0.2892  0.4016
  658TIP3    H123465   4.914   2.782  12.468 -0.2779 -1.0734 -0.5199
  658TIP3    H223466   4.983   2.695  12.571 -0.2667 -1.8208 -1.1524
  659TIP3   OH223467   4.686   4.369   1.468  0.1162  0.6216 -0.1982
  659TIP3    H123468   4.751   4.438   1.459 -0.2194  0.7828 -1.7802
  659TIP3    H223469   4.633   4.376   1.388 -2.1743  0.8171  1.2511
  660TIP3   OH223470   3.212   1.334  12.363 -0.5542 -0.4304  0.3629
  660TIP3    H123471   3.214   1.277  12.286  1.7644 -0.7627  0.6136
  660TIP3    H223472   3.155   1.406  12.337 -3.5782 -2.7381  0.0195
  661TIP3   OH223473   3.677   6.530   4.677 -0.3654 -0.4623 -0.8339
  661TIP3    H123474   3.680   6.597   4.746  0.0245 -0.1901 -1.1050
  661TIP3    H223475   3.627   6.571   4.606  0.7205 -0.0598 -1.3947
  662TIP3   OH223476   5.034   1.477  11.273 -0.7072  0.4953 -0.1721
  662TIP3    H123477   5.093   1.417  11.320  0.1298 -1.5058 -3.4278
  662TIP3    H223478   4.947   1.453  11.304 -0.2085 -0.7578  0.3525
  663TIP3   OH223479   5.744   6.626  14.880  0.1842 -0.3366  0.2846
  663TIP3    H123480   5.840   6.630  14.875  0.4807 -1.4668  3.2999
  663TIP3    H223481   5.721   6.687  14.950 -1.3745  0.2472 -0.6889
  664TIP3   OH223482   5.425   0.161  14.504 -0.1173  0.1598  0.1940
  664TIP3    H123483   5.434   0.230  14.569  3.1483  0.3480 -0.2772
  664TIP3    H223484   5.407   0.082  14.555  0.3092  0.6514  1.1191
  665TIP3   OH223485   0.282   0.289   4.692  0.7506 -0.3426 -0.0886
  665TIP3    H123486   0.206   0.258   4.643  0.6210 -0.0216 -0.0954
  665TIP3    H223487   0.260   0.273   4.783 -0.3622  1.9057  0.1045
  666TIP3   OH223488   2.173   2.507  12.008  0.0776 -0.0616 -0.0016
  666TIP3    H123489   2.132   2.437  12.060 -0.4086  0.0723 -0.1995
  666TIP3    H223490   2.238   2.545  12.067 -0.3038 -0.0688  0.4325
  667TIP3   OH223491   1.565   4.816  12.423  0.2051 -0.5300 -0.6998
  667TIP3    H123492   1.579   4.900  12.379  0.5074  0.7327  1.5981
  667TIP3    H223493   1.642   4.764  12.400  1.1623  0.6861 -0.3986
  668TIP3   OH223494   3.321   4.268  13.620 -0.3648  0.3191  0.7019
  668TIP3    H123495   3.327   4.306  13.533  1.6988  1.2304  1.1905
  668TIP3    H223496   3.262   4.328  13.668  1.4628  2.0055  0.9551
  669TIP3   OH223497   4.433   0.974  13.602 -0.7964 -0.1842  0.5916
  669TIP3    H123498   4.409   1.012  13.686 -1.6734  1.4538 -0.3611
  669TIP3    H223499   4.529   0.974  13.603 -0.7878 -0.6386  1.7538
  670TIP3   OH223500   1.950   3.786  16.998  0.1056 -0.1873 -0.4323
  670TIP3    H123501   1.910   3.796  16.912  1.4655  0.5461 -1.0123
  670TIP3    H223502   2.038   3.822  16.988  0.7879 -1.3881  0.8818
  671TIP3   OH223503   1.114   1.273   3.085 -0.1354 -0.0281 -0.0080
  671TIP3    H123504   1.038   1.326   3.106  0.2637  0.1985  0.9003
  671TIP3    H223505   1.090   1.184   3.113  0.9052  0.4921  2.9199
  672TIP3   OH223506   3.261   0.623   3.784 -0.2091  0.8906 -0.1163
  672TIP3    H123507   3.184   0.642   3.730 -0.3697  1.2474  0.2323
  672TIP3    H223508   3.248   0.676   3.863  0.2207  0.6803  0.0964
  673TIP3   OH223509   3.059   5.478  13.944  0.7193 -0.0197 -0.1394
  673TIP3    H123510   3.145   5.435  13.947 -0.6616 -2.9192  2.3122
  673TIP3    H223511   3.003   5.418  13.895 -0.1346  1.6240 -1.3063
  674TIP3   OH223512   2.890   0.198   6.946 -0.1298 -0.4347  0.2575
  674TIP3    H123513   2.881   0.113   6.903 -0.2693 -1.1509  1.6447
  674TIP3    H223514   2.971   0.234   6.911 -0.9506 -0.3148 -1.6703
  675TIP3   OH223515   1.427   3.013   4.498 -0.8372 -0.1055 -0.8216
  675TIP3    H123516   1.399   2.952   4.566 -0.9652 -0.1425 -0.9061
  675TIP3    H223517   1.444   3.095   4.544  1.0565 -0.6702 -0.4304
  676TIP3   OH223518   3.279   3.977  14.339 -0.1230 -0.1335 -0.3146
  676TIP3    H123519   3.327   3.902  14.305  1.4043 -0.6899  2.7470
  676TIP3    H223520   3.228   3.942  14.412 -0.8287  1.5028  0.0293
  677TIP3   OH223521   1.129   5.560  13.199 -0.6943  0.3465 -0.3122
  677TIP3    H123522   1.194   5.528  13.262 -0.0484 -0.6070 -1.4187
  677TIP3    H223523   1.175   5.630  13.152 -1.3505  1.4180  0.5885
  678TIP3   OH223524   2.841   3.677  14.278  0.1345 -0.5660 -0.5646
  678TIP3    H123525   2.816   3.588  14.251 -1.7972 -0.7195  1.4877
  678TIP3    H223526   2.796   3.734  14.216 -2.7063 -0.9666  0.9306
  679TIP3   OH223527   1.620   2.166  16.634  0.1707 -0.0675  0.1546
  679TIP3    H123528   1.593   2.079  16.661 -0.3233 -0.2805 -0.9520
  679TIP3    H223529   1.713   2.158  16.615  0.3296 -0.1193  0.9477
  680TIP3   OH223530   4.928   6.480   3.598 -0.3340 -0.0751  0.2056
  680TIP3    H123531   4.992   6.505   3.531  0.3909  1.9266  1.5527
  680TIP3    H223532   4.935   6.385   3.604  1.7341 -0.0030 -0.4648
  681TIP3   OH223533   6.523   0.386  14.453 -0.3560  0.2671 -0.1452
  681TIP3    H123534   6.432   0.380  14.424  0.1364 -0.7134 -1.6063
  681TIP3    H223535   6.517   0.388  14.549 -1.8706 -0.7492 -0.1779
  682TIP3   OH223536   1.923   4.248  14.539  0.1624 -0.1601 -0.6726
  682TIP3    H123537   1.928   4.316  14.606  0.3496 -0.4460 -0.3916
  682TIP3    H223538   1.962   4.171  14.580 -0.0507 -0.4390 -0.9860
  683TIP3   OH223539   1.680   3.050  14.917 -0.1893 -0.3598 -0.3467
  683TIP3    H123540   1.738   2.982  14.952  1.3100 -0.1673 -2.2863
  683TIP3    H223541   1.686   3.121  14.981  0.7449 -0.8187  0.1035
  684TIP3   OH223542   3.187   0.094   6.510  0.2066 -0.3698  0.1456
  684TIP3    H123543   3.139   0.090   6.427  1.5448  1.3450 -0.7847
  684TIP3    H223544   3.279   0.082   6.485  0.5569 -0.5538  1.4758
  685TIP3   OH223545   5.954   1.598   4.431  0.6770 -0.1449  0.0626
  685TIP3    H123546   5.931   1.551   4.511  1.1572 -1.1070 -0.3452
  685TIP3    H223547   6.045   1.623   4.443  0.2628  1.1962  0.5081
  686TIP3   OH223548   0.316   4.162  11.629 -0.1694 -0.0886 -0.2956
  686TIP3    H123549   0.395   4.113  11.604 -0.6181 -0.5993 -0.7359
  686TIP3    H223550   0.300   4.220  11.554  0.9132  1.4779  0.6184
  687TIP3   OH223551   1.667   4.368   2.912 -0.1522  0.2763  0.2021
  687TIP3    H123552   1.730   4.363   2.840  0.1364  3.2156  0.1141
  687TIP3    H223553   1.717   4.403   2.986 -1.3101  1.1307  0.6167
  688TIP3   OH223554   5.810   2.908   3.967 -0.0174  0.0708  0.0194
  688TIP3    H123555   5.760   2.912   4.049  0.3633 -0.2589  0.2727
  688TIP3    H223556   5.840   2.818   3.962  0.0606  0.1191 -0.4314
  689TIP3   OH223557   1.315   4.018   5.844 -0.4582  0.4824 -0.0415
  689TIP3    H123558   1.307   4.013   5.939  3.0452  3.5784  0.6600
  689TIP3    H223559   1.364   3.940   5.819 -0.0387  0.4132  0.9569
  690TIP3   OH223560   2.029   6.443  10.928 -0.2889 -0.4576 -0.5394
  690TIP3    H123561   2.080   6.470  10.851  1.2307  1.0516  0.9166
  690TIP3    H223562   2.067   6.358  10.953  1.3868  0.4886  0.3225
  691TIP3   OH223563   2.246   1.441   5.379  0.4967 -0.0818  0.2786
  691TIP3    H123564   2.190   1.487   5.317  0.0869 -0.4362  0.3791
  691TIP3    H223565   2.329   1.489   5.377  0.5033 -0.1099 -0.5657
  692TIP3   OH223566   2.883   5.505   3.007  0.4667 -0.1041 -0.0268
  692TIP3    H123567   2.800   5.488   3.052 -0.6730 -0.0100 -1.9635
  692TIP3    H223568   2.941   5.538   3.076 -1.1832  0.1147  1.3435
  693TIP3   OH223569   0.151   1.236   0.492 -0.0384 -0.1660 -0.3916
  693TIP3    H123570   0.237   1.228   0.533  0.2512  0.2457 -0.8953
  693TIP3    H223571   0.158   1.315   0.438 -1.0726  0.4796  0.3736
  694TIP3   OH223572   1.091   4.763   5.497 -0.2875 -0.3188  0.4323
  694TIP3    H123573   1.170   4.786   5.448 -0.8769  1.0820  0.0939
  694TIP3    H223574   1.035   4.721   5.432 -0.5228  0.2988  0.2314
  695TIP3   OH223575   0.840   2.519   3.073 -0.5859 -0.4547  0.4686
  695TIP3    H123576   0.796   2.539   2.991 -0.8074  0.1138  0.7244
  695TIP3    H223577   0.778   2.464   3.121  0.4140 -2.6995 -0.6485
  696TIP3   OH223578   3.733   1.553  13.754  0.0976  0.0546 -0.1166
  696TIP3    H123579   3.663   1.525  13.812  0.4946 -0.8275 -0.0344
  696TIP3    H223580   3.701   1.633  13.712 -1.8290 -1.4139 -1.6200
  697TIP3   OH223581   5.090   1.917   3.340 -0.2516 -0.2392 -0.6389
  697TIP3    H123582   5.010   1.874   3.311 -0.7107 -0.4488  0.8436
  697TIP3    H223583   5.153   1.845   3.351 -0.7478 -0.4833  0.9522
  698TIP3   OH223584   0.164   2.558   4.060  0.1712 -0.4990  0.0210
  698TIP3    H123585   0.194   2.479   4.015  1.1169 -0.8041  1.1295
  698TIP3    H223586   0.071   2.564   4.039  0.5900 -0.5807 -1.9996
  699TIP3   OH223587   0.022   5.253  13.702  0.1862  0.2697 -0.0535
  699TIP3    H123588  -0.004   5.337  13.664 -2.0946 -0.7563 -0.9239
  699TIP3    H223589  -0.008   5.258  13.793  1.2689  0.8727  0.2894
  700TIP3   OH223590   2.323   2.940   3.213  0.3145  0.1560 -0.1383
  700TIP3    H123591   2.272   2.859   3.205  0.9947 -0.2916 -0.0086
  700TIP3    H223592   2.413   2.911   3.225  0.5812  0.9378 -0.1668
  701TIP3   OH223593   2.108   1.312   1.102 -0.1149 -0.1017  0.0604
  701TIP3    H123594   2.040   1.374   1.076 -0.2289 -0.0573  0.4700
  701TIP3    H223595   2.094   1.236   1.046  0.0754  0.2679 -0.5053
  702TIP3   OH223596   5.023   0.259   1.317 -0.1873  0.1761  0.4415
  702TIP3    H123597   5.053   0.187   1.373 -2.0882 -0.2137  1.0433
  702TIP3    H223598   5.096   0.321   1.316  0.4421 -0.4629  2.2428
  703TIP3   OH223599   4.990   1.355  10.322  0.5392 -0.3249 -0.1995
  703TIP3    H123600   4.974   1.313  10.407 -0.2508 -0.8684 -0.6067
  703TIP3    H223601   4.931   1.310  10.261 -0.3613  1.3990 -0.6494
  704TIP3   OH223602   1.764   2.494   3.553 -0.4298  0.3831  0.9340
  704TIP3    H123603   1.770   2.407   3.593  1.5114  0.6743  1.3778
  704TIP3    H223604   1.840   2.541   3.586  0.2062  1.2769 -1.5978
  705TIP3   OH223605   6.345   5.361  11.927 -0.3394 -0.4983 -0.3727
  705TIP3    H123606   6.428   5.315  11.938  0.7490  1.1940 -1.1009
  705TIP3    H223607   6.284   5.315  11.984  1.2010 -1.5462  0.4871
  706TIP3   OH223608   0.774   4.203  12.782  0.6128 -0.3098  0.0104
  706TIP3    H123609   0.856   4.225  12.739  0.3846  1.2870  0.3052
  706TIP3    H223610   0.710   4.198  12.711  1.1440 -2.7899 -0.3657
  707TIP3   OH223611   5.561   6.742  13.691 -0.8301  0.4250 -0.9790
  707TIP3    H123612   5.477   6.715  13.653 -0.5233 -0.5613 -0.9917
  707TIP3    H223613   5.550   6.729  13.785 -0.1716 -1.2947 -1.1054
  708TIP3   OH223614   1.957   4.917  15.845  0.3158 -0.4342 -0.2086
  708TIP3    H123615   1.922   4.980  15.782  0.8396 -1.3071 -1.4187
  708TIP3    H223616   1.880   4.873  15.880  0.0591 -0.6808 -1.0539
  709TIP3   OH223617   3.966   3.171  17.252 -0.5914 -0.0205 -0.0098
  709TIP3    H123618   3.895   3.125  17.297 -1.7936  0.7538 -1.0604
  709TIP3    H223619   3.922   3.232  17.194  0.9119 -0.4449 -1.6914
  710TIP3   OH223620   1.181   3.877   0.165  0.0544  0.3305  0.2933
  710TIP3    H123621   1.263   3.842   0.128  0.5661  1.6549  0.1288
  710TIP3    H223622   1.122   3.883   0.090  1.3686  3.8453 -0.6646
  711TIP3   OH223623   6.271   0.923  11.909  0.1636 -0.8265  0.1331
  711TIP3    H123624   6.188   0.952  11.871 -1.5359 -1.0437  3.3697
  711TIP3    H223625   6.259   0.829  11.924  1.3915 -1.0582 -0.2491
  712TIP3   OH223626   6.571   0.262  11.357  0.5946  0.0467 -0.4672
  712TIP3    H123627   6.516   0.323  11.407 -0.5139 -0.5922 -0.8585
  712TIP3    H223628   6.611   0.317  11.289  0.3833  0.5179 -0.2163
  713TIP3   OH223629   3.971   4.310   5.311  0.0063  0.3170 -0.0588
  713TIP3    H123630   3.925   4.258   5.376 -1.5193  0.0330 -1.3155
  713TIP3    H223631   3.998   4.389   5.358 -0.6969 -0.0634  1.0146
  714TIP3   OH223632   0.894   6.656   3.384  0.0920 -0.1724 -0.1376
  714TIP3    H123633   0.810   6.611   3.394  0.0246 -0.0051  0.0656
  714TIP3    H223634   0.879   6.743   3.421 -0.0453  0.3407 -1.3605
  715TIP3   OH223635   4.592   5.414   0.167  0.5056  0.3045 -0.0055
  715TIP3    H123636   4.668   5.430   0.222  1.8506 -3.8931 -0.2645
  715TIP3    H223637   4.627   5.410   0.078  0.1979 -2.0123 -0.0985
  716TIP3   OH223638   4.287   1.999   2.357  0.0097 -0.0459  0.0631
  716TIP3    H123639   4.193   2.000   2.338  0.5271  1.5323 -3.1661
  716TIP3    H223640   4.298   2.067   2.423 -1.1481 -0.6145  0.8779
  717TIP3   OH223641   3.210   3.891   4.411 -0.0877  0.2231 -0.4806
  717TIP3    H123642   3.180   3.886   4.321 -2.0600  1.6359  0.0335
  717TIP3    H223643   3.129   3.900   4.463  0.8549 -1.9925  1.5755
  718TIP3   OH223644   2.186   4.480  10.964  0.2863 -0.6017 -0.6752
  718TIP3    H123645   2.206   4.572  10.980  0.2544 -0.9646  2.1072
  718TIP3    H223646   2.093   4.478  10.946  0.4065 -0.0376 -1.3736
  719TIP3   OH223647   3.214   1.326   3.343  0.2045  0.1525 -0.2660
  719TIP3    H123648   3.185   1.414   3.319 -0.8013  0.1733  0.9659
  719TIP3    H223649   3.138   1.271   3.327  0.9929 -0.6232 -1.5504
  720TIP3   OH223650   4.841   4.620  12.903  0.3839 -0.1753 -0.1831
  720TIP3    H123651   4.801   4.552  12.959 -1.5784  1.2593  0.2607
  720TIP3    H223652   4.885   4.678  12.964 -0.2267  0.4024 -0.2797
  721TIP3   OH223653   6.703   0.351  10.584  0.1860 -0.0480  0.2667
  721TIP3    H123654   6.665   0.287  10.524 -1.1976 -0.4092  1.4709
  721TIP3    H223655   6.742   0.417  10.527  1.2917 -1.7155 -1.0049
  722TIP3   OH223656   0.019   3.613   2.367 -0.3541 -0.0796 -0.2999
  722TIP3    H123657  -0.047   3.662   2.416  0.6716  0.5360  0.4885
  722TIP3    H223658   0.055   3.552   2.431  0.5049  0.2412 -0.4754
  723TIP3   OH223659   1.264   1.652  12.123 -0.0462 -0.0372 -0.5701
  723TIP3    H123660   1.285   1.746  12.116  1.7907 -0.5208 -2.4378
  723TIP3    H223661   1.224   1.629  12.040  0.4404 -1.1251 -0.5195
  724TIP3   OH223662   2.974   1.606   5.783  0.1509  0.4148  0.2305
  724TIP3    H123663   3.031   1.681   5.768  0.2289  0.3510  0.2072
  724TIP3    H223664   3.027   1.530   5.757 -0.6539  0.4951 -1.8154
  725TIP3   OH223665   4.774   6.217   0.754  0.2403 -0.6246 -0.8357
  725TIP3    H123666   4.849   6.276   0.746  0.7859 -1.5496 -3.5292
  725TIP3    H223667   4.703   6.262   0.707 -0.6330 -0.2311  0.7973
  726TIP3   OH223668   2.602   2.793  16.381  0.6575  0.1939  0.1321
  726TIP3    H123669   2.653   2.855  16.328  0.0417  0.4606 -0.1557
  726TIP3    H223670   2.615   2.709  16.338  1.2730  0.1644  0.3630
  727TIP3   OH223671   4.859   3.723  12.695  0.1249  0.4281  0.2214
  727TIP3    H123672   4.895   3.796  12.645  0.4688 -0.0699 -0.2670
  727TIP3    H223673   4.901   3.645  12.658  0.6472  0.0701  1.5017
  728TIP3   OH223674   3.524   2.219   0.253 -0.2346  0.5358  0.0540
  728TIP3    H123675   3.498   2.287   0.315  0.3066  2.9109 -2.1819
  728TIP3    H223676   3.604   2.252   0.213 -0.2984 -1.1454 -1.6085
  729TIP3   OH223677   0.869   4.646  10.598  0.3380  0.7209 -0.0982
  729TIP3    H123678   0.876   4.613  10.688 -2.1557  1.5283  0.4849
  729TIP3    H223679   0.936   4.598  10.549  0.2456 -1.4183  1.7181
  730TIP3   OH223680   0.942   6.486  12.703  0.2411  0.0430 -0.1262
  730TIP3    H123681   0.934   6.392  12.686  2.6079 -0.3092  0.3090
  730TIP3    H223682   0.955   6.525  12.616  0.4916 -0.2100 -0.2054
  731TIP3   OH223683   6.216   0.706  14.422  0.4816  0.0415 -0.7513
  731TIP3    H123684   6.302   0.724  14.384  0.9540 -0.0267  0.2610
  731TIP3    H223685   6.235   0.661  14.504 -0.5110  0.3829 -0.3230
  732TIP3   OH223686   5.223   4.602   6.693  0.3593  0.3047  0.0235
  732TIP3    H123687   5.135   4.609   6.728  0.0561  2.3064 -0.9917
  732TIP3    H223688   5.274   4.666   6.743  1.0378 -0.2066  0.0069
  733TIP3   OH223689   3.546   3.097   5.022  0.5641 -0.1200  0.0659
  733TIP3    H123690   3.622   3.069   4.969  0.2599 -2.1966  0.6134
  733TIP3    H223691   3.521   3.182   4.985  3.7727  1.1730  0.5330
  734TIP3   OH223692   0.057   3.969   3.113  0.1638  0.6922 -0.2822
  734TIP3    H123693   0.026   3.915   3.186  0.4021 -0.8437 -1.2771
  734TIP3    H223694   0.059   4.058   3.148 -0.2604  0.0677  1.4083
  735TIP3   OH223695   6.384   3.536  13.164  0.5040 -0.3543  0.6041
  735TIP3    H123696   6.408   3.574  13.248 -0.9573  1.0544  0.4558
  735TIP3    H223697   6.434   3.587  13.100 -1.0926  1.1049  0.4371
  736TIP3   OH223698   5.039   2.395   2.465 -0.7243  0.7347  0.6478
  736TIP3    H123699   5.040   2.323   2.528 -1.2007  3.1278  3.6704
  736TIP3    H223700   4.954   2.437   2.478 -0.4048  1.9479 -0.8727
  737TIP3   OH223701   0.280   4.827  14.332 -0.5026 -0.2381 -0.4357
  737TIP3    H123702   0.208   4.831  14.269 -1.4510 -2.0200  0.4455
  737TIP3    H223703   0.256   4.755  14.391  0.6396  0.9303  1.5790
  738TIP3   OH223704   0.331   2.758   4.157 -0.0930  0.3906 -0.1037
  738TIP3    H123705   0.291   2.680   4.118 -3.1231  0.3077  2.6991
  738TIP3    H223706   0.264   2.825   4.151  0.8455  1.5218  1.2597
  739TIP3   OH223707   0.198   0.643   3.831 -0.2659 -0.5392 -0.0602
  739TIP3    H123708   0.281   0.689   3.847 -0.3711 -0.6405  0.8042
  739TIP3    H223709   0.131   0.699   3.871 -0.4332 -1.2514  0.6719
  740TIP3   OH223710   5.677   2.103   0.853 -0.3131  0.2090 -0.4002
  740TIP3    H123711   5.684   2.150   0.936  0.0231 -0.2671 -0.1581
  740TIP3    H223712   5.720   2.019   0.869  0.6330  0.4967 -1.3497
  741TIP3   OH223713   2.864   1.345  14.987  0.1270 -0.3792  0.2140
  741TIP3    H123714   2.851   1.271  15.046 -0.3604 -0.5571 -0.1130
  741TIP3    H223715   2.829   1.316  14.903 -1.6653  0.8239  0.4947
  742TIP3   OH223716   3.369   4.658   5.361 -0.3922 -0.2800  0.6867
  742TIP3    H123717   3.419   4.672   5.280 -1.5220  1.5803  0.2522
  742TIP3    H223718   3.290   4.612   5.332 -0.3913 -0.3961  0.8697
  743TIP3   OH223719   5.496   2.402   2.317  0.0021  0.0301  0.3344
  743TIP3    H123720   5.566   2.387   2.253 -0.8525 -0.3326 -0.5598
  743TIP3    H223721   5.463   2.314   2.337 -1.8266  0.2961 -1.1950
  744TIP3   OH223722   6.262   1.442  14.554 -0.1474 -0.2763  0.5476
  744TIP3    H123723   6.300   1.529  14.543 -1.0372 -0.0021 -0.4936
  744TIP3    H223724   6.295   1.391  14.480 -1.8520 -0.0063 -0.4221
  745TIP3   OH223725   0.683   6.518   6.593 -0.1255  0.0978 -0.5670
  745TIP3    H123726   0.770   6.476   6.590 -0.8555 -1.4700 -0.7057
  745TIP3    H223727   0.629   6.464   6.535 -1.1893  1.0861 -0.5155
  746TIP3   OH223728   2.772   2.615  14.895 -0.2823  1.2520 -0.0611
  746TIP3    H123729   2.803   2.628  14.805  1.8730 -1.9309  0.0801
  746TIP3    H223730   2.686   2.573  14.884  0.8303 -1.0056 -0.7933
  747TIP3   OH223731   5.719   4.067  11.816  0.3221  0.6653  0.0925
  747TIP3    H123732   5.691   3.997  11.757  0.1911  0.5964  0.2345
  747TIP3    H223733   5.811   4.083  11.794  0.6845 -0.3263  0.8217
  748TIP3   OH223734   2.092   2.595  16.559 -0.5425 -0.3358  0.1280
  748TIP3    H123735   2.064   2.506  16.540  0.2819 -0.6551  0.3440
  748TIP3    H223736   2.183   2.598  16.529 -0.9949  0.8803 -1.2681
  749TIP3   OH223737   2.796   0.713  13.491 -0.0390  0.6605 -0.6033
  749TIP3    H123738   2.865   0.722  13.425  2.8211 -1.2437  1.8124
  749TIP3    H223739   2.829   0.763  13.566 -0.4869 -1.5095  1.1379
  750TIP3   OH223740   2.680   3.098  12.499 -0.2644  0.1381 -0.2186
  750TIP3    H123741   2.587   3.109  12.518 -0.0039  0.5733  0.8651
  750TIP3    H223742   2.725   3.142  12.571  0.7841  0.3787 -0.9964
  751TIP3   OH223743   3.086   5.911   5.419  0.4368 -0.2522  0.3656
  751TIP3    H123744   3.169   5.953   5.396 -0.2480 -0.1299 -2.1937
  751TIP3    H223745   3.024   5.983   5.430  0.3517 -0.4008  0.8989
  752TIP3   OH223746   1.137   3.851   1.580  0.0391  0.2309 -0.2174
  752TIP3    H123747   1.203   3.782   1.584  0.9881  1.1113 -0.2884
  752TIP3    H223748   1.063   3.811   1.536  1.5864  0.0382 -2.8306
  753TIP3   OH223749   4.461   0.349  15.992  0.1971  0.1967  0.3039
  753TIP3    H123750   4.415   0.265  16.003  0.8125 -0.2454 -0.3753
  753TIP3    H223751   4.457   0.390  16.078 -1.1713  0.0196  0.3504
  754TIP3   OH223752   3.126   5.145   5.080 -0.1022 -0.4052 -0.4188
  754TIP3    H123753   3.194   5.131   5.146 -1.6292 -0.5393  1.2237
  754TIP3    H223754   3.124   5.064   5.029 -0.4018 -1.2522  0.8751
  755TIP3   OH223755   4.534   1.520   0.331  0.2751 -0.3268  0.3930
  755TIP3    H123756   4.561   1.603   0.291  0.5565 -0.7897 -0.4150
  755TIP3    H223757   4.589   1.454   0.287 -0.2978 -0.9917  0.6561
  756TIP3   OH223758   1.902   0.878  14.622 -0.3142 -0.2734 -1.1343
  756TIP3    H123759   1.964   0.805  14.630 -0.8104 -0.5471  0.6263
  756TIP3    H223760   1.957   0.955  14.608  0.2464 -0.8869 -2.4872
  757TIP3   OH223761   1.657   1.876   4.762  0.6085 -0.2212 -0.0943
  757TIP3    H123762   1.694   1.793   4.733 -0.4131 -1.3363  1.6197
  757TIP3    H223763   1.612   1.855   4.844 -0.9375  1.7301 -0.3738
  758TIP3   OH223764   5.304   2.470  11.886 -0.6225  0.1309 -0.3641
  758TIP3    H123765   5.220   2.495  11.847 -1.5966 -0.1276  1.4819
  758TIP3    H223766   5.289   2.476  11.980  0.2349 -3.6116  0.1547
  759TIP3   OH223767   5.391   5.550  11.028 -0.3664 -0.0691  0.9256
  759TIP3    H123768   5.444   5.605  10.970 -1.2480  0.5383  0.6715
  759TIP3    H223769   5.391   5.464  10.986 -2.3339  0.7373 -0.9352
  760TIP3   OH223770   2.770   5.481  11.350 -0.1270 -0.2522  0.2983
  760TIP3    H123771   2.734   5.524  11.273  0.0222 -0.6063  0.0282
  760TIP3    H223772   2.802   5.553  11.405 -0.5292  0.0188  0.1841
  761TIP3   OH223773   0.501   6.077   0.029  0.0785 -0.0804 -0.1944
  761TIP3    H123774   0.443   6.078  -0.047 -0.1507 -1.5541 -0.0740
  761TIP3    H223775   0.543   5.991   0.025  1.3851  0.5056  0.3746
  762TIP3   OH223776   1.824   1.631  13.555  0.4158  0.1937 -0.0153
  762TIP3    H123777   1.763   1.703  13.572  0.1043  0.0300 -0.4352
  762TIP3    H223778   1.768   1.557  13.532  0.4756 -1.1177  3.3747
  763TIP3   OH223779   5.307   2.318   1.750 -0.3277 -0.0783 -0.0384
  763TIP3    H123780   5.376   2.254   1.765 -1.1731 -0.4446  2.8875
  763TIP3    H223781   5.227   2.275   1.780 -1.1830  1.7346  0.4407
  764TIP3   OH223782   3.643   0.394   0.332  0.4699  0.2270 -0.5847
  764TIP3    H123783   3.655   0.447   0.411 -1.1076  2.2523 -1.5936
  764TIP3    H223784   3.664   0.454   0.260  2.0288 -1.6093 -1.7298
  765TIP3   OH223785   2.801   1.003   5.105 -0.3974  0.1556 -0.7394
  765TIP3    H123786   2.790   0.923   5.157 -0.9813 -0.0400 -1.1566
  765TIP3    H223787   2.747   1.069   5.150 -0.5262  0.1110 -0.8278
  766TIP3   OH223788   0.564   0.315   1.879  0.5878  0.3292 -0.3214
  766TIP3    H123789   0.595   0.244   1.823 -3.0220 -1.2565 -0.6209
  766TIP3    H223790   0.554   0.389   1.819 -0.1557 -0.3932 -1.1320
  767TIP3   OH223791   2.392   2.986   4.599  0.3319  0.3034 -0.6201
  767TIP3    H123792   2.472   2.962   4.553  0.6503  3.6178 -2.0743
  767TIP3    H223793   2.324   2.981   4.532 -0.7122 -1.9326  0.4701
  768TIP3   OH223794   2.933   5.133  15.315 -0.0382  0.3421  0.6027
  768TIP3    H123795   2.903   5.184  15.390  0.0469  0.9285  0.2452
  768TIP3    H223796   2.926   5.193  15.241  0.1969 -0.1248  0.1962
  769TIP3   OH223797   0.795   2.947   3.576  0.2645 -0.4062  0.1490
  769TIP3    H123798   0.807   3.012   3.506  0.1368  0.3230  0.7958
  769TIP3    H223799   0.778   2.865   3.530  0.7839 -0.0544 -0.6878
  770TIP3   OH223800   1.783   3.701   0.579 -0.0554 -0.1290  0.0256
  770TIP3    H123801   1.800   3.749   0.661 -2.7665  0.0150  0.6347
  770TIP3    H223802   1.855   3.639   0.572  0.3494 -0.0600  2.4878
  771TIP3   OH223803   6.437   0.826  13.547 -0.2652  0.3695  0.0019
  771TIP3    H123804   6.527   0.847  13.526  0.2397  1.6290  2.9253
  771TIP3    H223805   6.396   0.910  13.569 -1.5305 -0.3892  0.7424
  772TIP3   OH223806   3.189   4.419   4.239 -0.2958  0.0333 -0.2957
  772TIP3    H123807   3.227   4.453   4.320 -0.5038 -1.9013  0.6706
  772TIP3    H223808   3.200   4.490   4.176  1.0769  1.1088  1.0687
  773TIP3   OH223809   1.781   2.315   3.863  0.4914 -0.0662 -0.3938
  773TIP3    H123810   1.758   2.281   3.776 -0.4952  0.0736 -0.2027
  773TIP3    H223811   1.822   2.241   3.907  0.3698 -0.3479 -0.7468
  774TIP3   OH223812   2.975   0.817   3.216  0.1376  0.0835 -0.1814
  774TIP3    H123813   3.056   0.770   3.237 -0.3093 -1.1546 -1.1048
  774TIP3    H223814   3.002   0.908   3.208  1.2064 -0.1219  0.7630
  775TIP3   OH223815   6.818   6.541   4.690  0.0915 -0.5981  0.0102
  775TIP3    H123816   6.834   6.518   4.781 -1.0376 -1.1274  0.0891
  775TIP3    H223817   6.840   6.462   4.641 -0.7559 -0.8132 -0.0267
  776TIP3   OH223818   4.086   3.890  16.864 -0.2240 -0.1590  0.4203
  776TIP3    H123819   4.098   3.948  16.939 -1.4519 -0.6004  0.9806
  776TIP3    H223820   4.006   3.922  16.823 -1.1395 -1.6735  0.9609
  777TIP3   OH223821   0.909   2.425   0.210 -0.0206 -0.4097  0.2330
  777TIP3    H123822   0.818   2.429   0.182 -0.0854  0.3809  0.5329
  777TIP3    H223823   0.945   2.511   0.187  0.4457 -0.4469  0.8041
  778TIP3   OH223824   3.197   4.810  14.243  0.0932 -0.2168 -0.5387
  778TIP3    H123825   3.150   4.846  14.168 -0.1793  0.2126 -0.1641
  778TIP3    H223826   3.249   4.738  14.206 -0.9153 -0.7576 -0.9383
  779TIP3   OH223827   6.258   2.653  13.621  0.3544  0.2556 -0.0691
  779TIP3    H123828   6.299   2.688  13.542 -0.0465 -0.4367 -0.5956
  779TIP3    H223829   6.326   2.598  13.660 -0.3423 -1.7726 -1.5223
  780TIP3   OH223830   3.577   5.694  13.278  0.4009  0.2518 -0.6248
  780TIP3    H123831   3.564   5.633  13.206 -0.1746  0.0915 -0.3978
  780TIP3    H223832   3.654   5.746  13.254  1.0239 -0.7036 -0.7168
  781TIP3   OH223833   6.186   3.699  14.294 -0.2601  0.0572 -0.3791
  781TIP3    H123834   6.154   3.767  14.235 -0.3224 -0.8074 -1.3796
  781TIP3    H223835   6.281   3.699  14.282 -0.3475 -0.7692 -1.2560
  782TIP3   OH223836   4.294   5.331   1.516  0.5454 -0.2048  0.3194
  782TIP3    H123837   4.316   5.250   1.563  2.8226  0.1252 -0.0930
  782TIP3    H223838   4.378   5.367   1.488 -0.5433  1.2584 -1.2998
  783TIP3   OH223839   3.792   0.980   3.981  0.0043  0.5731  0.0070
  783TIP3    H123840   3.868   0.923   3.995  0.2570 -0.1117 -3.2895
  783TIP3    H223841   3.800   1.049   4.047  2.7695 -0.1826  0.5632
  784TIP3   OH223842   5.601   5.837   4.498  0.1525  0.4770 -0.2735
  784TIP3    H123843   5.547   5.836   4.577 -0.7800 -1.7707 -0.8759
  784TIP3    H223844   5.610   5.745   4.474  0.8299  1.0744 -2.5074
  785TIP3   OH223845   2.149   1.938   0.327 -0.4303  0.3801  0.5969
  785TIP3    H123846   2.185   1.940   0.416  0.1293  1.6494  0.3631
  785TIP3    H223847   2.166   2.025   0.292 -1.4771  0.2005 -0.4372
  786TIP3   OH223848   5.628   0.790  10.851 -0.1966 -0.1947  0.6667
  786TIP3    H123849   5.578   0.780  10.770 -1.7921 -0.5766  1.6588
  786TIP3    H223850   5.711   0.828  10.823 -1.3900  1.3869 -0.9638
  787TIP3   OH223851   3.841   6.289   3.664 -0.3007  0.0435  0.3552
  787TIP3    H123852   3.929   6.284   3.701 -0.3791 -0.4719  0.4724
  787TIP3    H223853   3.804   6.369   3.703  0.0862  0.2220  0.3614
  788TIP3   OH223854   3.815   2.478  11.786  0.0546 -0.0426  0.1255
  788TIP3    H123855   3.866   2.522  11.853  0.8355 -1.9225  0.8424
  788TIP3    H223856   3.855   2.505  11.703  0.9033  0.0855  0.5741
  789TIP3   OH223857   6.560   3.916  11.286 -0.0448 -0.0515 -0.3891
  789TIP3    H123858   6.498   3.988  11.277  1.0161  1.1585  1.3663
  789TIP3    H223859   6.610   3.916  11.205  1.2910  2.5754  0.3333
  790TIP3   OH223860   5.908   1.398   0.412 -0.0757 -0.3410  0.6333
  790TIP3    H123861   5.988   1.451   0.423 -1.1489  1.9390 -1.4967
  790TIP3    H223862   5.940   1.309   0.400  2.1678  0.4875 -0.0594
  791TIP3   OH223863   4.915   3.166   2.682 -0.2401 -0.1549  0.0802
  791TIP3    H123864   4.920   3.127   2.595 -1.1065  1.2332 -0.6433
  791TIP3    H223865   4.981   3.120   2.733  0.2706 -1.0295 -1.3021
  792TIP3   OH223866   3.062   1.795   1.570 -0.2522 -0.1708 -0.4275
  792TIP3    H123867   3.054   1.770   1.662  0.2683  0.4137 -0.2132
  792TIP3    H223868   3.092   1.886   1.572  0.9623 -0.5218 -1.1571
  793TIP3   OH223869   0.276   6.650   4.560 -0.5267  0.3493  0.6060
  793TIP3    H123870   0.204   6.596   4.527 -0.5631  0.2888  0.7823
  793TIP3    H223871   0.327   6.590   4.615 -0.1145  0.2878  0.1607
  794TIP3   OH223872   3.842   6.403  16.818 -0.0290  0.2156  0.1755
  794TIP3    H123873   3.852   6.428  16.910 -1.0400 -0.4253  0.4686
  794TIP3    H223874   3.886   6.319  16.811  1.5971  1.0693 -0.3523
  795TIP3   OH223875   3.742   5.302  17.207 -0.6852 -0.2391 -0.0926
  795TIP3    H123876   3.810   5.349  17.159 -0.3297 -1.3870 -0.7773
  795TIP3    H223877   3.747   5.335  17.296 -0.0715  0.5848 -0.4201
  796TIP3   OH223878   2.373   1.343   0.234  0.3411 -0.0458  0.4132
  796TIP3    H123879   2.388   1.250   0.245 -1.4171 -0.2152  1.9266
  796TIP3    H223880   2.395   1.381   0.319  0.3208  0.8040  0.0482
  797TIP3   OH223881   4.033   3.149  13.641 -0.3769 -0.1268 -0.3417
  797TIP3    H123882   4.067   3.090  13.709 -1.3889 -0.3754 -0.0237
  797TIP3    H223883   4.101   3.215  13.630 -1.1859  1.4964  2.8451
  798TIP3   OH223884   3.569   5.996  16.672  0.0072  0.1254  0.0251
  798TIP3    H123885   3.518   6.069  16.638 -1.0176 -0.8996 -0.7074
  798TIP3    H223886   3.547   5.922  16.615  0.1641 -1.0337  1.4084
  799TIP3   OH223887   5.015   4.030  13.640  0.5871  0.0154 -0.0783
  799TIP3    H123888   5.098   3.990  13.615 -0.1578 -1.3298 -0.5328
  799TIP3    H223889   4.952   3.958  13.638 -0.6470  1.0469  0.0124
  800TIP3   OH223890   0.958   5.104   4.984  0.4094  0.1125  0.4150
  800TIP3    H123891   0.922   5.035   5.040  0.7247 -0.3029  0.1105
  800TIP3    H223892   0.881   5.153   4.955 -0.0431 -1.3962 -1.0730
  801TIP3   OH223893   2.084   3.556   4.702  0.0951 -0.0355 -0.0716
  801TIP3    H123894   2.055   3.484   4.757 -0.5474  0.5553  0.3833
  801TIP3    H223895   2.172   3.531   4.674  1.1292  0.3528  2.5511
  802TIP3   OH223896   3.459   0.480   3.632 -0.5233  0.1950  0.2510
  802TIP3    H123897   3.538   0.492   3.686  0.0044  3.2644 -0.9892
  802TIP3    H223898   3.388   0.515   3.686 -0.7190 -0.6200  0.5395
  803TIP3   OH223899   2.828   3.421   4.712  0.3459 -0.4835  0.6133
  803TIP3    H123900   2.838   3.477   4.789  0.7900  1.9433 -1.0928
  803TIP3    H223901   2.889   3.457   4.647 -1.8600 -0.7125 -1.7657
  804TIP3   OH223902   5.171   2.638   3.050 -0.0385  0.3018 -0.3535
  804TIP3    H123903   5.205   2.573   3.111  0.9101 -1.1161 -2.2967
  804TIP3    H223904   5.242   2.701   3.038  0.3881 -0.3307 -1.2152
  805TIP3   OH223905   5.823   5.840  16.665  0.1919 -0.4267  0.0838
  805TIP3    H123906   5.916   5.858  16.675 -0.1825  1.9599  0.0703
  805TIP3    H223907   5.780   5.913  16.711 -1.7207 -2.5932  2.0394
  806TIP3   OH223908   1.799   3.956   1.622 -0.0914 -0.0664 -0.3011
  806TIP3    H123909   1.872   4.002   1.580 -0.2702  0.5046  0.0213
  806TIP3    H223910   1.804   3.980   1.714 -0.7653  0.0761 -0.2953
  807TIP3   OH223911   6.463   5.563   4.778  0.1162 -0.6722 -0.0799
  807TIP3    H123912   6.515   5.491   4.815 -0.6385 -2.1196 -1.6734
  807TIP3    H223913   6.376   5.551   4.816  0.2637  0.1411  0.5424
  808TIP3   OH223914   4.924   2.896   4.273  0.0371  0.5910  0.0601
  808TIP3    H123915   4.990   2.848   4.224  0.5499 -1.0683  2.2645
  808TIP3    H223916   4.974   2.953   4.332 -0.5492  1.0634  0.1187
  809TIP3   OH223917   3.552   6.375   5.069  0.4827 -0.2440  0.3193
  809TIP3    H123918   3.541   6.428   5.148  0.3372 -1.0161  0.8289
  809TIP3    H223919   3.645   6.384   5.047  0.2200  1.1888 -0.3157
  810TIP3   OH223920   1.351   3.996   2.766 -0.7688  0.5310  0.0429
  810TIP3    H123921   1.372   4.047   2.844 -2.6552 -1.1521  1.7787
  810TIP3    H223922   1.436   3.969   2.731  0.1267  0.4190  2.1889
  811TIP3   OH223923   0.487   4.969   2.346 -0.3285  0.0681 -0.0326
  811TIP3    H123924   0.561   4.997   2.399  0.4568 -0.3876 -0.8731
  811TIP3    H223925   0.411   4.979   2.404  0.7584 -2.9862  2.1703
  812TIP3   OH223926   2.622   5.510   5.859 -0.3235  0.6995 -0.2062
  812TIP3    H123927   2.698   5.477   5.907 -1.2964  0.9237  1.5540
  812TIP3    H223928   2.631   5.472   5.771  0.1434 -1.9103  0.8799
  813TIP3   OH223929   5.961   0.588  15.750  0.1892  0.2777  0.1828
  813TIP3    H123930   5.976   0.496  15.729 -1.6756  0.1974 -1.0777
  813TIP3    H223931   6.029   0.635  15.701  0.4194 -0.3629 -0.1270
  814TIP3   OH223932   5.308   4.963  12.088 -0.3113 -0.5055 -0.1895
  814TIP3    H123933   5.226   4.965  12.138 -0.4650 -2.0490 -0.3235
  814TIP3    H223934   5.363   4.901  12.135  0.2727 -0.5093 -0.8622
  815TIP3   OH223935   6.643   1.521   5.865  0.4707  0.3512  0.2152
  815TIP3    H123936   6.701   1.597   5.872  1.4896 -0.2472 -1.3791
  815TIP3    H223937   6.697   1.453   5.826 -0.8953 -0.7145  0.1145
  816TIP3   OH223938   4.246   3.904  12.315 -0.5499 -0.2495 -0.0793
  816TIP3    H123939   4.154   3.884  12.333 -0.9581  1.6592  0.1466
  816TIP3    H223940   4.252   3.906  12.219 -0.5619 -1.1281 -0.1004
  817TIP3   OH223941   0.666   4.486   3.208  0.0851  0.1831  0.2787
  817TIP3    H123942   0.749   4.439   3.199 -0.3353 -0.2966 -1.4831
  817TIP3    H223943   0.677   4.564   3.153 -0.8574 -0.2330 -0.5174
  818TIP3   OH223944   6.689   0.743   4.424 -0.5027  0.3126  0.7264
  818TIP3    H123945   6.708   0.779   4.337 -0.8706 -1.1367  0.0134
  818TIP3    H223946   6.602   0.704   4.415 -0.5106  0.0805  1.7271
  819TIP3   OH223947   5.270   5.185  14.127  0.3179 -0.0348  0.0493
  819TIP3    H123948   5.209   5.127  14.082 -1.2360  0.0771  1.8524
  819TIP3    H223949   5.341   5.199  14.065 -0.1732 -2.3342 -1.1315
  820TIP3   OH223950   2.827   0.467   0.187 -0.7158  0.0790 -0.0421
  820TIP3    H123951   2.884   0.442   0.260 -0.5815 -1.5609 -0.6778
  820TIP3    H223952   2.864   0.550   0.157 -0.7685  0.7962  1.7242
  821TIP3   OH223953   5.563   0.364   0.127 -0.2235  0.0907 -0.5276
  821TIP3    H123954   5.499   0.295   0.109  0.3301 -0.9755  1.3131
  821TIP3    H223955   5.536   0.400   0.211  1.1210  0.1768 -0.1074
  822TIP3   OH223956   2.952   0.005   3.072 -0.4141  0.6463  0.2678
  822TIP3    H123957   2.924  -0.041   2.993 -1.2839 -0.3305  1.1132
  822TIP3    H223958   3.010   0.074   3.040  0.8158 -0.9099 -1.0672
  823TIP3   OH223959   2.083   4.066   4.938  0.1262 -0.5395 -0.1708
  823TIP3    H123960   2.001   4.099   4.974  1.3234 -0.1573  2.4778
  823TIP3    H223961   2.080   4.090   4.846 -1.6039  1.8274  0.4003
  824TIP3   OH223962   0.299   5.185   0.558  0.0713 -0.0110 -0.8003
  824TIP3    H123963   0.298   5.091   0.542 -0.8245  0.1910 -2.1451
  824TIP3    H223964   0.367   5.219   0.500 -0.9177  0.3588 -1.7869
  825TIP3   OH223965   4.163   4.135   0.523  0.0912 -0.1902  0.4013
  825TIP3    H123966   4.202   4.175   0.601  0.2507 -0.5466  0.5105
  825TIP3    H223967   4.069   4.140   0.538  0.1301 -0.6834  0.8400
  826TIP3   OH223968   4.417   1.059  13.223  0.4071 -0.4762 -0.1042
  826TIP3    H123969   4.381   0.974  13.198  0.1661  0.1238 -1.8758
  826TIP3    H223970   4.450   1.097  13.142  0.9345  0.9456  0.7331
  827TIP3   OH223971   2.677   6.187  12.069 -0.4004  0.2357 -0.0962
  827TIP3    H123972   2.699   6.123  12.001  0.2827 -0.9599  1.1797
  827TIP3    H223973   2.761   6.207  12.111 -1.0417 -0.7176  1.7711
  828TIP3   OH223974   6.333   0.013  11.306 -0.0952 -0.0904  0.3704
  828TIP3    H123975   6.345  -0.081  11.294  0.1797 -0.1277  0.9070
  828TIP3    H223976   6.414   0.043  11.347 -0.3348  0.3126  0.5557
  829TIP3   OH223977   0.604   3.463  14.775  0.1137  0.2740 -0.4046
  829TIP3    H123978   0.514   3.450  14.804  0.0806  1.8528  0.2951
  829TIP3    H223979   0.598   3.473  14.680 -0.5929  1.3737 -0.2599
  830TIP3   OH223980   1.192   3.470   5.292 -0.3714  0.4482 -0.0898
  830TIP3    H123981   1.133   3.546   5.293  0.4282  1.1267 -1.3681
  830TIP3    H223982   1.275   3.504   5.324 -0.3434 -0.2251  0.5814
  831TIP3   OH223983   4.703   1.468   3.168 -0.0827 -0.2186 -0.4722
  831TIP3    H123984   4.712   1.499   3.258  2.4668 -2.3246  0.1365
  831TIP3    H223985   4.646   1.391   3.175  0.4272 -0.6070 -0.5983
  832TIP3   OH223986   0.117   4.729  12.120  0.3010  0.3129  0.2022
  832TIP3    H123987   0.045   4.717  12.059  1.3795  2.1563 -1.5428
  832TIP3    H223988   0.162   4.644  12.121 -0.1080  0.0638 -1.0858
  833TIP3   OH223989   4.898   3.963  15.434 -0.5541  0.1638  0.3865
  833TIP3    H123990   4.917   4.055  15.454  0.5325  0.1152 -0.3579
  833TIP3    H223991   4.980   3.928  15.400 -1.8280 -0.1768 -2.6108
  834TIP3   OH223992   3.333   0.228  12.085 -0.0799  0.3710 -0.2707
  834TIP3    H123993   3.273   0.298  12.112  0.3769  0.2374  1.1810
  834TIP3    H223994   3.276   0.159  12.051 -0.9608 -0.4337  2.5578
  835TIP3   OH223995   2.958   3.293  12.498  0.6361 -0.5968 -0.2165
  835TIP3    H123996   2.866   3.320  12.486  0.5878 -1.5639 -2.4973
  835TIP3    H223997   2.977   3.315  12.589 -1.8518 -0.3330  0.3281
  836TIP3   OH223998   0.717   4.381  12.366 -0.0754  0.2512 -0.2555
  836TIP3    H123999   0.720   4.471  12.397 -0.1255  0.6631 -1.3847
  836TIP3    H224000   0.654   4.383  12.293 -0.5729 -0.8313  0.1269
  837TIP3   OH224001   3.670   4.977  13.328  0.5644 -0.4508  0.1423
  837TIP3    H124002   3.704   4.889  13.342  2.1860  0.0012 -0.7555
  837TIP3    H224003   3.575   4.966  13.329  0.6981 -1.9177  1.7360
  838TIP3   OH224004   0.719   5.928  16.124  0.4411  0.2488  0.1640
  838TIP3    H124005   0.772   5.862  16.078  0.0784 -0.2851  0.5084
  838TIP3    H224006   0.743   5.917  16.216 -0.5159 -0.2375  0.3687
  839TIP3   OH224007   6.468   4.311   3.666  0.4994 -0.7393  0.3022
  839TIP3    H124008   6.543   4.353   3.708  2.4639 -0.3945 -3.2273
  839TIP3    H224009   6.506   4.254   3.599 -2.3865 -1.2903 -1.0245
  840TIP3   OH224010   3.598   6.347   0.788 -0.6302 -0.2138 -0.8037
  840TIP3    H124011   3.625   6.261   0.822  1.2585  0.6546  0.0222
  840TIP3    H224012   3.563   6.327   0.701  1.2644 -1.6902 -1.3176
  841TIP3   OH224013   6.371   1.690   0.251  0.0503 -0.4944  0.6042
  841TIP3    H124014   6.291   1.679   0.198 -0.5511  0.8658  1.1872
  841TIP3    H224015   6.377   1.610   0.302  0.5105 -1.7494 -1.3215
  842TIP3   OH224016   2.575   6.084  13.821 -0.4443 -0.2676  0.1815
  842TIP3    H124017   2.618   6.165  13.794  0.0910 -1.4445 -2.8667
  842TIP3    H224018   2.646   6.029  13.854 -0.7050  0.1651  1.5508
  843TIP3   OH224019   5.070   6.660  15.905  0.0116 -0.4904  0.1859
  843TIP3    H124020   5.008   6.671  15.834 -0.5263 -1.7628  0.4296
  843TIP3    H224021   5.066   6.742  15.954  0.2709  0.3311 -1.1411
  844TIP3   OH224022   6.750   1.281   1.812 -0.3171  0.1975  0.5854
  844TIP3    H124023   6.712   1.368   1.799  2.0899  1.1490 -0.7138
  844TIP3    H224024   6.705   1.225   1.749 -1.5288  0.5823  1.0745
  845TIP3   OH224025   4.746   4.025   4.072  0.3079  0.1715  0.4196
  845TIP3    H124026   4.803   3.961   4.029  0.4403  0.8045 -0.3987
  845TIP3    H224027   4.659   3.988   4.066  0.1296  0.7656 -1.5650
  846TIP3   OH224028   1.651   5.390   5.915  0.2764  0.5149 -0.1412
  846TIP3    H124029   1.600   5.316   5.949  1.4670  1.0539  3.2597
  846TIP3    H224030   1.738   5.354   5.900  0.3439  0.7968 -0.4258
  847TIP3   OH224031   0.597   2.516   1.609  0.5551  0.1746  0.4082
  847TIP3    H124032   0.681   2.488   1.573 -0.4040 -1.0172 -1.0539
  847TIP3    H224033   0.566   2.441   1.659  0.4268  0.6585  1.0590
  848TIP3   OH224034   3.769   2.845  13.118 -0.0779 -0.1784  0.1323
  848TIP3    H124035   3.680   2.817  13.094  0.7418 -2.3016 -0.6644
  848TIP3    H224036   3.773   2.832  13.213 -0.4729 -0.5197  0.1077
  849TIP3   OH224037   5.527   6.547   3.211 -0.3225  0.0452  0.8621
  849TIP3    H124038   5.584   6.485   3.167 -1.0826 -0.3659  0.4421
  849TIP3    H224039   5.576   6.573   3.289 -0.0473 -1.1746  1.1176
  850TIP3   OH224040   1.666   6.414   2.192  0.1819  0.8586  0.2590
  850TIP3    H124041   1.663   6.510   2.200 -2.1481  0.9299 -0.8809
  850TIP3    H224042   1.685   6.398   2.100  0.3624  0.1957  0.4057
  851TIP3   OH224043   5.586   5.998  16.938 -0.1336 -0.0073 -0.8085
  851TIP3    H124044   5.535   6.079  16.937 -1.4167 -0.7886 -1.2168
  851TIP3    H224045   5.613   5.985  16.847 -0.8427 -0.5805 -0.9457
  852TIP3   OH224046   3.591   0.795  17.223  0.4529 -0.2312 -0.3184
  852TIP3    H124047   3.586   0.890  17.228 -0.6073 -0.2134 -1.1488
  852TIP3    H224048   3.660   0.777  17.159 -0.4496  0.0470 -1.4097
  853TIP3   OH224049   2.308   0.987  14.601  0.4712 -0.4442 -0.2643
  853TIP3    H124050   2.326   1.053  14.535  0.6045  2.1113  2.1749
  853TIP3    H224051   2.364   0.913  14.577  0.3471  0.2797 -3.0548
  854TIP3   OH224052   3.377   1.292   0.131  0.4975 -0.1859 -0.3026
  854TIP3    H124053   3.284   1.305   0.112  0.3256  0.0176  0.6308
  854TIP3    H224054   3.412   1.380   0.143  1.3108 -0.0958 -2.7449
  855TIP3   OH224055   6.102   5.727  15.316  0.2724  0.0619  0.0720
  855TIP3    H124056   6.150   5.786  15.373 -0.4701  3.1322 -2.2575
  855TIP3    H224057   6.162   5.707  15.244 -0.0076 -0.7869  0.0578
  856TIP3   OH224058   4.690   0.804   6.200 -0.4399  0.0108 -0.0331
  856TIP3    H124059   4.776   0.792   6.240 -0.7592 -0.1466  0.6241
  856TIP3    H224060   4.637   0.732   6.235 -1.1200  0.6922  0.3740
  857TIP3   OH224061   3.500   3.325   1.300 -0.5418 -0.1975  0.4370
  857TIP3    H124062   3.454   3.407   1.316  1.0594  0.5129  1.6133
  857TIP3    H224063   3.484   3.273   1.378 -0.9359 -0.7236  0.0141
  858TIP3   OH224064   6.184   5.733   3.608 -0.2978  0.3628  0.5246
  858TIP3    H124065   6.225   5.728   3.694 -2.1248 -2.4510  1.3678
  858TIP3    H224066   6.229   5.668   3.555  0.0885  1.3114 -0.3489
  859TIP3   OH224067   3.968   3.555   5.803  0.1002  0.2613  0.4138
  859TIP3    H124068   3.910   3.479   5.808 -0.3244  0.6637  2.6513
  859TIP3    H224069   4.042   3.524   5.751 -1.6888 -0.4998 -1.8623
  860TIP3   OH224070   0.987   6.696   4.128  0.0512 -0.5035 -0.3890
  860TIP3    H124071   0.940   6.626   4.083  0.2718 -0.9606  0.0856
  860TIP3    H224072   0.931   6.720   4.201 -0.5088  0.5405 -1.1479
  861TIP3   OH224073   1.897   5.632  11.554 -0.4395 -0.2671 -0.8024
  861TIP3    H124074   1.908   5.579  11.633 -0.4865  0.0285 -0.5943
  861TIP3    H224075   1.810   5.609  11.521  0.1864 -1.5318 -1.6349
  862TIP3   OH224076   1.155   0.739  15.208 -0.3995  0.4263 -0.6831
  862TIP3    H124077   1.211   0.686  15.151  0.9088  0.6014  0.3830
  862TIP3    H224078   1.216   0.792  15.259 -1.3340 -1.0724  2.2574
  863TIP3   OH224079   3.189   5.876  13.784 -0.1608 -0.5044  0.4353
  863TIP3    H124080   3.199   5.965  13.817  1.3306 -0.5584  0.2209
  863TIP3    H224081   3.214   5.821  13.859  1.1254 -0.6700 -0.0873
  864TIP3   OH224082   2.173   0.757  14.317  0.2081  0.0482 -0.5159
  864TIP3    H124083   2.149   0.742  14.409 -1.4832 -0.5594 -1.0184
  864TIP3    H224084   2.148   0.848  14.300 -1.5504 -0.4901 -0.9502
  865TIP3   OH224085   6.568   1.212  15.241 -0.0437 -0.4230  0.1649
  865TIP3    H124086   6.653   1.193  15.280  1.1938  1.6200 -1.3319
  865TIP3    H224087   6.540   1.293  15.283  0.1199  0.4262 -1.2820
  866TIP3   OH224088   6.395   4.888   1.568 -0.2627  0.0527  0.0929
  866TIP3    H124089   6.389   4.953   1.638  0.5224 -0.8429  1.0303
  866TIP3    H224090   6.402   4.804   1.613 -1.9478 -0.7854 -1.0909
  867TIP3   OH224091   4.923   6.504   0.713  0.4515  0.1690  0.1261
  867TIP3    H124092   4.895   6.595   0.699 -1.4810 -0.4168 -0.0620
  867TIP3    H224093   4.911   6.490   0.807  0.1302 -0.0785  0.0491
  868TIP3   OH224094   1.987   0.115   2.938  0.8928  0.1289 -0.1114
  868TIP3    H124095   2.081   0.119   2.959  0.9133 -2.0390  0.4035
  868TIP3    H224096   1.984   0.067   2.855  0.2531  0.4461 -0.2708
  869TIP3   OH224097   5.368   6.048   0.712 -0.3904  0.1021  0.5780
  869TIP3    H124098   5.440   6.092   0.757  0.4655 -0.3916 -0.2691
  869TIP3    H224099   5.410   5.977   0.662 -1.3744  0.2246 -0.4701
  870TIP3   OH224100   2.644   5.541   0.477  0.1626 -0.4618  0.6832
  870TIP3    H124101   2.654   5.626   0.519  0.6596  0.5941 -1.4144
  870TIP3    H224102   2.733   5.508   0.467  0.1718 -0.0940 -0.6291
  871TIP3   OH224103   0.396   5.422  10.796  0.1990 -0.3386 -0.7003
  871TIP3    H124104   0.321   5.366  10.817 -0.1815  0.8500  1.4262
  871TIP3    H224105   0.359   5.511  10.794  1.4851  0.2312  0.0335
  872TIP3   OH224106   6.072   1.448   1.344  0.0814 -0.3902  0.0150
  872TIP3    H124107   6.163   1.472   1.328  0.0801  0.1689  0.7698
  872TIP3    H224108   6.024   1.478   1.267  0.3341  0.5799  0.2189
  873TIP3   OH224109   3.293   5.907   3.004 -0.3624 -0.1633 -0.0478
  873TIP3    H124110   3.320   5.972   3.069  2.6757  2.4058 -3.4697
  873TIP3    H224111   3.375   5.874   2.968 -1.7812 -0.0273 -3.7908
  874TIP3   OH224112   5.677   6.073  15.994 -0.3712 -0.3756 -1.1006
  874TIP3    H124113   5.753   6.014  15.993  0.0564  0.1360 -0.1963
  874TIP3    H224114   5.623   6.043  15.921  0.2287 -1.3709 -1.1656
  875TIP3   OH224115   0.646   0.758  11.750  0.4647 -0.5552  0.2711
  875TIP3    H124116   0.717   0.808  11.790  0.7754 -0.1561 -0.7374
  875TIP3    H224117   0.567   0.804  11.777  0.7366  0.3898 -0.4809
  876TIP3   OH224118   5.245   0.402  16.212  0.6495  0.0831  0.7452
  876TIP3    H124119   5.302   0.332  16.243  0.4934 -0.2555  0.2737
  876TIP3    H224120   5.158   0.377  16.241  0.6087  0.1332  0.6687
  877TIP3   OH224121   4.581   2.717   4.068 -0.0173 -0.3460 -0.3891
  877TIP3    H124122   4.617   2.796   4.108 -0.1563 -0.1740 -0.6026
  877TIP3    H224123   4.585   2.651   4.138 -1.0060  0.1589  0.1593
  878TIP3   OH224124   5.586   6.069   3.751  0.0791 -0.0171 -0.4707
  878TIP3    H124125   5.572   6.123   3.829 -0.8767  1.6866 -1.7556
  878TIP3    H224126   5.681   6.067   3.741  0.1775  0.4012  0.2826
  879TIP3   OH224127   5.763   4.843   1.823 -0.4457  0.4284  0.2328
  879TIP3    H124128   5.713   4.865   1.902  0.8348  1.8928  0.6933
  879TIP3    H224129   5.853   4.867   1.845  0.2005 -0.6547 -1.1194
  880TIP3   OH224130   6.274   4.635  13.002  0.0915 -0.0753  0.2495
  880TIP3    H124131   6.309   4.626  12.914  0.7161 -1.2450  0.5886
  880TIP3    H224132   6.309   4.719  13.034 -3.8235  2.7825 -2.1587
  881TIP3   OH224133   3.995   3.514   4.998  0.2658  0.7871  0.0427
  881TIP3    H124134   3.988   3.587   5.059  0.2794 -0.3707  1.4673
  881TIP3    H224135   4.086   3.484   5.007  0.6718  1.4364 -1.5548
  882TIP3   OH224136   2.239   5.832  12.792  0.0773  0.1999 -0.1070
  882TIP3    H124137   2.188   5.834  12.711  0.4601 -1.5417 -0.4337
  882TIP3    H224138   2.179   5.796  12.857  0.2665  0.0811  0.0023
  883TIP3   OH224139   4.091   2.212  13.903 -0.1931 -0.1613 -0.2339
  883TIP3    H124140   3.996   2.225  13.905 -0.1505  0.1068  1.3629
  883TIP3    H224141   4.106   2.135  13.956  0.5066 -0.1114 -0.3426
  884TIP3   OH224142   5.145   3.354   2.577  0.2328  0.2478  0.5145
  884TIP3    H124143   5.201   3.306   2.515 -0.4995 -1.4022  1.0737
  884TIP3    H224144   5.131   3.293   2.649 -1.7334  0.8525  0.7075
  885TIP3   OH224145   4.102   3.189  12.909  0.6219  0.5621  0.5449
  885TIP3    H124146   4.039   3.207  12.979  0.3689  1.8359  0.0051
  885TIP3    H224147   4.187   3.192  12.953  0.3598 -0.7034  1.1823
  886TIP3   OH224148   4.690   5.207   5.401 -0.0317 -0.5571  0.3552
  886TIP3    H124149   4.725   5.127   5.362 -1.7078 -1.2297  0.1451
  886TIP3    H224150   4.673   5.183   5.492 -2.5787 -1.2243 -0.1942
  887TIP3   OH224151   0.394   3.939  11.057 -0.2938 -0.0506 -0.0772
  887TIP3    H124152   0.389   4.013  10.997 -1.1021 -0.7234 -0.8630
  887TIP3    H224153   0.456   3.879  11.016  0.1288  0.0537  0.4053
  888TIP3   OH224154   2.465   4.765  12.731 -0.1982 -0.5322 -0.9156
  888TIP3    H124155   2.560   4.769  12.720 -0.2717  0.8876 -1.2697
  888TIP3    H224156   2.451   4.693  12.792  1.1007 -0.8149 -0.9172
  889TIP3   OH224157   3.297   1.347  13.301 -0.1154  0.7541 -0.3314
  889TIP3    H124158   3.214   1.305  13.280 -0.6697  1.4154  0.5138
  889TIP3    H224159   3.318   1.399  13.223 -0.7307  0.9583 -0.3631
  890TIP3   OH224160   0.358   0.186   4.996 -1.1669  0.0102  0.6005
  890TIP3    H124161   0.299   0.250   5.035 -0.6825 -0.0678  1.4721
  890TIP3    H224162   0.403   0.145   5.070 -0.7565 -0.6478  0.0056
  891TIP3   OH224163   1.699   3.717  15.831  0.1904 -0.1391  0.0409
  891TIP3    H124164   1.664   3.687  15.748  0.8252 -1.9495  0.3763
  891TIP3    H224165   1.622   3.739  15.884 -0.2371  0.2792 -0.7467
  892TIP3   OH224166   1.786   4.680   0.469  0.1845  0.1680  0.3321
  892TIP3    H124167   1.810   4.754   0.525 -1.3577 -0.3685  1.7698
  892TIP3    H224168   1.769   4.608   0.529 -1.4517 -0.4547 -0.7875
  893TIP3   OH224169   5.104   4.831  12.274 -0.2495  0.5169 -0.2426
  893TIP3    H124170   5.055   4.773  12.332 -1.3491 -0.3686 -1.9553
  893TIP3    H224171   5.191   4.836  12.313 -0.2127 -2.0278  0.1889
  894TIP3   OH224172   2.691   2.663  14.306  0.0788 -0.2623 -0.0344
  894TIP3    H124173   2.754   2.733  14.286 -0.1454 -0.5041 -1.7773
  894TIP3    H224174   2.607   2.698  14.277 -0.1491 -0.9811 -0.2620
  895TIP3   OH224175   0.046   4.569   3.733  0.2359  0.5893 -0.0937
  895TIP3    H124176   0.020   4.526   3.651  0.0596  0.6828 -0.0880
  895TIP3    H224177   0.005   4.517   3.802  1.5574 -0.3326  0.0194
  896TIP3   OH224178   1.048   4.690   1.019 -0.4332  0.5190 -0.0140
  896TIP3    H124179   1.091   4.692   1.105  1.2699 -0.4007 -0.8099
  896TIP3    H224180   0.956   4.672   1.039  0.1713 -1.0312  1.5528
  897TIP3   OH224181   6.663   1.834   4.835 -0.0780 -0.5417 -0.0570
  897TIP3    H124182   6.654   1.876   4.920 -3.2954  0.3327 -0.6839
  897TIP3    H224183   6.757   1.835   4.817  0.4052  2.1552  2.0397
  898TIP3   OH224184   2.426   0.523  12.350 -0.9939  0.1709 -0.1683
  898TIP3    H124185   2.518   0.521  12.323 -0.8507 -1.1509  0.3452
  898TIP3    H224186   2.383   0.460  12.292 -1.3769  0.0364  0.2575
  899TIP3   OH224187   0.219   4.448  15.650  0.0341 -0.0769 -0.1896
  899TIP3    H124188   0.293   4.401  15.688 -1.0628 -1.6879  0.0899
  899TIP3    H224189   0.200   4.518  15.712  1.0064  0.0447 -0.0196
  900TIP3   OH224190   3.614   1.748   5.159  0.0665  0.0792  0.1233
  900TIP3    H124191   3.656   1.764   5.244 -0.4899  0.0087  0.4170
  900TIP3    H224192   3.527   1.787   5.168  0.6935  1.9052 -1.1201
  901TIP3   OH224193   6.324   3.817   3.774 -0.2416  0.1339 -0.1032
  901TIP3    H124194   6.419   3.816   3.778 -0.1455 -2.5478 -0.9512
  901TIP3    H224195   6.296   3.773   3.854 -0.8233  1.3092  0.3662
  902TIP3   OH224196   5.499   5.520  10.768  0.2126  0.2608  1.3386
  902TIP3    H124197   5.463   5.447  10.817  0.7565 -0.8979  0.0879
  902TIP3    H224198   5.562   5.480  10.708  1.7230  1.9324  1.7142
  903TIP3   OH224199   5.245   0.375   0.027 -0.1388  0.0114  0.0789
  903TIP3    H124200   5.288   0.319   0.092  0.1140  0.3785  0.2284
  903TIP3    H224201   5.224   0.316  -0.045  0.3016 -0.2385  0.1497
  904TIP3   OH224202   6.071   3.678   1.738 -0.4117  0.2384  0.6248
  904TIP3    H124203   6.125   3.735   1.683 -1.7081 -0.4893 -1.5283
  904TIP3    H224204   5.995   3.658   1.684 -0.5997 -2.5277  1.7491
  905TIP3   OH224205   3.199   2.632  17.239  0.2658  0.3237  0.6266
  905TIP3    H124206   3.229   2.720  17.264  0.1480  0.3130  0.8043
  905TIP3    H224207   3.248   2.612  17.159 -1.1707  1.3914 -0.5964
  906TIP3   OH224208   1.248   5.320   1.003  0.1362 -0.2236  0.1638
  906TIP3    H124209   1.278   5.347   1.089 -0.5441 -3.4735  1.5653
  906TIP3    H224210   1.318   5.265   0.968 -0.0713  0.1551 -0.9082
  907TIP3   OH224211   2.068   2.908  11.810 -0.9577  0.0348  0.1275
  907TIP3    H124212   2.006   2.930  11.879 -1.5113  0.1364 -0.3876
  907TIP3    H224213   2.038   2.959  11.734  0.0737  0.5073  0.0129
  908TIP3   OH224214   0.162   4.135   6.285 -0.2603 -0.4360  0.2877
  908TIP3    H124215   0.172   4.119   6.191  1.5180  0.0903  0.3616
  908TIP3    H224216   0.067   4.131   6.299 -0.6403  0.3878 -1.6870
  909TIP3   OH224217   3.935   1.739   5.125 -0.2068  0.0632 -0.4006
  909TIP3    H124218   3.920   1.651   5.090 -2.6646  0.2630 -0.0285
  909TIP3    H224219   3.853   1.762   5.168  0.8117  2.0636  0.6036
  910TIP3   OH224220   4.017   0.686  11.201  0.4393  0.2041  0.0734
  910TIP3    H124221   3.995   0.766  11.250 -0.7000  0.2180 -0.4314
  910TIP3    H224222   4.017   0.714  11.109 -1.9848 -0.7666 -0.2856
  911TIP3   OH224223   2.529   4.564  13.484  0.1043 -0.3579  0.3783
  911TIP3    H124224   2.609   4.516  13.506  0.6913  1.2968  2.0865
  911TIP3    H224225   2.460   4.521  13.535  0.4001 -0.1154  0.9789
  912TIP3   OH224226   3.321   3.534  11.691 -0.2684 -0.2812  0.1762
  912TIP3    H124227   3.414   3.525  11.669 -0.4172 -0.3159 -0.4550
  912TIP3    H224228   3.277   3.539  11.606 -0.5336  3.1210  0.3849
  913TIP3   OH224229   2.709   1.594   0.363  0.0865  0.2392  0.5077
  913TIP3    H124230   2.691   1.562   0.274 -0.4167 -0.0657  0.7143
  913TIP3    H224231   2.803   1.613   0.363 -0.2507  2.1880 -0.7229
  914TIP3   OH224232   0.917   4.512  15.229  0.0915  0.2264 -0.6530
  914TIP3    H124233   0.968   4.431  15.230  0.9696  0.7561 -1.1722
  914TIP3    H224234   0.940   4.554  15.146 -2.7545 -0.4633 -1.9413
  915TIP3   OH224235   3.047   0.254   2.940  0.2171 -0.0791  0.3630
  915TIP3    H124236   2.961   0.269   2.979 -0.4426  1.5121 -1.5179
  915TIP3    H224237   3.103   0.320   2.980  0.6399 -1.1928  1.6775
  916TIP3   OH224238   5.485   4.683  14.518  0.3914 -0.0098  0.8060
  916TIP3    H124239   5.408   4.720  14.561  0.2382  2.3400 -1.3191
  916TIP3    H224240   5.460   4.674  14.426  2.4737  0.3577  0.1480
  917TIP3   OH224241   0.262   0.923  13.024 -0.3580  0.0132 -0.2839
  917TIP3    H124242   0.336   0.981  13.010 -0.9731  1.5273  2.0871
  917TIP3    H224243   0.263   0.904  13.118 -1.2088 -2.4632 -0.6867
  918TIP3   OH224244   1.592   3.270  15.066 -0.0700  0.7586 -0.2150
  918TIP3    H124245   1.539   3.326  15.122  0.6745  1.9196 -0.6225
  918TIP3    H224246   1.584   3.308  14.979 -0.4625 -0.4666 -0.7291
  919TIP3   OH224247   0.861   4.877  14.799 -0.5063  0.6114  0.1809
  919TIP3    H124248   0.885   4.832  14.719  0.5283  2.3810 -0.5382
  919TIP3    H224249   0.766   4.865  14.805 -0.2227 -2.3508  0.5180
  920TIP3   OH224250   0.052   5.664  12.876  0.0672  0.1991  0.7036
  920TIP3    H124251   0.015   5.622  12.798  0.0512  0.9447  0.2995
  920TIP3    H224252  -0.000   5.744  12.887  0.7541  0.6364  0.8473
  921TIP3   OH224253   6.245   2.136   3.833  0.6107 -0.0583  0.0824
  921TIP3    H124254   6.181   2.135   3.762 -2.3415  0.9531  2.5014
  921TIP3    H224255   6.270   2.228   3.841  1.0066 -0.1825  0.2971
  922TIP3   OH224256   4.501   2.965  16.055  0.0002 -0.1156  0.1998
  922TIP3    H124257   4.433   2.956  15.987 -0.4512 -1.1859  0.7800
  922TIP3    H224258   4.478   2.900  16.121  2.4143 -1.5807 -0.2653
  923TIP3   OH224259   4.595   3.990   5.187 -0.6973 -0.2736  0.0880
  923TIP3    H124260   4.645   3.919   5.227 -1.7704 -0.9012  0.3572
  923TIP3    H224261   4.524   4.008   5.250 -2.3246 -1.1678 -1.4067
  924TIP3   OH224262   1.252   0.102   6.050 -0.6522 -0.4071  0.1969
  924TIP3    H124263   1.229   0.107   5.957 -1.9063  0.4778  0.5247
  924TIP3    H224264   1.330   0.157   6.058 -1.0006  0.1580 -0.2063
  925TIP3   OH224265   2.968   6.404   3.152  0.1124  0.5739  0.2170
  925TIP3    H124266   2.915   6.447   3.085  1.6742  0.8957 -0.8806
  925TIP3    H224267   3.026   6.345   3.103 -0.7096 -1.4396  1.5385
  926TIP3   OH224268   5.198   4.554   4.046  0.5595 -0.4503 -0.7202
  926TIP3    H124269   5.124   4.494   4.037 -0.5066  0.9710 -1.8562
  926TIP3    H224270   5.171   4.616   4.114  0.7667 -0.0236 -1.0224
  927TIP3   OH224271   3.676   5.303  13.321  0.0310  0.1347 -0.2098
  927TIP3    H124272   3.601   5.245  13.311 -0.0832  0.2885 -0.2363
  927TIP3    H224273   3.708   5.318  13.232  0.1193  0.0354 -0.1954
  928TIP3   OH224274   6.109   0.911   2.238 -0.7106 -0.0651  0.0551
  928TIP3    H124275   6.147   0.849   2.299 -2.2541  0.2087  1.3640
  928TIP3    H224276   6.105   0.994   2.286  0.4546  0.8765 -1.3394
  929TIP3   OH224277   4.609   1.786  16.869  0.2714 -0.5071  0.3270
  929TIP3    H124278   4.540   1.843  16.904 -1.8674 -0.7961 -2.8991
  929TIP3    H224279   4.569   1.699  16.869  2.5554 -1.6909  2.8028
  930TIP3   OH224280   1.813   1.267   1.301  0.1311 -0.0317 -0.0903
  930TIP3    H124281   1.871   1.193   1.284 -0.7523 -0.6998 -0.3147
  930TIP3    H224282   1.801   1.267   1.396 -0.3463 -0.5732 -0.1421
  931TIP3   OH224283   5.656   0.137   3.852  0.0027 -0.9278  0.1003
  931TIP3    H124284   5.706   0.129   3.934  0.3749  0.8803  0.0975
  931TIP3    H224285   5.717   0.110   3.784  0.4813 -0.2461  0.2405
  932TIP3   OH224286   2.134   1.242   4.887  0.0498  0.0499 -0.3768
  932TIP3    H124287   2.169   1.325   4.855  0.2205 -0.2582 -1.0129
  932TIP3    H224288   2.177   1.229   4.972  0.4530  0.3342 -0.5339
  933TIP3   OH224289   4.780   3.318   5.354 -0.7275  0.2009  0.7739
  933TIP3    H124290   4.702   3.373   5.347 -0.4604  0.6190  1.0614
  933TIP3    H224291   4.848   3.365   5.305  0.1351  1.3100  2.9046
  934TIP3   OH224292   2.270   6.469  15.460 -0.5471  0.0986 -0.3254
  934TIP3    H124293   2.361   6.439  15.457 -0.4306  0.4642 -0.4795
  934TIP3    H224294   2.271   6.542  15.522 -0.9099 -0.4776  0.3716
  935TIP3   OH224295   5.480   2.033   4.483 -0.2508 -0.5129 -0.4452
  935TIP3    H124296   5.418   2.012   4.413 -0.3739 -2.5866  0.2289
  935TIP3    H224297   5.459   1.972   4.553  0.6881  0.6906  0.9301
  936TIP3   OH224298   6.000   2.645  13.246  0.3136  0.0438 -0.1825
  936TIP3    H124299   6.000   2.700  13.325  1.2443  0.5264 -0.4976
  936TIP3    H224300   6.085   2.662  13.206  1.7914 -3.5247  1.0133
  937TIP3   OH224301   0.635   1.870   1.775 -0.8353 -0.3364  0.1222
  937TIP3    H124302   0.626   1.884   1.680 -3.3379 -0.1788  0.3119
  937TIP3    H224303   0.698   1.937   1.802  0.1872 -0.5895 -1.4455
  938TIP3   OH224304   5.362   1.248  13.487  0.2053  0.4127  0.5718
  938TIP3    H124305   5.382   1.303  13.412 -0.5711  0.3058  0.2699
  938TIP3    H224306   5.424   1.175  13.481  2.3379  2.0161  1.8834
  939TIP3   OH224307   0.950   0.875  11.205  0.0175 -0.9027 -0.4215
  939TIP3    H124308   0.976   0.906  11.291  1.2084  1.9278 -1.6694
  939TIP3    H224309   0.995   0.791  11.195  2.3473  0.1385  0.5944
  940TIP3   OH224310   1.762   6.102  17.234  0.6257 -0.1016 -0.0244
  940TIP3    H124311   1.716   6.150  17.302  1.3550  0.5732  0.0051
  940TIP3    H224312   1.705   6.027  17.215 -1.3113  1.5544 -1.1584
  941TIP3   OH224313   2.149   0.379  12.835  0.0856 -0.1221 -0.1641
  941TIP3    H124314   2.073   0.407  12.784  0.6598  1.8304 -0.0404
  941TIP3    H224315   2.185   0.304  12.787 -0.1457  0.8363 -1.9198
  942TIP3   OH224316   5.808   1.301  14.636 -0.0409 -0.0657  0.9376
  942TIP3    H124317   5.865   1.340  14.703  1.0672  0.8681 -0.4668
  942TIP3    H224318   5.730   1.356  14.636 -0.1475 -0.2110  1.6069
  943TIP3   OH224319   1.723   3.913   3.340 -0.4992  0.3510  0.0770
  943TIP3    H124320   1.690   3.890   3.253  0.3756  0.0937 -0.2061
  943TIP3    H224321   1.778   3.990   3.325  0.6738 -0.4366  0.1664
  944TIP3   OH224322   3.104   4.647   3.614  0.0089  0.4680 -0.7406
  944TIP3    H124323   3.118   4.673   3.705  0.0076 -0.8704 -0.3257
  944TIP3    H224324   3.016   4.678   3.593 -1.0019 -1.2958  0.5579
  945TIP3   OH224325   2.495   1.239  12.678  0.0373  0.2422 -0.0717
  945TIP3    H124326   2.556   1.234  12.751  1.5042  1.0140 -1.1755
  945TIP3    H224327   2.500   1.152  12.637 -0.1835  0.0647  0.2728
  946TIP3   OH224328   0.938   2.130   1.609  0.1413 -0.9561 -0.4958
  946TIP3    H124329   0.999   2.171   1.548  0.0394 -0.9022 -0.5632
  946TIP3    H224330   0.931   2.040   1.578 -1.4879 -0.4337 -1.8467
  947TIP3   OH224331   4.429   4.525  11.404 -0.0712 -0.4147  0.1209
  947TIP3    H124332   4.521   4.517  11.380 -0.0240  0.3196  0.0232
  947TIP3    H224333   4.404   4.438  11.435  1.4495  0.0570  3.0260
  948TIP3   OH224334   1.559   6.534  12.723 -0.0914 -0.2287 -0.1333
  948TIP3    H124335   1.626   6.602  12.730 -0.3190 -0.1390  1.7720
  948TIP3    H224336   1.596   6.459  12.770 -1.0130 -0.4288  0.2915
  949TIP3   OH224337   4.232   5.511   0.468  0.5426 -0.3201  0.2232
  949TIP3    H124338   4.243   5.478   0.379 -3.3177  0.3279 -0.6563
  949TIP3    H224339   4.140   5.494   0.489  1.0523  0.4443  3.7625
  950TIP3   OH224340   1.377   1.978   3.550  0.3431  0.1663  0.6108
  950TIP3    H124341   1.402   2.039   3.619  2.9120  0.6330 -0.5955
  950TIP3    H224342   1.403   1.892   3.583  1.5884  0.3902  0.2781
  951TIP3   OH224343   5.123   0.104  15.978 -0.1256  0.4792  0.3129
  951TIP3    H124344   5.197   0.127  15.922 -0.5350  0.8320 -0.0898
  951TIP3    H224345   5.162   0.091  16.065  0.6265 -0.8205 -0.1896
  952TIP3   OH224346   6.164   4.348  15.231  0.3252  0.2764 -0.5428
  952TIP3    H124347   6.188   4.416  15.169 -0.0869  0.8746 -0.0618
  952TIP3    H224348   6.112   4.286  15.180 -3.3388  2.6489 -0.1137
  953TIP3   OH224349   2.745   1.951  16.235 -0.5484 -0.4767 -0.3603
  953TIP3    H124350   2.708   1.897  16.165 -0.8730  0.3943 -0.8677
  953TIP3    H224351   2.825   1.987  16.197 -1.8903  1.8505 -1.1405
  954TIP3   OH224352   0.102   6.394   1.856  0.1154 -0.2739 -0.1320
  954TIP3    H124353   0.070   6.469   1.905  1.4348 -0.2498  0.7445
  954TIP3    H224354   0.188   6.376   1.893  0.3089 -1.5079 -1.1059
  955TIP3   OH224355   1.579   0.236   3.321  0.0287 -0.0288 -0.1043
  955TIP3    H124356   1.571   0.300   3.391  1.6875 -1.4750  1.5166
  955TIP3    H224357   1.533   0.158   3.353  0.1176 -0.4530 -0.9671
  956TIP3   OH224358   4.899   1.715   5.427  0.1992 -0.6316  0.4918
  956TIP3    H124359   4.926   1.713   5.335 -1.4048  1.9072 -0.1331
  956TIP3    H224360   4.962   1.658   5.471  2.5615  0.0113 -1.7811
  957TIP3   OH224361   0.151   0.412   4.040 -0.4290  0.0948  0.0328
  957TIP3    H124362   0.169   0.472   3.968 -1.4200  2.4335  1.6155
  957TIP3    H224363   0.141   0.469   4.116  0.8005 -2.2798  2.1109
  958TIP3   OH224364   6.670   3.316   6.109  0.0965  0.6972  0.3363
  958TIP3    H124365   6.706   3.396   6.072  1.8479  1.0993  2.6249
  958TIP3    H224366   6.746   3.272   6.148 -0.9659 -1.6497 -0.0711
  959TIP3   OH224367   0.699   3.578   2.491  0.4111  0.2893 -0.3590
  959TIP3    H124368   0.724   3.662   2.452 -0.5357  1.7248  1.9216
  959TIP3    H224369   0.662   3.528   2.418  0.8738  1.8973 -1.7653
  960TIP3   OH224370   0.712   5.373   2.086  0.1906  0.1372 -0.0627
  960TIP3    H124371   0.794   5.421   2.094 -0.4178  1.4617 -1.4425
  960TIP3    H224372   0.711   5.342   1.996 -0.0815 -1.3143  0.4103
  961TIP3   OH224373   1.019   1.125   0.219 -0.2881 -0.1009 -0.0952
  961TIP3    H124374   1.097   1.130   0.164  0.4205  0.1266  0.9017
  961TIP3    H224375   0.987   1.216   0.224 -0.0147 -0.0249  0.3298
  962TIP3   OH224376   6.808   3.788  14.653 -0.2720 -0.4935  0.1606
  962TIP3    H124377   6.818   3.872  14.608  2.5048 -0.9139 -0.1738
  962TIP3    H224378   6.775   3.811  14.740 -0.7136  0.8103 -0.3324
  963TIP3   OH224379   4.291   0.150   3.383 -0.3238  0.3479 -0.2799
  963TIP3    H124380   4.232   0.165   3.310  1.1399 -0.2176 -1.6631
  963TIP3    H224381   4.263   0.210   3.451 -1.9956  0.6026 -1.1569
  964TIP3   OH224382   0.802   0.103  11.626  0.1772 -0.7540 -0.2142
  964TIP3    H124383   0.749   0.140  11.555  1.2092  2.5674  0.5733
  964TIP3    H224384   0.871   0.055  11.581 -0.5712 -0.7695 -1.3840
  965TIP3   OH224385   1.987   1.335  14.124 -0.7241  0.0902 -0.0823
  965TIP3    H124386   2.025   1.272  14.186 -1.1942 -0.0622  0.0547
  965TIP3    H224387   1.967   1.412  14.177 -0.4856  0.2237 -0.1824
  966TIP3   OH224388   5.734   5.107  11.622  0.3284  0.4805 -0.1077
  966TIP3    H124389   5.712   5.169  11.553  0.3558 -0.2242 -0.7736
  966TIP3    H224390   5.684   5.136  11.698 -0.4617  0.7216 -0.7049
  967TIP3   OH224391   2.678   1.608   5.079 -0.0728  0.1258  0.2173
  967TIP3    H124392   2.770   1.583   5.067  0.2886  0.6687  1.6954
  967TIP3    H224393   2.674   1.697   5.045 -0.4023 -0.3850 -1.1543
  968TIP3   OH224394   0.243   6.189   4.614 -0.4142 -0.9001  0.2899
  968TIP3    H124395   0.202   6.264   4.573 -1.1907 -0.4357  1.8304
  968TIP3    H224396   0.181   6.162   4.682 -1.2110 -4.2922 -1.5459
  969TIP3   OH224397   5.942   0.942   2.947  0.0054  0.5855 -0.2229
  969TIP3    H124398   5.928   0.853   2.916  0.5952  1.1484 -2.2969
  969TIP3    H224399   5.860   0.987   2.931 -0.5976  0.2436  1.6672
  970TIP3   OH224400   2.301   1.176  14.415 -0.7026  0.0520  0.4456
  970TIP3    H124401   2.323   1.269  14.415  1.6112 -0.4301  0.6174
  970TIP3    H224402   2.248   1.164  14.336  2.6492  0.8243 -2.1545
  971TIP3   OH224403   2.733   3.398  16.794 -0.1931  0.9094 -0.4540
  971TIP3    H124404   2.794   3.331  16.826 -0.9723  0.3687 -0.0647
  971TIP3    H224405   2.750   3.404  16.700  1.3871  1.7438 -0.1444
  972TIP3   OH224406   6.222   4.146   0.159  0.5294  0.0466  0.2415
  972TIP3    H124407   6.315   4.133   0.176  0.6261 -0.3383 -0.5098
  972TIP3    H224408   6.192   4.061   0.124 -0.2580 -0.0522  1.1187
  973TIP3   OH224409   5.418   1.864  12.057 -0.6335  0.0479 -0.8242
  973TIP3    H124410   5.325   1.850  12.077  0.0203 -1.2695  1.8653
  973TIP3    H224411   5.436   1.953  12.086 -0.7170 -0.3102  0.3989
  974TIP3   OH224412   5.555   0.934  11.079  0.2421 -0.3397  0.4311
  974TIP3    H124413   5.567   0.916  10.985 -1.5132  0.2091  0.0652
  974TIP3    H224414   5.514   0.855  11.113  1.6684 -0.8855  0.9527
  975TIP3   OH224415   5.489   5.886   1.292 -0.1799  0.2185  0.4094
  975TIP3    H124416   5.520   5.936   1.368  0.3936 -0.1248  0.4117
  975TIP3    H224417   5.467   5.952   1.227  0.6412  0.4795  0.3842
  976TIP3   OH224418   0.428   5.145   3.183 -0.2754  0.5670  0.5542
  976TIP3    H124419   0.474   5.205   3.241  0.8538  0.4611 -0.2039
  976TIP3    H224420   0.416   5.193   3.101 -1.2618  0.4855  0.6314
  977TIP3   OH224421   0.710   3.301  16.072 -0.0945 -0.4622 -0.2330
  977TIP3    H124422   0.681   3.355  15.998 -0.5027  0.5385  0.6271
  977TIP3    H224423   0.761   3.361  16.126  0.8053 -1.3674 -0.0488
  978TIP3   OH224424   5.253   4.627   5.637 -0.6811 -0.0976  0.5140
  978TIP3    H124425   5.164   4.636   5.604 -0.6107 -1.0553  0.0149
  978TIP3    H224426   5.267   4.705   5.691 -1.4464  0.6025 -0.2587
  979TIP3   OH224427   4.745   3.700  12.959 -0.7786  0.3326  0.1545
  979TIP3    H124428   4.807   3.719  12.888 -0.2538  3.9211  1.3519
  979TIP3    H224429   4.797   3.651  13.023 -0.1957  0.2416 -0.3790
  980TIP3   OH224430   1.094   2.671   4.872  0.1900  0.5131 -0.3843
  980TIP3    H124431   1.145   2.617   4.812 -0.4797 -0.0136 -0.4951
  980TIP3    H224432   1.153   2.688   4.945 -0.0869 -1.8110  0.4802
  981TIP3   OH224433   5.878   3.230   2.901 -0.0041 -0.1748  0.3128
  981TIP3    H124434   5.835   3.258   2.982 -0.8059 -0.3242 -0.0494
  981TIP3    H224435   5.825   3.156   2.870 -0.6172  0.8189 -1.1207
  982TIP3   OH224436   6.532   5.691  15.272 -0.5104  0.1006 -0.0113
  982TIP3    H124437   6.525   5.605  15.314  2.6742 -1.1281 -1.7072
  982TIP3    H224438   6.447   5.703  15.228 -1.3317 -1.7576  0.9416
  983TIP3   OH224439   6.231   0.930  10.995 -0.3110  0.6093 -0.1878
  983TIP3    H124440   6.262   1.019  10.976 -1.5877  0.9705 -0.6881
  983TIP3    H224441   6.217   0.929  11.089 -0.6365  1.0645 -0.2272
  984TIP3   OH224442   6.561   0.327  13.901 -0.3559  0.5584  0.6763
  984TIP3    H124443   6.580   0.325  13.995 -1.0231 -0.1343  0.7996
  984TIP3    H224444   6.559   0.235  13.875 -0.4506  0.7402  0.0368
  985TIP3   OH224445   5.596   6.024  13.434 -0.6078 -0.4364 -0.0116
  985TIP3    H124446   5.582   5.965  13.360 -0.1510  1.1796 -1.4483
  985TIP3    H224447   5.558   6.108  13.407  0.5046  0.4940  1.1436
  986TIP3   OH224448   6.013   0.086  14.528  0.2387 -0.0073 -0.3211
  986TIP3    H124449   6.056   0.081  14.614  0.1162 -1.2726 -0.3102
  986TIP3    H224450   5.999   0.179  14.513 -2.4774  0.1744  2.3959
  987TIP3   OH224451   5.497   1.733   3.949  0.1129  0.0363  0.5561
  987TIP3    H124452   5.582   1.701   3.979  0.5242 -0.7846 -1.3563
  987TIP3    H224453   5.517   1.797   3.882 -0.7655 -0.4897 -0.2300
  988TIP3   OH224454   2.353   5.146   4.487  1.3391 -0.4828 -0.2716
  988TIP3    H124455   2.327   5.077   4.426  1.0958  0.0042 -0.7233
  988TIP3    H224456   2.324   5.227   4.445  0.6921 -0.1744  0.7285
  989TIP3   OH224457   6.797   5.365  15.062 -0.0740  0.2585 -0.0810
  989TIP3    H124458   6.714   5.402  15.032 -1.6618 -3.0610 -0.2580
  989TIP3    H224459   6.849   5.441  15.089 -2.4627  2.6107 -1.5947
  990TIP3   OH224460   1.043   5.218   3.373  0.3548 -0.2609 -0.3024
  990TIP3    H124461   1.097   5.139   3.379 -1.3089 -1.4569 -0.5089
  990TIP3    H224462   0.996   5.221   3.456 -0.6921 -0.3292 -0.8801
  991TIP3   OH224463   5.366   4.943   4.784 -0.1589 -0.0939 -0.1081
  991TIP3    H124464   5.428   4.882   4.824  0.2236  0.0896 -0.4177
  991TIP3    H224465   5.282   4.898   4.788 -0.7954  1.0280  3.6152
  992TIP3   OH224466   4.840   2.879  13.583 -0.1755 -0.6279 -0.1440
  992TIP3    H124467   4.771   2.928  13.539 -0.5930 -1.0793 -0.0044
  992TIP3    H224468   4.905   2.861  13.515  1.2069  2.2037  0.2751
  993TIP3   OH224469   2.493   4.744   3.017  0.0558 -0.0237 -0.0335
  993TIP3    H124470   2.526   4.807   2.953  0.5742 -0.6497 -0.3855
  993TIP3    H224471   2.446   4.798   3.081  0.4005  0.7105 -0.3857
  994TIP3   OH224472   1.533   2.807   0.694 -0.1376  0.2618  0.5120
  994TIP3    H124473   1.564   2.745   0.627 -2.1264  1.3371 -1.5889
  994TIP3    H224474   1.565   2.892   0.664 -2.1934  0.9405  0.0756
  995TIP3   OH224475   4.154   6.213   3.322 -0.4731  0.8348 -0.3923
  995TIP3    H124476   4.201   6.129   3.328  2.7969  2.5762  0.3991
  995TIP3    H224477   4.152   6.245   3.412 -4.1675  0.5245 -0.2004
  996TIP3   OH224478   3.413   3.727   5.059 -0.0765  0.0384 -0.4789
  996TIP3    H124479   3.465   3.654   5.026  2.5485  1.5535  0.0063
  996TIP3    H224480   3.433   3.731   5.153 -1.7809  0.1831 -0.0762
  997TIP3   OH224481   0.482   1.820   4.139  0.0181  0.2310 -0.1340
  997TIP3    H124482   0.405   1.856   4.095 -0.8678 -2.0504 -0.6119
  997TIP3    H224483   0.453   1.734   4.171  1.7912  0.1743  1.5003
  998TIP3   OH224484   5.772   0.163   0.232  0.2908 -0.1134  0.3668
  998TIP3    H124485   5.697   0.222   0.240 -2.1383 -2.5913 -2.1129
  998TIP3    H224486   5.826   0.203   0.164 -0.5070  0.0512 -0.1856
  999TIP3   OH224487   2.748   0.432  11.639  0.2647  0.3588  0.4099
  999TIP3    H124488   2.796   0.484  11.704  0.3555  1.2336 -0.3323
  999TIP3    H224489   2.744   0.344  11.677  1.9812  0.3844  0.7402
 1000TIP3   OH224490   4.720   2.424  12.660 -0.2803  0.0395  0.6325
 1000TIP3    H124491   4.762   2.339  12.647 -0.7585 -0.3812  1.7092
 1000TIP3    H224492   4.777   2.486  12.614  0.9967 -0.6339  1.2386
 1001TIP3   OH224493   6.696   6.613  11.670  0.5786  0.2895 -0.2798
 1001TIP3    H124494   6.664   6.532  11.630 -0.5213  0.7195 -0.3118
 1001TIP3    H224495   6.648   6.682  11.624  0.4247  0.8786  0.7444
 1002TIP3   OH224496   1.071   1.106  13.658  0.3537 -0.2282 -0.2468
 1002TIP3    H124497   1.098   1.117  13.749  0.2202  3.4947 -0.5207
 1002TIP3    H224498   0.982   1.141  13.655  0.3900 -0.1860 -1.8339
 1003TIP3   OH224499   5.741   3.983  13.042 -0.1148  0.2793 -0.2216
 1003TIP3    H124500   5.770   3.916  12.980  0.4078 -0.0018  0.3040
 1003TIP3    H224501   5.646   3.983  13.037 -0.3452 -2.5720  1.8235
 1004TIP3   OH224502   3.788   3.070  12.922 -0.0722 -0.4158  0.5270
 1004TIP3    H124503   3.807   2.977  12.931  2.6212  0.0814  0.7896
 1004TIP3    H224504   3.828   3.095  12.839 -0.5379  0.5448  0.5787
 1005TIP3   OH224505   4.532   0.756  15.745 -0.6396  0.2724 -0.7458
 1005TIP3    H124506   4.509   0.680  15.691 -3.4328  1.5039 -1.4392
 1005TIP3    H224507   4.626   0.747  15.760 -1.2622 -5.3391  2.4021
 1006TIP3   OH224508   1.712   5.833   2.158 -0.3706  0.1770 -0.1851
 1006TIP3    H124509   1.677   5.878   2.235 -1.2699 -0.5122 -0.1686
 1006TIP3    H224510   1.689   5.890   2.085  0.3363  0.7518  0.0308
 1007TIP3   OH224511   6.484   2.507  15.997 -0.0263 -0.6216 -0.5341
 1007TIP3    H124512   6.509   2.527  15.906 -0.6484 -1.1742 -0.8338
 1007TIP3    H224513   6.389   2.494  15.993  0.0760 -1.5632  0.0275
 1008TIP3   OH224514   3.034   6.608   4.122  0.0668 -0.3578 -0.0929
 1008TIP3    H124515   3.079   6.559   4.053 -2.2475 -2.6187 -0.1684
 1008TIP3    H224516   3.101   6.623   4.189  1.2758 -2.3033 -0.7750
 1009TIP3   OH224517   5.267   3.544  14.932 -0.1814 -0.1580  0.3535
 1009TIP3    H124518   5.208   3.584  14.868  0.7755 -0.7843 -0.9778
 1009TIP3    H224519   5.253   3.593  15.013  0.0900  2.0650 -0.8808
 1010TIP3   OH224520   1.767   1.773  16.661 -0.0462  0.0683 -0.7277
 1010TIP3    H124521   1.831   1.825  16.613  1.6563 -1.2173  0.0540
 1010TIP3    H224522   1.750   1.823  16.741  1.1835 -0.2725 -0.2259
 1011TIP3   OH224523   0.513   1.840   0.224  0.2048  0.3136 -0.0797
 1011TIP3    H124524   0.551   1.914   0.176  1.1865 -0.4223 -0.4597
 1011TIP3    H224525   0.566   1.765   0.199 -1.8243 -0.8817 -1.0240
 1012TIP3   OH224526   6.303   3.591  12.751 -0.9436 -0.1555 -0.0040
 1012TIP3    H124527   6.256   3.518  12.791  0.8389 -0.4923  1.5866
 1012TIP3    H224528   6.345   3.552  12.674 -1.0680 -0.4926  0.0948
 1013TIP3   OH224529   1.089   3.089  15.259  0.0414  0.3137  0.0134
 1013TIP3    H124530   1.077   3.016  15.199 -0.9947  0.1255  0.4125
 1013TIP3    H224531   1.151   3.147  15.216 -2.8160  1.6765 -2.6714
 1014TIP3   OH224532   4.948   0.752  17.058  0.6419 -0.3521  0.0249
 1014TIP3    H124533   4.902   0.718  17.135 -0.1515  0.1911 -0.1932
 1014TIP3    H224534   5.016   0.687  17.040 -0.2071 -1.3305  0.2133
 1015TIP3   OH224535   1.037   5.120   0.946  0.0558 -0.1523 -0.1372
 1015TIP3    H124536   1.095   5.196   0.952  0.1545 -0.0882 -1.5919
 1015TIP3    H224537   1.006   5.120   0.855 -2.4416 -0.0268  0.6213
 1016TIP3   OH224538   1.006   0.083   5.272 -0.3787 -0.2861 -0.4684
 1016TIP3    H124539   1.040   0.051   5.356 -0.1666  0.4515 -0.2558
 1016TIP3    H224540   1.085   0.103   5.221 -0.4906  0.3766 -0.3943
 1017TIP3   OH224541   0.364   0.261  13.546  0.0643 -0.8277 -0.3812
 1017TIP3    H124542   0.331   0.213  13.470  0.8834 -1.4573 -0.3481
 1017TIP3    H224543   0.337   0.352  13.531  2.2940 -0.4427 -2.6412
 1018TIP3   OH224544   6.278   3.684  15.063 -0.3126 -0.4315  0.3444
 1018TIP3    H124545   6.324   3.755  15.018 -0.9275 -0.0296  0.3259
 1018TIP3    H224546   6.221   3.647  14.996 -1.3473  0.2726  0.8119
 1019TIP3   OH224547   2.510   6.204   3.348  0.3472 -0.0462 -0.2892
 1019TIP3    H124548   2.447   6.262   3.304 -1.7000 -1.0336  1.1620
 1019TIP3    H224549   2.457   6.131   3.380  1.7261  0.2968  3.2429
 1020TIP3   OH224550   0.089   1.889  11.654  0.5581  0.7676 -0.1083
 1020TIP3    H124551   0.021   1.956  11.666  0.4518  0.4281  1.3219
 1020TIP3    H224552   0.132   1.884  11.739  2.2328  0.8046 -0.9248
 1021TIP3   OH224553   0.631   5.139  11.450 -0.9410 -0.3244 -0.5822
 1021TIP3    H124554   0.542   5.112  11.473 -1.1471  1.5551  1.1398
 1021TIP3    H224555   0.619   5.207  11.383 -0.7596 -0.5346 -0.8293
 1022TIP3   OH224556   2.650   2.753  15.646  0.3612  0.3430 -0.1540
 1022TIP3    H124557   2.607   2.730  15.729  0.1489  1.4036  0.0413
 1022TIP3    H224558   2.728   2.697  15.643 -1.5712 -2.5406 -1.0896
 1023TIP3   OH224559   6.717   2.906   0.284  0.2336 -0.0682  0.0936
 1023TIP3    H124560   6.700   2.995   0.254 -2.3229 -0.1151  1.0926
 1023TIP3    H224561   6.664   2.851   0.226  0.8299 -0.8228  0.2521
 1024TIP3   OH224562   0.632   2.586  11.906 -0.1279 -0.1960  0.6543
 1024TIP3    H124563   0.645   2.507  11.957  0.3109 -0.0346  0.7992
 1024TIP3    H224564   0.683   2.653  11.952 -0.3406  0.1240  0.4294
 1025TIP3   OH224565   0.141   3.685   4.525 -0.4164 -0.0747  0.2378
 1025TIP3    H124566   0.071   3.664   4.588 -0.6730 -0.4286 -0.1562
 1025TIP3    H224567   0.222   3.665   4.572 -0.6067 -0.3738  0.4426
 1026TIP3   OH224568   4.778   3.931  16.007 -0.1988  0.5367  0.2360
 1026TIP3    H124569   4.866   3.967  15.991 -0.5485  0.8336 -1.1409
 1026TIP3    H224570   4.780   3.844  15.967 -0.9509  1.1101 -1.1294
 1027TIP3   OH224571   5.939   4.413   0.296 -0.4334 -0.0454 -0.9627
 1027TIP3    H124572   5.876   4.419   0.367  1.3203  0.5812  0.6373
 1027TIP3    H224573   5.935   4.498   0.253 -1.8293 -0.5850 -1.9537
 1028TIP3   OH224574   2.222   6.240   0.776 -0.1341  0.4276  0.0899
 1028TIP3    H124575   2.219   6.163   0.831 -0.6038 -0.4919 -1.1797
 1028TIP3    H224576   2.236   6.313   0.837  0.2305 -0.6322  1.3117
 1029TIP3   OH224577   2.325   2.076   1.528  0.5894  0.4094 -0.1210
 1029TIP3    H124578   2.406   2.037   1.493 -0.8213 -1.3101 -1.6572
 1029TIP3    H224579   2.299   2.017   1.599 -0.6160 -0.5445 -1.3010
 1030TIP3   OH224580   6.064   6.392   2.512  0.1518 -0.4243 -0.0372
 1030TIP3    H124581   6.142   6.341   2.533  0.2633 -0.8904 -1.5007
 1030TIP3    H224582   6.078   6.477   2.555  1.0078 -0.8363  0.5066
 1031TIP3   OH224583   5.827   3.054  11.890  0.0615  0.1619 -0.1292
 1031TIP3    H124584   5.820   3.150  11.887 -2.1954  0.0946  1.1024
 1031TIP3    H224585   5.868   3.031  11.807 -1.1355  2.0969 -1.3516
 1032TIP3   OH224586   0.923   4.998  13.200  0.1102  0.0034 -0.0955
 1032TIP3    H124587   0.975   5.076  13.222 -0.4799  0.5184 -0.4767
 1032TIP3    H224588   0.986   4.936  13.163  0.3874  0.8058 -1.0087
 1033TIP3   OH224589   1.242   6.019  14.354 -0.2973 -0.0906  0.0939
 1033TIP3    H124590   1.329   6.031  14.318 -0.4065  0.4194 -0.0111
 1033TIP3    H224591   1.209   5.939  14.313 -0.0681 -0.0165 -0.2308
 1034TIP3   OH224592   3.540   2.102  15.978  0.2479  0.2843  0.5930
 1034TIP3    H124593   3.561   2.037  15.912 -0.2329 -1.9228  2.4613
 1034TIP3    H224594   3.597   2.080  16.052  1.8239  3.5631  0.5145
 1035TIP3   OH224595   1.156   5.200   1.778  0.5624 -0.2900 -0.3760
 1035TIP3    H124596   1.070   5.158   1.770  1.2330 -2.6304  2.6308
 1035TIP3    H224597   1.218   5.127   1.779  2.5749  1.3054 -1.6659
 1036TIP3   OH224598   2.020   6.776   3.767  0.0957 -0.6554  0.2897
 1036TIP3    H124599   2.087   6.711   3.742 -0.3732 -0.5782 -1.2974
 1036TIP3    H224600   1.939   6.725   3.772  0.1656 -0.6670  1.7840
 1037TIP3   OH224601   4.503   3.319  15.767  0.6918 -0.1609 -0.2583
 1037TIP3    H124602   4.560   3.396  15.763  0.0646  0.5490  2.5404
 1037TIP3    H224603   4.463   3.315  15.680 -0.1861  3.5025 -0.2067
 1038TIP3   OH224604   3.761   2.440  12.073  0.0607  0.0978 -0.4868
 1038TIP3    H124605   3.735   2.531  12.085  0.7633  0.2721 -0.2448
 1038TIP3    H224606   3.684   2.389  12.101  0.1074  0.5920  0.5867
 1039TIP3   OH224607   6.815   4.872  13.125 -0.3408 -0.3180 -1.1002
 1039TIP3    H124608   6.894   4.881  13.073 -1.1259  1.2829 -2.1320
 1039TIP3    H224609   6.767   4.954  13.110 -1.2586 -0.3752  1.0776
 1040TIP3   OH224610   0.353   3.265  16.447 -0.1692 -0.5069  0.4270
 1040TIP3    H124611   0.359   3.239  16.539  0.3521 -2.4103 -0.0959
 1040TIP3    H224612   0.435   3.311  16.429 -0.4079  0.1460  0.9675
 1041TIP3   OH224613   2.665   5.100   3.890  0.0584 -0.0782  0.1820
 1041TIP3    H124614   2.648   5.030   3.954 -0.3954  0.2324  0.4099
 1041TIP3    H224615   2.662   5.181   3.942  0.1283  0.1455 -0.1591
 1042TIP3   OH224616   4.111   4.520   4.988 -0.0153 -0.0979 -0.0597
 1042TIP3    H124617   4.045   4.589   4.987  0.3276  0.2334 -0.5403
 1042TIP3    H224618   4.111   4.488   5.078 -0.7011  0.0222 -0.0135
 1043TIP3   OH224619   3.444   3.398   2.382  0.1716  0.2729 -0.0523
 1043TIP3    H124620   3.356   3.422   2.356 -0.1943 -2.5797 -1.9814
 1043TIP3    H224621   3.501   3.461   2.338 -0.8132 -0.0107 -1.8227
 1044TIP3   OH224622   3.291   1.983  13.554  0.3644  0.3034 -0.1103
 1044TIP3    H124623   3.317   1.922  13.623  1.3864 -0.3820 -1.0603
 1044TIP3    H224624   3.311   2.069  13.589 -2.6300  0.3073  1.9161
 1045TIP3   OH224625   2.634   3.275  15.361  0.0533 -0.2528 -0.0332
 1045TIP3    H124626   2.637   3.282  15.265  1.3945 -0.8183 -0.0626
 1045TIP3    H224627   2.633   3.366  15.391 -1.0183 -0.0691 -0.5863
 1046TIP3   OH224628   5.905   6.512  12.695 -0.4993 -0.7144  0.6010
 1046TIP3    H124629   5.838   6.449  12.721 -0.3544 -1.4604 -0.7484
 1046TIP3    H224630   5.857   6.581  12.650 -0.5098 -0.5248  0.8989
 1047TIP3   OH224631   4.241   1.968  15.460  0.6176 -0.2027 -0.3584
 1047TIP3    H124632   4.317   2.006  15.505  0.1394  0.4778 -0.1012
 1047TIP3    H224633   4.224   1.886  15.507  1.0368 -0.2349 -0.2587
 1048TIP3   OH224634   4.965   2.950  11.969  0.2637  0.2766  0.2624
 1048TIP3    H124635   4.891   2.906  12.011 -0.1765  1.7198  1.0779
 1048TIP3    H224636   5.037   2.887  11.974 -0.6698 -0.8338  0.2031
 1049TIP3   OH224637   2.248   3.963  15.659  0.7863 -0.3350 -0.2487
 1049TIP3    H124638   2.301   4.028  15.704  0.0323  0.0729  0.0734
 1049TIP3    H224639   2.177   3.944  15.720 -0.1337  0.0620 -1.1701
 1050TIP3   OH224640   6.291   0.794   2.475 -0.1983  0.3312  0.2224
 1050TIP3    H124641   6.324   0.706   2.493 -1.7055 -0.1077  1.0637
 1050TIP3    H224642   6.258   0.825   2.560  0.1927  1.6650 -0.0829
 1051TIP3   OH224643   5.269   1.976   4.980  0.0152  0.0530  0.3218
 1051TIP3    H124644   5.193   2.019   5.020  1.3106 -0.5738  3.8721
 1051TIP3    H224645   5.341   2.037   4.996  1.3727 -2.0302  2.9972
 1052TIP3   OH224646   2.517   2.944  15.220 -0.2714 -0.6681  0.4738
 1052TIP3    H124647   2.529   2.874  15.155  2.0667  0.7669 -0.8009
 1052TIP3    H224648   2.440   2.991  15.189  1.0767  0.2947 -1.6984
 1053TIP3   OH224649   6.736   4.777   2.008 -0.7012  0.3679  0.1312
 1053TIP3    H124650   6.721   4.820   1.924 -3.8003 -0.1648  0.2881
 1053TIP3    H224651   6.824   4.742   2.001 -0.2254  1.7825 -2.2279
 1054TIP3   OH224652   5.387   3.144  14.776 -0.4624  0.0054 -0.0682
 1054TIP3    H124653   5.333   3.129  14.699 -0.2739  2.6441 -0.8074
 1054TIP3    H224654   5.477   3.142  14.744 -0.2713 -0.8777  0.4887
 1055TIP3   OH224655   4.375   6.317   4.281  0.1784  0.2829  0.3837
 1055TIP3    H124656   4.430   6.255   4.232 -0.9808  0.5217 -1.3242
 1055TIP3    H224657   4.417   6.402   4.268  0.8868  0.1065  1.3935
 1056TIP3   OH224658   4.466   2.590  12.135 -0.0637 -0.4561  0.0751
 1056TIP3    H124659   4.461   2.569  12.228 -1.7973 -0.7732 -0.0507
 1056TIP3    H224660   4.560   2.598  12.117  0.3263 -0.9423  1.7151
 1057TIP3   OH224661   0.749   2.754   0.045  0.3559 -0.1007 -0.0413
 1057TIP3    H124662   0.671   2.789   0.087 -0.4163 -0.2158 -1.3379
 1057TIP3    H224663   0.723   2.737  -0.046  1.5349 -1.3015 -0.1884
 1058TIP3   OH224664   3.648   0.666  14.670 -0.1164 -0.0426  0.4908
 1058TIP3    H124665   3.720   0.692  14.727 -0.1492 -1.8925  1.4575
 1058TIP3    H224666   3.691   0.631  14.592 -0.0696  2.1062 -0.5326
 1059TIP3   OH224667   1.278   4.082   1.616  0.1223  0.0034  0.3196
 1059TIP3    H124668   1.223   4.004   1.617  0.2629 -0.1210 -0.7314
 1059TIP3    H224669   1.365   4.051   1.639  0.0562 -0.0410  0.5150
 1060TIP3   OH224670   4.513   2.016   4.964 -0.5240 -0.2511 -0.0258
 1060TIP3    H124671   4.602   1.982   4.962 -0.1212  0.5951  1.5864
 1060TIP3    H224672   4.517   2.091   5.024 -2.4333 -0.5457  0.5436
 1061TIP3   OH224673   4.467   2.604   3.374  0.2017  0.6567 -0.5343
 1061TIP3    H124674   4.495   2.677   3.429  5.0461 -1.0201 -0.2573
 1061TIP3    H224675   4.518   2.614   3.294 -0.3411 -1.4427 -1.2002
 1062TIP3   OH224676   5.613   2.153  16.913 -0.5368 -0.0504 -0.0308
 1062TIP3    H124677   5.685   2.211  16.939  1.3740 -2.0955 -0.4375
 1062TIP3    H224678   5.556   2.150  16.990  0.3124  0.8997  0.6605
 1063TIP3   OH224679   1.324   1.108  16.666 -0.3061 -0.1794  1.0979
 1063TIP3    H124680   1.335   1.153  16.750 -0.1682  0.3973  0.7829
 1063TIP3    H224681   1.264   1.037  16.684 -1.7413  1.0420  1.2983
 1064TIP3   OH224682   3.651   5.334   1.062 -0.9026  0.3545 -0.5469
 1064TIP3    H124683   3.729   5.294   1.101  0.5580  3.4896  0.0688
 1064TIP3    H224684   3.667   5.331   0.968 -0.9648 -0.7055 -0.5337
 1065TIP3   OH224685   1.359   0.531   0.936 -0.1067 -0.4338 -0.7034
 1065TIP3    H124686   1.296   0.573   0.993  0.0999 -0.5599 -0.3801
 1065TIP3    H224687   1.312   0.518   0.853 -0.9049 -1.6104 -0.0990
 1066TIP3   OH224688   6.317   3.877  16.033  0.4895  0.0733  0.4249
 1066TIP3    H124689   6.372   3.923  15.969 -0.3361  0.1210 -0.2608
 1066TIP3    H224690   6.230   3.914  16.021  0.0594 -0.8319  0.6814
 1067TIP3   OH224691   4.932   1.908   1.441  0.0589  0.4470  0.2594
 1067TIP3    H124692   5.024   1.935   1.436  0.6121 -1.3566 -0.1509
 1067TIP3    H224693   4.934   1.825   1.489 -1.1812 -0.2803 -0.8828
 1068TIP3   OH224694   3.969   3.275  13.187  0.2198 -0.3489  0.3445
 1068TIP3    H124695   3.878   3.246  13.186  0.2846 -0.5515 -0.1351
 1068TIP3    H224696   3.994   3.273  13.279 -0.8907  1.7178  0.7399
 1069TIP3   OH224697   3.960   2.226   1.491 -0.2576 -0.1215  0.1262
 1069TIP3    H124698   4.029   2.291   1.502  0.8316 -1.2840  0.4310
 1069TIP3    H224699   3.928   2.239   1.402  3.1824 -2.1079 -1.6371
 1070TIP3   OH224700   3.760   4.153   0.336  0.5446  0.0154 -0.0897
 1070TIP3    H124701   3.758   4.179   0.428 -1.7940 -1.0146  0.2105
 1070TIP3    H224702   3.759   4.058   0.338 -0.8619 -0.0237 -1.1547
 1071TIP3   OH224703   4.072   6.547  11.423  0.4468 -0.2330  0.4544
 1071TIP3    H124704   3.985   6.507  11.411  1.2456 -1.6094 -1.2409
 1071TIP3    H224705   4.130   6.473  11.441  1.4837  0.5186  0.2948
 1072TIP3   OH224706   1.505   6.503   4.205  0.6010 -0.2878  0.3024
 1072TIP3    H124707   1.510   6.592   4.171 -0.3250 -0.7415 -1.1103
 1072TIP3    H224708   1.412   6.492   4.229  0.1554 -1.6176 -1.7839
 1073TIP3   OH224709   3.781   5.826   1.099  0.0397  0.2763  0.4265
 1073TIP3    H124710   3.871   5.829   1.130 -0.1998 -0.4536  1.2135
 1073TIP3    H224711   3.741   5.754   1.147 -0.4190 -0.7262 -1.3719
 1074TIP3   OH224712   0.580   6.366   1.416 -0.3130 -0.8452  0.1700
 1074TIP3    H124713   0.583   6.285   1.465  0.5497  0.1641  1.8572
 1074TIP3    H224714   0.657   6.415   1.444 -1.4310  1.0605  0.1347
 1075TIP3   OH224715   0.746   3.858   4.965 -0.5046 -0.0030  0.0312
 1075TIP3    H124716   0.673   3.910   5.000  1.3080  2.0409  1.0500
 1075TIP3    H224717   0.742   3.873   4.870 -0.7984  0.9485  0.1807
 1076TIP3   OH224718   0.416   1.049   5.064 -0.6767  0.3709 -0.6973
 1076TIP3    H124719   0.350   1.078   5.127 -0.2841  0.8261 -0.4964
 1076TIP3    H224720   0.365   1.006   4.995 -1.0876 -0.4561  0.0929
 1077TIP3   OH224721   6.529   1.961  14.489  0.2060  1.0168 -0.5732
 1077TIP3    H124722   6.590   1.976  14.416  1.2985 -3.1209 -0.7614
 1077TIP3    H224723   6.585   1.959  14.567 -0.3041  1.1070 -0.2037
 1078TIP3   OH224724   0.840   1.310  11.665 -0.2180  0.3680 -0.1660
 1078TIP3    H124725   0.808   1.365  11.594 -1.3545 -0.0796 -0.0159
 1078TIP3    H224726   0.764   1.257  11.691  0.5112 -0.3660  0.5350
 1079TIP3   OH224727   5.340   3.462  12.737  0.1296  1.0351 -0.1927
 1079TIP3    H124728   5.368   3.546  12.774  0.6827  1.5052 -1.6357
 1079TIP3    H224729   5.408   3.439  12.674  0.3001 -0.8178  0.5811
 1080TIP3   OH224730   6.608   1.086  14.838 -0.0681 -0.4730 -0.4322
 1080TIP3    H124731   6.631   1.173  14.871 -0.0361 -0.3889 -0.6690
 1080TIP3    H224732   6.550   1.049  14.904 -0.4859 -0.0721 -0.5731
 1081TIP3   OH224733   5.009   5.893   5.921 -0.4821  0.0396  0.3461
 1081TIP3    H124734   5.011   5.944   5.839 -0.6426  0.7562  0.7783
 1081TIP3    H224735   4.927   5.844   5.916  0.1590 -0.9808 -0.5392
 1082TIP3   OH224736   1.407   0.490   1.771 -0.2087  0.0097 -0.0229
 1082TIP3    H124737   1.470   0.487   1.842  0.2965 -1.0051 -0.4822
 1082TIP3    H224738   1.403   0.399   1.739 -0.9240  0.3124 -0.8419
 1083TIP3   OH224739   6.269   4.001   5.204  0.2771  0.0527 -0.5905
 1083TIP3    H124740   6.188   4.040   5.170 -0.1342  1.3159  1.6384
 1083TIP3    H224741   6.239   3.942   5.273  1.2034 -0.8759 -0.9495
 1084TIP3   OH224742   4.923   6.658  11.423 -0.5410 -0.1862 -0.1122
 1084TIP3    H124743   4.885   6.598  11.487  1.9515 -0.9233  0.8219
 1084TIP3    H224744   4.950   6.734  11.475  1.0369 -0.5675 -0.3155
 1085TIP3   OH224745   2.299   1.697  17.158 -0.6009  0.0792  0.2372
 1085TIP3    H124746   2.213   1.679  17.195 -0.1862  2.3513  2.5822
 1085TIP3    H224747   2.331   1.612  17.127 -2.6467 -1.2554  1.5718
 1086TIP3   OH224748   4.348   2.322  11.563 -0.0243  0.8060  0.1485
 1086TIP3    H124749   4.404   2.345  11.637  0.7252  0.6681 -0.3613
 1086TIP3    H224750   4.259   2.332  11.596  0.2998  0.9276  1.0082
 1087TIP3   OH224751   1.612   4.063   1.924  0.2096 -0.0701 -0.4949
 1087TIP3    H124752   1.664   3.987   1.951 -0.0106  0.1053  0.4598
 1087TIP3    H224753   1.522   4.031   1.922  0.2409 -0.1150 -1.1557
 1088TIP3   OH224754   5.166   4.498  13.799 -0.4298  0.0150  0.1381
 1088TIP3    H124755   5.152   4.435  13.729 -0.4246  1.1038 -0.8715
 1088TIP3    H224756   5.123   4.460  13.875 -0.7103 -1.0458 -0.5384
 1089TIP3   OH224757   1.384   1.903   2.916 -0.4279 -0.2030 -0.0600
 1089TIP3    H124758   1.475   1.877   2.933 -1.0213 -1.1120  2.0842
 1089TIP3    H224759   1.332   1.844   2.970 -2.1897  1.5294  0.2251
 1090TIP3   OH224760   1.722   1.448  10.962 -0.2086 -0.6548 -0.0604
 1090TIP3    H124761   1.764   1.529  10.932 -2.0320 -0.0283 -1.1484
 1090TIP3    H224762   1.794   1.391  10.987  1.1502  1.2998  0.7800
 1091TIP3   OH224763   2.500   6.567  14.347 -0.6019 -0.2637 -0.3779
 1091TIP3    H124764   2.579   6.622  14.343 -0.9853  0.2419 -1.2014
 1091TIP3    H224765   2.432   6.626  14.379 -1.1553 -0.0805 -1.8455
 1092TIP3   OH224766   2.377   1.421  11.659 -0.0137  0.1720  0.5278
 1092TIP3    H124767   2.411   1.440  11.572  1.3853  0.0319  1.0287
 1092TIP3    H224768   2.323   1.343  11.647  0.6407 -0.1906 -0.1192
 1093TIP3   OH224769   3.972   1.038   0.945 -0.3715  0.3316 -0.3023
 1093TIP3    H124770   3.922   1.032   1.026 -0.0076  1.1868 -0.0129
 1093TIP3    H224771   3.968   0.949   0.908 -2.9163  0.5801 -0.7751
 1094TIP3   OH224772   5.937   4.560  15.456 -0.1465 -0.0000  0.9479
 1094TIP3    H124773   5.895   4.509  15.387 -0.4312  1.1006  0.2785
 1094TIP3    H224774   5.873   4.562  15.527 -1.0149  1.1284  0.1772
 1095TIP3   OH224775   6.258   1.595   4.816  0.4694 -0.4619 -0.6953
 1095TIP3    H124776   6.252   1.689   4.804 -0.3373 -0.1695  1.5313
 1095TIP3    H224777   6.352   1.577   4.821  0.6372  0.1575 -1.4812
 1096TIP3   OH224778   2.514   4.165  16.256 -0.2503 -0.8517 -0.0101
 1096TIP3    H124779   2.537   4.226  16.326 -1.8938 -0.4349  0.2104
 1096TIP3    H224780   2.534   4.212  16.175 -0.2169 -0.5661  0.1641
 1097TIP3   OH224781   2.048   5.579  14.496  0.4778  0.4174  0.0751
 1097TIP3    H124782   2.052   5.488  14.465  1.2174  0.9631 -1.5716
 1097TIP3    H224783   1.963   5.611  14.467  0.0651  0.1544  0.9766
 1098TIP3   OH224784   5.436   5.560  14.737  0.9009  0.3892  0.1873
 1098TIP3    H124785   5.400   5.644  14.765  1.4463  0.3215  1.1538
 1098TIP3    H224786   5.514   5.548  14.792  1.2591 -0.3918 -0.4687
 1099TIP3   OH224787   6.390   3.413   0.428 -0.2755  0.1381 -0.4330
 1099TIP3    H124788   6.420   3.461   0.506  1.5912 -2.2944  0.4695
 1099TIP3    H224789   6.295   3.412   0.437 -0.1135 -0.7596  2.3541
 1100TIP3   OH224790   0.767   1.553  11.537  0.0470 -0.0798 -0.0564
 1100TIP3    H124791   0.681   1.582  11.507  0.1435 -1.0026 -1.3133
 1100TIP3    H224792   0.762   1.561  11.633 -2.5299 -2.8868  0.2094
 1101TIP3   OH224793   2.748   0.763   4.075  0.2438 -0.0806 -0.2701
 1101TIP3    H124794   2.775   0.672   4.063 -1.1593 -0.5468 -0.1584
 1101TIP3    H224795   2.654   0.757   4.093  0.3767  1.2950  1.0788
 1102TIP3   OH224796   3.912   6.128   0.301 -0.5826 -0.1354 -0.0212
 1102TIP3    H124797   3.999   6.146   0.336 -0.5052  1.7382 -1.0297
 1102TIP3    H224798   3.928   6.076   0.222 -0.3574  0.4203 -0.3426
 1103TIP3   OH224799   3.435   0.494   3.043  0.1872  0.0003  0.0808
 1103TIP3    H124800   3.431   0.415   2.988  0.2078 -0.3841  0.6161
 1103TIP3    H224801   3.365   0.550   3.010 -0.6017 -0.7440  0.4355
 1104TIP3   OH224802   3.266   3.902  12.627 -0.4415 -0.1760 -0.4655
 1104TIP3    H124803   3.345   3.885  12.679 -0.7535 -1.1992 -0.3028
 1104TIP3    H224804   3.202   3.839  12.660 -1.8647  1.6838  0.5240
 1105TIP3   OH224805   4.294   1.226  14.548 -0.2448 -0.0058  0.1020
 1105TIP3    H124806   4.257   1.251  14.633 -1.5992 -1.0339 -0.1485
 1105TIP3    H224807   4.288   1.131  14.546 -1.5558  0.0574 -1.6775
 1106TIP3   OH224808   3.603   4.413   1.957  0.1034 -0.1308  0.6157
 1106TIP3    H124809   3.661   4.338   1.970 -1.1312 -0.9422  1.7184
 1106TIP3    H224810   3.515   4.379   1.975 -0.8730  0.8355 -1.8712
 1107TIP3   OH224811   4.198   3.114  11.900  0.7017  0.3076  0.1948
 1107TIP3    H124812   4.158   3.044  11.848 -1.5115  0.7622  1.1663
 1107TIP3    H224813   4.284   3.080  11.924 -0.4916 -2.3635  1.0971
 1108TIP3   OH224814   0.720   6.365   0.968  0.1836  0.3644 -0.2799
 1108TIP3    H124815   0.814   6.381   0.976  0.3597  0.1710 -1.7041
 1108TIP3    H224816   0.687   6.442   0.921 -0.5320  0.8198  0.9114
 1109TIP3   OH224817   4.036   2.553  12.971  0.0020 -0.7481  0.3936
 1109TIP3    H124818   3.946   2.523  12.962  0.0073 -0.9426  0.9610
 1109TIP3    H224819   4.040   2.633  12.919 -1.0945  0.5370  2.1860
 1110TIP3   OH224820   5.401   0.473  13.839  0.0923 -0.1640  0.1042
 1110TIP3    H124821   5.462   0.484  13.911 -0.0815  0.2445  0.1925
 1110TIP3    H224822   5.456   0.457  13.762  0.2521 -1.4479  0.4692
 1111TIP3   OH224823   2.937   0.673   5.528 -0.1865  0.0304 -0.3338
 1111TIP3    H124824   2.937   0.765   5.503 -1.8166  0.4158  0.9391
 1111TIP3    H224825   2.873   0.632   5.471 -1.0115  0.1343  0.4870
 1112TIP3   OH224826   2.070   2.235  14.226  0.2686  0.2863  0.2869
 1112TIP3    H124827   2.015   2.165  14.261 -0.9988  1.3920  0.6014
 1112TIP3    H224828   2.109   2.277  14.303 -2.4785  2.6857  0.5489
 1113TIP3   OH224829   3.056   1.152  11.689  0.8028  0.3686 -0.0561
 1113TIP3    H124830   3.078   1.244  11.703 -1.2716  1.1211 -1.2388
 1113TIP3    H224831   2.982   1.154  11.628  0.4744 -2.0771  0.1510
 1114TIP3   OH224832   0.538   3.791  12.952 -0.6849  0.0257 -0.4193
 1114TIP3    H124833   0.548   3.882  12.981 -0.9926  0.1774 -0.7777
 1114TIP3    H224834   0.469   3.756  13.009  1.1666 -0.7676  1.4704
 1115TIP3   OH224835   5.788   3.792   1.162 -0.0403 -0.1122 -0.3423
 1115TIP3    H124836   5.763   3.857   1.228  3.4363  0.5393  0.5404
 1115TIP3    H224837   5.752   3.826   1.080 -0.7359  1.3975  0.5435
 1116TIP3   OH224838   5.729   2.215  13.224 -0.0186  0.6758  0.1857
 1116TIP3    H124839   5.660   2.279  13.204 -0.6516  0.9940  2.9919
 1116TIP3    H224840   5.683   2.142  13.265  1.0399 -0.4053 -0.4729
 1117TIP3   OH224841   2.941   2.940   5.590  0.0757  0.5897  0.3772
 1117TIP3    H124842   3.016   2.925   5.533 -0.3382 -1.3652  0.2920
 1117TIP3    H224843   2.978   2.981   5.668  1.4264 -1.1619  0.7260
 1118TIP3   OH224844   3.861   3.633   2.248 -0.6159  0.3419 -0.1665
 1118TIP3    H124845   3.895   3.679   2.172  0.1723 -0.4424 -0.3005
 1118TIP3    H224846   3.939   3.607   2.297 -1.1023  1.8811  1.5687
 1119TIP3   OH224847   1.392   1.683  14.581  0.5319  0.1815  0.0888
 1119TIP3    H124848   1.409   1.648  14.494 -1.9861  0.7856 -0.7252
 1119TIP3    H224849   1.404   1.778  14.573 -0.7126  0.3550  0.0991
 1120TIP3   OH224850   4.380   3.911  13.256 -0.0436 -0.3278 -0.2949
 1120TIP3    H124851   4.314   3.844  13.238 -0.0597 -0.6182  0.7989
 1120TIP3    H224852   4.341   3.992  13.222 -0.6946 -0.6035 -0.2126
 1121TIP3   OH224853   5.213   5.999   3.991 -0.3243 -0.4881 -0.5053
 1121TIP3    H124854   5.141   6.035   3.938 -0.1458 -0.7317 -0.9166
 1121TIP3    H224855   5.212   6.051   4.071 -0.3991  0.0993 -0.8798
 1122TIP3   OH224856   5.417   1.071  13.046 -0.4107 -0.5733 -0.2686
 1122TIP3    H124857   5.456   0.988  13.071 -1.7951 -0.5440  2.3935
 1122TIP3    H224858   5.335   1.047  13.001  0.9201 -0.5901 -2.8874
 1123TIP3   OH224859   4.758   2.016   2.887 -0.3656 -0.1518  0.1023
 1123TIP3    H124860   4.678   2.002   2.836 -1.0590  2.8784  0.1506
 1123TIP3    H224861   4.824   2.041   2.822 -0.7641  1.9306  0.4478
 1124TIP3   OH224862   1.630   3.840   6.301  0.3262  0.2194  0.0616
 1124TIP3    H124863   1.566   3.771   6.279 -0.1928  0.6882  0.0857
 1124TIP3    H224864   1.582   3.922   6.288  0.0527  0.5407  2.7021
 1125TIP3   OH224865   2.180   0.792  12.938  0.1469 -0.2983 -0.8690
 1125TIP3    H124866   2.178   0.802  13.033  1.6283  0.1412 -0.8643
 1125TIP3    H224867   2.183   0.882  12.905 -0.4197 -0.4475 -1.3493
 1126TIP3   OH224868   3.778   2.115  15.669  0.0911  0.7951  0.2602
 1126TIP3    H124869   3.768   2.039  15.725  0.1919  0.6853  0.1285
 1126TIP3    H224870   3.862   2.103  15.625  0.2490  1.1341  0.4678
 1127TIP3   OH224871   0.544   0.774   4.217 -0.4078 -0.0997 -0.1361
 1127TIP3    H124872   0.613   0.752   4.279  0.4308  1.6095 -0.4123
 1127TIP3    H224873   0.463   0.744   4.260  0.4447 -2.0774  0.2158
 1128TIP3   OH224874   6.584   5.978  12.154  0.2917 -0.2367 -0.1690
 1128TIP3    H124875   6.679   5.971  12.167  0.4566 -0.8263 -1.5206
 1128TIP3    H224876   6.568   6.072  12.143  0.4128  0.0834  1.9686
 1129TIP3   OH224877   0.409   6.214  17.030  0.1139  0.3156  0.0078
 1129TIP3    H124878   0.360   6.296  17.036  1.8392  1.4018  0.0646
 1129TIP3    H224879   0.500   6.240  17.045  0.5470 -1.8331  1.5705
 1130TIP3   OH224880   0.121   5.503  12.243  0.1593 -0.1888 -0.1958
 1130TIP3    H124881   0.156   5.593  12.242  0.9816 -0.5048 -0.6596
 1130TIP3    H224882   0.026   5.514  12.237  0.1481  0.6964  1.0780
 1131TIP3   OH224883   1.344   3.853  15.717 -0.0871  0.5101  0.4118
 1131TIP3    H124884   1.394   3.887  15.643 -0.4412  0.7653  0.2838
 1131TIP3    H224885   1.252   3.870  15.694 -0.3589 -1.3957 -0.0866
 1132TIP3   OH224886   5.256   5.222   1.502  0.3325 -0.6519  0.5755
 1132TIP3    H124887   5.329   5.212   1.564  0.9685 -0.9376 -0.2037
 1132TIP3    H224888   5.261   5.313   1.474 -0.1047 -0.4550  1.1094
 1133TIP3   OH224889   5.058   2.430  15.961 -0.6379 -0.0698 -0.4306
 1133TIP3    H124890   5.090   2.343  15.985  0.3363 -0.3593 -2.5187
 1133TIP3    H224891   4.963   2.423  15.965 -0.5869 -1.4310 -1.1527
 1134TIP3   OH224892   4.666   6.701   3.345  0.3772  0.5899 -0.5234
 1134TIP3    H124893   4.615   6.621   3.334  0.8563  0.2874 -0.5948
 1134TIP3    H224894   4.755   6.670   3.362  0.1532  1.0497  1.8435
 1135TIP3   OH224895   2.940   3.027   4.883 -0.1209 -0.2831  0.6137
 1135TIP3    H124896   2.907   2.937   4.878 -0.4850 -0.0855 -0.8604
 1135TIP3    H224897   2.960   3.039   4.976 -0.3590 -1.7773  0.8926
 1136TIP3   OH224898   1.387   5.277   2.665 -0.0500 -0.3268 -0.0210
 1136TIP3    H124899   1.466   5.293   2.614 -0.5191 -1.5945 -1.2248
 1136TIP3    H224900   1.359   5.363   2.695  1.5902  0.1703  0.1509
 1137TIP3   OH224901   0.212   6.174  11.674 -0.3187 -0.2814  0.3970
 1137TIP3    H124902   0.159   6.234  11.623  3.0530  2.6253 -0.0359
 1137TIP3    H224903   0.247   6.112  11.610  0.7831  0.9528 -0.2399
 1138TIP3   OH224904   0.619   6.230  16.534 -0.3215  0.8581 -0.4445
 1138TIP3    H124905   0.526   6.216  16.547 -0.3813  2.1515  0.7544
 1138TIP3    H224906   0.650   6.267  16.617  1.6008 -1.0567 -0.2063
 1139TIP3   OH224907   0.281   3.338  13.800  0.5116 -0.6958 -0.5557
 1139TIP3    H124908   0.273   3.379  13.886 -0.2864  1.6251 -1.6510
 1139TIP3    H224909   0.195   3.300  13.783  0.4507 -0.5230 -0.6316
 1140TIP3   OH224910   5.864   0.587  13.402  0.0658  0.0659  0.0104
 1140TIP3    H124911   5.861   0.639  13.321 -0.9218  1.6243  0.9890
 1140TIP3    H224912   5.823   0.504  13.379  2.0033 -0.5043 -1.7143
 1141TIP3   OH224913   2.213   3.858   1.719  0.7360 -0.1635 -0.5341
 1141TIP3    H124914   2.210   3.809   1.636  0.3232 -0.1472 -0.5288
 1141TIP3    H224915   2.244   3.795   1.783  0.7798 -0.2555 -0.6449
 1142TIP3   OH224916   0.944   4.817  14.120 -0.1921 -0.4721  0.3379
 1142TIP3    H124917   0.870   4.824  14.181  0.4241 -1.0392  1.1637
 1142TIP3    H224918   1.018   4.854  14.167  0.0430  0.1655 -0.5172
 1143TIP3   OH224919   6.372   4.003   1.108 -0.0254  0.2868 -0.1568
 1143TIP3    H124920   6.391   3.981   1.016 -0.3876 -0.1989 -0.1188
 1143TIP3    H224921   6.354   3.919   1.149 -1.5338  0.6484 -0.0226
 1144TIP3   OH224922   5.021   3.939   1.716 -0.5378 -0.4675  0.1785
 1144TIP3    H124923   4.998   4.018   1.764  0.4826 -0.9296  1.4872
 1144TIP3    H224924   5.046   3.969   1.629 -2.6811  0.3693 -0.2203
 1145TIP3   OH224925   2.948   4.340  12.570  0.1259 -0.1389  0.5368
 1145TIP3    H124926   3.025   4.330  12.626  0.3297  1.2460  0.5364
 1145TIP3    H224927   2.905   4.419  12.602 -1.0094 -0.5981  0.1898
 1146TIP3   OH224928   6.627   3.139   2.642 -0.2353  0.0935  0.3064
 1146TIP3    H124929   6.717   3.110   2.630  0.1989  0.9071  1.3618
 1146TIP3    H224930   6.627   3.180   2.729 -1.4266  0.8246 -0.0178
 1147TIP3   OH224931   4.933   3.254   2.231  0.0177  0.3802 -0.0360
 1147TIP3    H124932   4.963   3.274   2.143  0.6279  1.7378  0.4527
 1147TIP3    H224933   4.888   3.333   2.260 -0.6973 -0.2673  0.6546
 1148TIP3   OH224934   2.451   2.564  16.730  0.5338  0.1654 -0.1490
 1148TIP3    H124935   2.420   2.628  16.667 -0.9261  0.0151  0.3776
 1148TIP3    H224936   2.418   2.480  16.697 -0.8292  0.1595  1.1108
 1149TIP3   OH224937   6.750   1.963  13.274 -0.2896  0.4325 -0.2421
 1149TIP3    H124938   6.833   2.002  13.249 -0.6132  2.4834  1.6293
 1149TIP3    H224939   6.684   2.020  13.235 -0.7701  1.4325  1.8866
 1150TIP3   OH224940   2.493   2.324   1.875 -0.2237 -0.2603 -0.0675
 1150TIP3    H124941   2.477   2.349   1.966 -1.4959 -1.7758  0.1775
 1150TIP3    H224942   2.555   2.251   1.880  0.4441  0.2685 -0.4927
 1151TIP3   OH224943   1.135   5.745   1.828 -0.4177 -0.4351 -0.2209
 1151TIP3    H124944   1.106   5.690   1.755  0.4783 -0.1557 -0.8007
 1151TIP3    H224945   1.199   5.691   1.875 -1.6161 -0.9475  0.8983
 1152TIP3   OH224946   5.108   0.774  15.077 -0.1445 -0.5855  0.6535
 1152TIP3    H124947   5.044   0.718  15.122 -1.9135 -0.6248 -1.7041
 1152TIP3    H224948   5.141   0.720  15.005  1.0484  0.1394  0.6339
 1153TIP3   OH224949   1.710   3.569   5.560  0.7306 -0.3606  0.8404
 1153TIP3    H124950   1.622   3.539   5.581  0.1382  0.3648 -0.4842
 1153TIP3    H224951   1.701   3.663   5.545  2.2384  0.2665  3.2828
 1154TIP3   OH224952   5.702   1.733   5.105 -0.2398 -0.1862  0.2374
 1154TIP3    H124953   5.622   1.765   5.149  1.2540  1.4624  1.9545
 1154TIP3    H224954   5.696   1.769   5.017 -1.0642  0.5227  0.5594
 1155TIP3   OH224955   4.379   0.533  11.804 -0.0566  0.8390  0.7321
 1155TIP3    H124956   4.462   0.497  11.774 -1.0347 -0.1722 -0.9409
 1155TIP3    H224957   4.401   0.582  11.883  2.0804  0.4487  0.4394
 1156TIP3   OH224958   1.149   6.683  13.034 -0.0790  0.0741  0.3538
 1156TIP3    H124959   1.107   6.768  13.050  2.3997  1.2315  1.2830
 1156TIP3    H224960   1.195   6.695  12.951 -0.6756 -0.7984 -0.1135
 1157TIP3   OH224961   6.127   1.340   3.130  0.1549 -0.4072 -0.2508
 1157TIP3    H124962   6.162   1.254   3.155 -0.2993 -0.9119 -1.2673
 1157TIP3    H224963   6.173   1.402   3.185  2.0252 -1.1149 -0.9371
 1158TIP3   OH224964   4.347   1.588  11.509  0.0466 -0.3238  0.3919
 1158TIP3    H124965   4.416   1.635  11.461 -0.2579  0.2300  0.4937
 1158TIP3    H224966   4.391   1.511  11.545  0.9499  0.7219  1.6121
 1159TIP3   OH224967   6.458   2.556  15.718  0.4809  0.6310 -0.2054
 1159TIP3    H124968   6.414   2.486  15.670  0.7974  0.0665  0.3182
 1159TIP3    H224969   6.442   2.635  15.665 -1.1942  0.4614 -0.0296
 1160TIP3   OH224970   6.514   0.828   2.199 -0.0164 -0.1901  0.0660
 1160TIP3    H124971   6.498   0.899   2.260  0.5734  0.6651 -0.7385
 1160TIP3    H224972   6.524   0.871   2.114  0.3759 -1.2281 -0.4380
 1161TIP3   OH224973   3.853   6.274  11.914  0.4204 -0.8190 -0.1098
 1161TIP3    H124974   3.910   6.210  11.956  1.9713  0.4048 -0.2725
 1161TIP3    H224975   3.909   6.318  11.850 -0.0949  1.8240  1.1067
 1162TIP3   OH224976   3.896   0.007   1.177  0.0531 -0.5289  0.0791
 1162TIP3    H124977   3.875  -0.076   1.134  0.2786 -0.3139 -0.4516
 1162TIP3    H224978   3.977   0.036   1.135 -0.1195  0.0481  0.1363
 1163TIP3   OH224979   1.764   1.858  16.941 -0.3285 -0.2272  0.1601
 1163TIP3    H124980   1.737   1.820  17.025  1.5439  1.0455  1.4075
 1163TIP3    H224981   1.716   1.941  16.936  0.2891  0.1520  0.4516
 1164TIP3   OH224982   6.488   6.439  10.607  0.0321  0.0822 -0.3614
 1164TIP3    H124983   6.400   6.404  10.612  0.3583 -0.5618  1.3838
 1164TIP3    H224984   6.543   6.375  10.652  1.5959 -0.0933 -2.3857
 1165TIP3   OH224985   4.343   5.116   1.688  0.4663 -0.1761  0.6963
 1165TIP3    H124986   4.299   5.101   1.771  1.7042 -1.1074  1.2241
 1165TIP3    H224987   4.335   5.032   1.641  3.7335 -1.3070  1.8606
 1166TIP3   OH224988   0.525   0.470   2.817 -0.2989  0.0262 -0.0311
 1166TIP3    H124989   0.560   0.556   2.840  0.4102 -0.5096  0.9650
 1166TIP3    H224990   0.567   0.409   2.878  0.2765 -1.2324 -1.6014
 1167TIP3   OH224991   4.678   5.892  10.863  0.3197 -0.1578  0.2080
 1167TIP3    H124992   4.614   5.949  10.821 -0.5906 -0.0097  1.7453
 1167TIP3    H224993   4.747   5.951  10.892 -1.2758  0.4844  3.0601
 1168TIP3   OH224994   3.304   6.076  15.626  0.2714  0.1446  0.1446
 1168TIP3    H124995   3.309   6.017  15.701  2.8914 -0.9930 -0.7846
 1168TIP3    H224996   3.306   6.164  15.664 -0.5256 -0.3716  1.4459
 1169TIP3   OH224997   5.410   2.675   3.551  0.0980 -0.0989  0.4258
 1169TIP3    H124998   5.411   2.591   3.505  1.7926 -1.0568  2.1014
 1169TIP3    H224999   5.442   2.738   3.486  0.8977 -1.1421 -0.2265
 1170TIP3   OH225000   4.853   6.223   5.000  0.4908 -0.5264 -0.3464
 1170TIP3    H125001   4.772   6.183   5.028  1.2169 -0.7455  1.6002
 1170TIP3    H225002   4.862   6.198   4.908 -1.9732  0.1275 -0.8394
 1171TIP3   OH225003   5.338   0.911  16.753  0.6314  0.1704 -0.4293
 1171TIP3    H125004   5.304   0.927  16.841  0.2636  0.7199 -0.6661
 1171TIP3    H225005   5.269   0.860  16.710  1.2214 -0.9326 -0.1054
 1172TIP3   OH225006   4.223   6.561  12.191 -0.3853 -0.4036  0.0694
 1172TIP3    H125007   4.217   6.466  12.197  0.9637 -0.5779 -0.8281
 1172TIP3    H225008   4.176   6.583  12.110  1.2870 -0.5971 -1.0082
 1173TIP3   OH225009   1.018   6.692   1.496  0.2538 -0.0148  0.7510
 1173TIP3    H125010   0.981   6.715   1.581  0.6230 -0.8354  1.1443
 1173TIP3    H225011   1.074   6.616   1.514  1.3864  0.6092  0.0180
 1174TIP3   OH225012   1.949   2.672   4.148 -0.2692  0.1158 -0.5518
 1174TIP3    H125013   1.938   2.584   4.185 -1.3410  0.2680 -0.4835
 1174TIP3    H225014   1.923   2.731   4.219 -4.4527  0.4002 -2.0303
 1175TIP3   OH225015   1.269   1.225  13.320 -0.2582  0.2062  0.2773
 1175TIP3    H125016   1.284   1.300  13.263 -0.1278 -0.9545 -1.2764
 1175TIP3    H225017   1.355   1.186  13.332 -0.4660 -0.2803  0.2119
 1176TIP3   OH225018   5.600   2.813   7.013  0.5473  0.4432 -0.4247
 1176TIP3    H125019   5.651   2.868   6.954  1.2551 -0.7755 -0.9955
 1176TIP3    H225020   5.518   2.796   6.965 -0.1704  1.8934  0.2331
 1177TIP3   OH225021   3.310   5.154  14.587  0.7799  0.6975 -0.4023
 1177TIP3    H125022   3.327   5.241  14.622  0.2178  1.2836 -1.5348
 1177TIP3    H225023   3.279   5.104  14.663  0.8947  1.5417  0.2189
 1178TIP3   OH225024   3.502   1.846   4.493 -0.2293 -0.2118  0.3067
 1178TIP3    H125025   3.458   1.923   4.457  1.0908 -0.5271 -2.2456
 1178TIP3    H225026   3.446   1.772   4.468 -0.4582 -0.2571  0.9423
 1179TIP3   OH225027   2.909   1.403  13.655  0.4323  0.3542 -0.7669
 1179TIP3    H125028   2.827   1.451  13.662  1.0133  1.2069  0.6959
 1179TIP3    H225029   2.920   1.386  13.561 -0.8869  1.1317 -1.0765
 1180TIP3   OH225030   5.853   5.750  13.960  0.1067  0.3964  0.0997
 1180TIP3    H125031   5.785   5.694  13.997 -0.2281  0.3275 -0.6127
 1180TIP3    H225032   5.893   5.697  13.891  0.6110  0.5924  0.2309
 1181TIP3   OH225033   3.243   6.741   4.312 -0.7196 -0.3410  0.3704
 1181TIP3    H125034   3.278   6.830   4.312  0.9917 -0.9662 -0.4473
 1181TIP3    H225035   3.187   6.737   4.389 -2.5870  2.0851 -0.7389
 1182TIP3   OH225036   1.090   0.300  12.644  1.1112  0.4902  0.7803
 1182TIP3    H125037   1.171   0.256  12.670  0.2161 -1.1971  0.8686
 1182TIP3    H225038   1.069   0.262  12.558  1.0367  1.8138  0.1888
 1183TIP3   OH225039   6.725   5.535   2.257 -0.1302 -0.3143 -0.3024
 1183TIP3    H125040   6.804   5.588   2.243 -0.0055 -0.6653 -0.9828
 1183TIP3    H225041   6.757   5.446   2.268 -0.4743 -0.6137 -1.5545
 1184TIP3   OH225042   6.473   1.015  15.049  0.2505  0.2968 -0.1204
 1184TIP3    H125043   6.528   1.012  15.128 -0.7899 -0.3295  0.6137
 1184TIP3    H225044   6.391   1.053  15.079 -0.1638  0.0438 -0.9087
 1185TIP3   OH225045   6.374   0.322   4.900 -0.8683  0.4962  0.2777
 1185TIP3    H125046   6.298   0.293   4.849 -0.1287 -0.6702 -0.1893
 1185TIP3    H225047   6.353   0.296   4.990  0.4110 -3.0515 -0.3152
 1186TIP3   OH225048   2.754   5.246  13.467  1.0676 -0.3213 -0.3528
 1186TIP3    H125049   2.687   5.309  13.495 -0.6072 -2.3764  0.5625
 1186TIP3    H225050   2.716   5.161  13.487  2.0686 -1.8221 -3.9626
 1187TIP3   OH225051   0.907   5.846   1.594 -0.1009  0.0990  0.1274
 1187TIP3    H125052   0.846   5.787   1.639  2.1432 -2.0879  0.5079
 1187TIP3    H225053   0.868   5.861   1.508 -0.8022 -1.9269  0.0476
 1188TIP3   OH225054   3.270   1.353  16.826 -0.9577  0.4844  0.3568
 1188TIP3    H125055   3.194   1.411  16.833 -0.6473  0.7551  1.8117
 1188TIP3    H225056   3.321   1.389  16.754 -2.7972 -0.4530 -1.5388
 1189TIP3   OH225057   5.056   4.293  15.826 -0.4820 -0.3784 -0.4815
 1189TIP3    H125058   5.073   4.314  15.918 -1.1749 -0.9825 -0.2027
 1189TIP3    H225059   4.963   4.315  15.813 -0.3093  0.0044 -1.1280
 1190TIP3   OH225060   4.614   1.254   1.432 -0.6606 -0.2297  0.5547
 1190TIP3    H125061   4.575   1.168   1.449 -0.4817 -0.1602  1.3610
 1190TIP3    H225062   4.571   1.284   1.352 -1.6254 -0.5385  0.9376
 1191TIP3   OH225063   4.602   1.472  13.796 -0.1738 -0.4117 -1.0073
 1191TIP3    H125064   4.663   1.545  13.805 -1.0119  0.2127 -0.2522
 1191TIP3    H225065   4.565   1.459  13.884 -4.1570  1.9321 -2.0897
 1192TIP3   OH225066   1.968   5.513   6.138 -0.5386 -0.0713 -0.7232
 1192TIP3    H125067   1.983   5.480   6.226 -2.6459 -0.2482 -0.3629
 1192TIP3    H225068   2.019   5.455   6.081 -1.1990 -1.6356  0.2049
 1193TIP3   OH225069   0.621   1.473  14.395  0.5054  0.2543 -0.8341
 1193TIP3    H125070   0.601   1.486  14.302 -0.6875 -0.2194 -0.6638
 1193TIP3    H225071   0.557   1.527  14.441  0.9185  0.2780 -0.2753
 1194TIP3   OH225072   6.546   4.196  11.932 -0.2343 -0.1820  0.6432
 1194TIP3    H125073   6.544   4.252  12.009  0.6798  0.1967  0.4132
 1194TIP3    H225074   6.637   4.167  11.926 -0.8233 -2.2627  1.1370
 1195TIP3   OH225075   6.359   5.483  14.040 -0.5436  0.6981 -0.4715
 1195TIP3    H125076   6.325   5.412  13.985  0.3960  0.1279 -0.3254
 1195TIP3    H225077   6.450   5.460  14.057 -0.4668  1.5057  0.2995
 1196TIP3   OH225078   1.062   2.720  16.757  0.4374 -0.4318 -0.0683
 1196TIP3    H125079   0.971   2.749  16.767  0.7355  1.4175 -1.9242
 1196TIP3    H225080   1.056   2.625  16.754 -1.8723 -0.3521 -3.0173
 1197TIP3   OH225081   2.290   1.942  15.814 -0.6181 -1.0403  0.2254
 1197TIP3    H125082   2.288   1.856  15.858 -0.7654 -0.7271  0.8434
 1197TIP3    H225083   2.243   1.928  15.733 -0.3676 -1.6303  0.1699
 1198TIP3   OH225084   6.564   0.706  12.702  0.3388 -0.2283  0.3254
 1198TIP3    H125085   6.611   0.763  12.642 -0.1961  1.9946  1.8741
 1198TIP3    H225086   6.624   0.692  12.775 -0.1003 -0.3050  0.6829
 1199TIP3   OH225087   1.448   3.048   3.579  0.1677 -0.2611 -0.3158
 1199TIP3    H125088   1.510   2.989   3.622  0.8876  0.5893 -0.1636
 1199TIP3    H225089   1.382   3.066   3.646 -0.2748 -1.1779 -0.4815
 1200TIP3   OH225090   6.288   2.787   3.792  0.1203 -0.1412 -0.2521
 1200TIP3    H125091   6.300   2.859   3.855  0.8661 -0.2098 -0.3021
 1200TIP3    H225092   6.226   2.822   3.728 -1.7385 -0.5466  1.2292
 1201TIP3   OH225093   4.045   5.242   5.848  0.0364 -0.4138 -0.1504
 1201TIP3    H125094   4.025   5.290   5.928  0.3229 -2.6159  1.3258
 1201TIP3    H225095   3.960   5.209   5.818  0.1775 -1.6804  0.7213
 1202TIP3   OH225096   3.069   6.120   3.547  0.1465 -0.3464 -0.0080
 1202TIP3    H125097   2.977   6.115   3.573 -0.1789 -1.7752 -1.3267
 1202TIP3    H225098   3.077   6.206   3.504 -0.6103 -0.2960 -0.0581
 1203TIP3   OH225099   4.332   2.783  12.690  0.2846 -0.0405 -0.3823
 1203TIP3    H125100   4.413   2.834  12.690  1.0596 -1.1164  1.8001
 1203TIP3    H225101   4.333   2.735  12.608  2.0688 -0.2959 -0.2394
 1204TIP3   OH225102   4.759   2.304  13.062  0.2033  0.2042 -0.8027
 1204TIP3    H125103   4.737   2.398  13.058 -0.0169  0.1205 -2.7093
 1204TIP3    H225104   4.849   2.302  13.095  0.1035  1.0685 -0.4372
 1205TIP3   OH225105   0.623   6.261  14.833 -0.7476 -0.1414  0.3585
 1205TIP3    H125106   0.551   6.298  14.884 -1.2451 -0.8148  0.1730
 1205TIP3    H225107   0.659   6.192  14.889  0.5243  0.9365  0.9276
 1206TIP3   OH225108   1.296   5.070   5.610  0.5940  0.2232  0.1927
 1206TIP3    H125109   1.235   5.038   5.677  0.3711 -0.5628 -0.3676
 1206TIP3    H225110   1.240   5.112   5.545  0.4191 -2.0303 -1.2041
 1207TIP3   OH225111   4.435   4.840   0.729 -0.5818 -0.4874 -0.9606
 1207TIP3    H125112   4.495   4.774   0.763  1.5649  1.1536 -1.3851
 1207TIP3    H225113   4.434   4.908   0.796  0.1607  0.7187 -2.1251
 1208TIP3   OH225114   3.582   3.701  14.856 -0.4377  0.4834  0.0551
 1208TIP3    H125115   3.538   3.624  14.820 -1.6989  0.6131  1.2564
 1208TIP3    H225116   3.512   3.754  14.894  0.7127  0.7520  1.9338
 1209TIP3   OH225117   6.741   3.078   5.896 -0.4329 -0.0025  0.3052
 1209TIP3    H125118   6.674   3.078   5.964 -0.6828  1.6420  0.0981
 1209TIP3    H225119   6.822   3.098   5.942 -0.5901  1.0373  0.1476
 1210TIP3   OH225120   5.287   4.083  12.821  0.0398  0.6274 -0.6163
 1210TIP3    H125121   5.310   4.163  12.773 -1.8022 -0.0688 -2.8406
 1210TIP3    H225122   5.274   4.017  12.753  2.6704 -1.9842  1.1980
 1211TIP3   OH225123   6.751   2.982   2.904 -0.0552 -0.0784 -0.4457
 1211TIP3    H125124   6.790   3.067   2.923  0.1399 -0.4110  0.7065
 1211TIP3    H225125   6.824   2.928   2.873 -0.0837  0.0258 -0.6955
 1212TIP3   OH225126   5.454   4.444  16.385 -0.0979  0.1299  0.1934
 1212TIP3    H125127   5.361   4.448  16.362 -0.2568 -4.5716 -1.0296
 1212TIP3    H225128   5.456   4.433  16.480 -0.9506 -1.2719  0.0676
 1213TIP3   OH225129   0.769   2.591  11.649  0.1715  0.1032 -0.6833
 1213TIP3    H125130   0.721   2.604  11.731 -1.4507 -0.5758 -1.4969
 1213TIP3    H225131   0.778   2.679  11.612 -0.3997  0.2463 -0.4918
 1214TIP3   OH225132   2.017   2.863   1.851 -0.3346 -0.5176 -0.1220
 1214TIP3    H125133   2.008   2.817   1.767 -0.0736 -1.7324  0.4824
 1214TIP3    H225134   1.943   2.832   1.903 -0.1087 -0.3130  0.3277
 1215TIP3   OH225135   4.239   6.545  13.690  0.1928 -0.9295 -0.0604
 1215TIP3    H125136   4.277   6.507  13.611  2.4021 -2.8509  1.7710
 1215TIP3    H225137   4.179   6.478  13.722 -0.9711 -0.0082 -0.2486
 1216TIP3   OH225138   2.000   4.081  16.735  0.1535 -0.0823 -0.8478
 1216TIP3    H125139   1.995   4.126  16.819  0.5867  0.8914 -1.3316
 1216TIP3    H225140   2.067   4.128  16.686 -0.4548 -0.3126 -1.9302
 1217TIP3   OH225141   1.207   4.043   3.982 -0.1417 -0.6937 -0.1014
 1217TIP3    H125142   1.121   4.066   4.018  1.0799 -1.2302  3.6225
 1217TIP3    H225143   1.206   3.947   3.977  0.4399 -0.7633  0.7468
 1218TIP3   OH225144   1.952   0.590  12.466 -0.3286  0.3656 -0.0915
 1218TIP3    H125145   1.862   0.606  12.437  0.1177  1.2194 -1.0504
 1218TIP3    H225146   1.945   0.515  12.526 -1.6199  0.1850 -0.4458
 1219TIP3   OH225147   4.705   0.328  14.128  0.1906 -0.0257 -0.2513
 1219TIP3    H125148   4.711   0.256  14.064 -1.7360 -1.7111  1.3129
 1219TIP3    H225149   4.757   0.398  14.090  1.9134 -2.1276 -2.0326
 1220TIP3   OH225150   3.102   2.516  12.604  0.2234 -0.5687  0.3568
 1220TIP3    H125151   3.176   2.573  12.623  0.0003 -0.1709  0.0591
 1220TIP3    H225152   3.071   2.487  12.690  1.9982 -2.4185  0.4389
 1221TIP3   OH225153   5.938   2.184  13.454  0.6400  0.1677  0.3372
 1221TIP3    H125154   5.977   2.265  13.422 -0.9578  1.6301  1.8767
 1221TIP3    H225155   5.857   2.175  13.404  1.0006 -0.6945 -0.0980
 1222TIP3   OH225156   2.942   3.075   3.968  0.2459  0.0378 -0.2899
 1222TIP3    H125157   3.011   3.041   3.911  0.2829  0.6536 -0.6293
 1222TIP3    H225158   2.987   3.101   4.048  0.4022  0.3512 -0.4755
 1223TIP3   OH225159   6.620   1.821   1.528  0.3917  0.4470  0.1553
 1223TIP3    H125160   6.593   1.833   1.618  0.4204 -0.3952  0.2871
 1223TIP3    H225161   6.711   1.853   1.526  0.5121  0.1370  0.5120
 1224TIP3   OH225162   2.792   0.860   0.339  0.0053 -0.0075 -0.5408
 1224TIP3    H125163   2.862   0.892   0.282  0.2540 -0.0883 -0.2841
 1224TIP3    H225164   2.712   0.874   0.289  0.2869 -0.8452 -1.2551
 1225TIP3   OH225165   1.896   4.781  11.114  0.0092 -0.1760  0.3018
 1225TIP3    H125166   1.960   4.848  11.136  1.6274 -1.7621  0.6518
 1225TIP3    H225167   1.935   4.734  11.040 -1.4453 -0.2879 -0.4470
 1226TIP3   OH225168   2.986   5.870   0.579  0.7729  0.0268  0.2404
 1226TIP3    H125169   2.973   5.964   0.576  1.1495  0.0897  0.5688
 1226TIP3    H225170   2.949   5.843   0.663  0.0979 -0.2073 -0.1284
 1227TIP3   OH225171   5.523   5.594  15.710 -0.0405  0.7380  0.0601
 1227TIP3    H125172   5.523   5.635  15.623 -0.7564 -0.0006 -0.3128
 1227TIP3    H225173   5.530   5.500  15.691  1.7799  0.6733  0.8962
 1228TIP3   OH225174   3.896   3.665   3.639  0.0015 -0.4769  1.0725
 1228TIP3    H125175   3.800   3.666   3.647 -0.0091  1.1894  0.9631
 1228TIP3    H225176   3.927   3.723   3.707  1.1797 -3.1364  2.9946
 1229TIP3   OH225177   6.101   2.512  16.707  0.1704 -0.1973 -0.2213
 1229TIP3    H125178   6.145   2.428  16.690 -0.2932 -0.6475  0.7391
 1229TIP3    H225179   6.011   2.499  16.678  0.5852  0.6801 -2.0507
 1230TIP3   OH225180   0.135   0.910  15.331 -0.1065  0.5209 -0.1067
 1230TIP3    H125181   0.198   0.919  15.403  0.2577  1.9316 -0.5597
 1230TIP3    H225182   0.079   0.837  15.357  1.3539 -0.4025  0.5846
 1231TIP3   OH225183   3.586   4.228   5.465 -0.0510  0.9080  0.8524
 1231TIP3    H125184   3.536   4.211   5.386  0.9974  1.1614  0.1133
 1231TIP3    H225185   3.646   4.298   5.441  1.7123 -0.3965  1.2097
 1232TIP3   OH225186   1.724   1.490  14.830  0.2723 -0.4384 -0.1202
 1232TIP3    H125187   1.770   1.436  14.767 -0.0922 -1.7444  0.6892
 1232TIP3    H225188   1.729   1.579  14.795  0.7763 -1.0123 -1.5446
 1233TIP3   OH225189   2.551   3.574   5.799 -0.2132 -0.2037  0.6419
 1233TIP3    H125190   2.466   3.594   5.839  0.8191  0.4944  2.6609
 1233TIP3    H225191   2.611   3.569   5.874  0.9568 -4.0420 -0.3444
 1234TIP3   OH225192   1.360   2.592  13.630  0.0512  0.1744  0.4448
 1234TIP3    H125193   1.322   2.561  13.712 -1.1299 -1.0660 -0.5280
 1234TIP3    H225194   1.347   2.687  13.633  0.1122  0.1655  1.7148
 1235TIP3   OH225195   0.720   0.280   2.387 -0.1274  0.2450  0.3773
 1235TIP3    H125196   0.805   0.295   2.428  0.0010 -0.7931  0.5395
 1235TIP3    H225197   0.666   0.243   2.457 -0.4831  0.1954  0.0832
 1236TIP3   OH225198   3.305   4.793   5.754 -0.0451 -0.1003  0.5960
 1236TIP3    H125199   3.375   4.742   5.715 -0.8492 -1.9659  1.4235
 1236TIP3    H225200   3.289   4.751   5.839 -0.8847  1.4471  1.2619
 1237TIP3   OH225201   5.762   4.627  13.781  0.1677  0.2574 -0.0419
 1237TIP3    H125202   5.744   4.535  13.765 -1.2419  0.5630 -0.3690
 1237TIP3    H225203   5.746   4.670  13.696  1.9276  0.6744 -0.2043
 1238TIP3   OH225204   0.190   1.860   4.089  0.5399 -0.7095 -0.3835
 1238TIP3    H125205   0.179   1.896   4.176 -0.8212 -2.0995  0.0507
 1238TIP3    H225206   0.112   1.887   4.041  1.9275  1.2709 -1.6726
 1239TIP3   OH225207   5.781   5.732  12.676 -0.0052 -0.4473 -0.0167
 1239TIP3    H125208   5.870   5.768  12.671 -0.1205 -0.0428  0.7028
 1239TIP3    H225209   5.794   5.637  12.683  0.4652 -0.2946  1.7812
 1240TIP3   OH225210   5.793   2.410  16.288 -0.1871  0.3845 -0.1279
 1240TIP3    H125211   5.792   2.315  16.288  2.3171  0.2892  0.0390
 1240TIP3    H225212   5.701   2.435  16.284 -0.9178 -2.0205  0.0784
 1241TIP3   OH225213   2.273   1.447   2.068  0.1244 -0.2438 -0.0903
 1241TIP3    H125214   2.301   1.496   2.145 -0.1122  2.2223 -1.4762
 1241TIP3    H225215   2.181   1.471   2.057  0.3458  0.0208 -1.5403
 1242TIP3   OH225216   3.900   6.700  11.092  0.1377  0.1443 -0.0049
 1242TIP3    H125217   3.844   6.629  11.062 -1.1282  0.6393  1.1016
 1242TIP3    H225218   3.982   6.656  11.116 -0.2267 -0.7801 -0.3884
 1243TIP3   OH225219   3.612   1.451   1.965  0.3213  0.1413 -0.0849
 1243TIP3    H125220   3.643   1.504   1.891 -1.4470  2.1696  0.5272
 1243TIP3    H225221   3.649   1.494   2.042  0.1122 -0.4564  0.3550
 1244TIP3   OH225222   2.217   5.691   4.001  0.5753  0.4932  0.3038
 1244TIP3    H125223   2.189   5.727   4.085  2.4674  0.9690  0.7826
 1244TIP3    H225224   2.294   5.638   4.021  0.3819 -0.3302 -0.9869
 1245TIP3   OH225225   1.619   0.262  14.003  0.2087  0.0506  0.3686
 1245TIP3    H125226   1.682   0.289  14.070  1.8404 -3.0951  0.2533
 1245TIP3    H225227   1.534   0.268  14.047  1.0312  0.0894  2.0368
 1246TIP3   OH225228   3.858   5.476   0.803 -0.0403  0.0898  0.3995
 1246TIP3    H125229   3.763   5.480   0.810 -0.0558  0.5463 -0.0203
 1246TIP3    H225230   3.879   5.383   0.808 -0.6938 -0.2229 -1.7034
 1247TIP3   OH225231   0.647   0.088   1.716  0.6548  1.2792 -0.1907
 1247TIP3    H125232   0.651   0.121   1.626  0.7038 -0.9609 -1.0655
 1247TIP3    H225233   0.737   0.063   1.737  0.3914  0.3055 -0.1487
 1248TIP3   OH225234   0.321   4.915  15.950  0.2813 -0.7023  0.2429
 1248TIP3    H125235   0.229   4.912  15.977 -0.1197  0.1548 -0.9799
 1248TIP3    H225236   0.365   4.856  16.011 -1.0203 -0.8691  1.0610
 1249TIP3   OH225237   4.253   4.420  12.996 -0.3145  0.2481 -0.3028
 1249TIP3    H125238   4.176   4.375  13.031 -0.7539  0.5350 -0.8951
 1249TIP3    H225239   4.287   4.362  12.929  2.5279 -1.9594  2.7396
 1250TIP3   OH225240   0.575   0.741  13.841 -0.6346  0.1980  0.8519
 1250TIP3    H125241   0.485   0.708  13.845 -0.3257 -0.8158 -0.1266
 1250TIP3    H225242   0.605   0.719  13.753  0.0938  1.8306  0.6575
 1251TIP3   OH225243   2.262   6.323   4.260 -0.3824  0.3911  0.0141
 1251TIP3    H125244   2.169   6.331   4.237 -0.2806  0.9572 -0.2200
 1251TIP3    H225245   2.278   6.394   4.321 -0.7574 -1.3720  2.2780
 1252TIP3   OH225246   2.966   4.125   3.385 -0.2051 -0.4191 -0.9216
 1252TIP3    H125247   2.953   4.214   3.354 -0.8833 -0.3514 -0.4616
 1252TIP3    H225248   2.975   4.133   3.480 -0.8538 -0.8889 -0.8122
 1253TIP3   OH225249   0.792   3.019  17.055  0.2042  0.2368 -0.0143
 1253TIP3    H125250   0.850   3.036  17.129  0.5504  0.4938 -0.3416
 1253TIP3    H225251   0.705   3.044  17.087 -0.3298 -3.2085  1.6052
 1254TIP3   OH225252   5.207   6.387  12.521  0.0397 -0.2275 -0.1231
 1254TIP3    H125253   5.194   6.429  12.436 -0.4851 -1.2250 -0.5440
 1254TIP3    H225254   5.273   6.441  12.564  1.1042 -0.3116 -1.5836
 1255TIP3   OH225255   5.830   4.491  12.859  0.1622  0.8496  0.3022
 1255TIP3    H125256   5.799   4.478  12.949  0.5417  0.1854  0.3441
 1255TIP3    H225257   5.751   4.504  12.808 -0.4929 -3.2595 -0.0274
 1256TIP3   OH225258   0.168   2.147   2.941 -1.3381  0.1179 -0.3035
 1256TIP3    H125259   0.251   2.159   2.894 -0.0068  2.7385  2.3691
 1256TIP3    H225260   0.106   2.203   2.895 -0.3758  1.6660  0.1836
 1257TIP3   OH225261   5.168   6.285  16.356  0.0070 -0.2607 -0.2202
 1257TIP3    H125262   5.199   6.277  16.266 -1.4790 -1.0544 -0.6896
 1257TIP3    H225263   5.143   6.197  16.381  0.4837 -0.0598  1.0194
 1258TIP3   OH225264   1.323   6.812   1.928  0.6418 -0.0956  0.1722
 1258TIP3    H125265   1.308   6.817   1.833  0.0782  2.0362  0.3317
 1258TIP3    H225266   1.278   6.732   1.955 -0.1332 -0.1462 -1.1902
 1259TIP3   OH225267   3.890   6.675  16.331  0.3803 -0.5310  0.0325
 1259TIP3    H125268   3.897   6.650  16.423  0.0279  0.0651  0.2296
 1259TIP3    H225269   3.847   6.761  16.333  2.7987  0.7911 -0.5230
 1260TIP3   OH225270   6.195   5.413   5.238 -0.6780 -0.2830 -0.4665
 1260TIP3    H125271   6.245   5.364   5.174 -0.6605  0.0865 -0.7368
 1260TIP3    H225272   6.260   5.444   5.301 -0.5684  0.1572 -0.7920
 1261TIP3   OH225273   1.779   6.622   0.615 -0.2567  0.1544  0.3156
 1261TIP3    H125274   1.685   6.643   0.611 -0.3180 -0.3533 -1.4303
 1261TIP3    H225275   1.820   6.689   0.560  0.2511 -0.4126 -0.0005
 1262TIP3   OH225276   3.248   0.720  11.498 -0.5137 -0.1783  0.5753
 1262TIP3    H125277   3.251   0.626  11.477 -0.8186 -0.3480  1.2849
 1262TIP3    H225278   3.225   0.761  11.414 -0.4979 -0.7447  0.2818
 1263TIP3   OH225279   5.317   2.338  13.362 -0.1764 -0.0767 -0.4014
 1263TIP3    H125280   5.249   2.402  13.345 -0.2058  0.1326  0.4503
 1263TIP3    H225281   5.356   2.320  13.276 -2.1844 -1.2231 -1.1267
 1264TIP3   OH225282   5.647   5.343  13.189  0.5215  0.3512 -0.5613
 1264TIP3    H125283   5.583   5.352  13.259  0.1044 -1.2094 -0.7092
 1264TIP3    H225284   5.728   5.380  13.225  0.2494 -0.1977  0.6594
 1265TIP3   OH225285   0.073   2.281  14.189  0.7162  0.4483  0.0110
 1265TIP3    H125286   0.135   2.341  14.231  1.9016 -1.4441  1.1228
 1265TIP3    H225287  -0.012   2.324  14.196  0.8822  0.4770  4.0773
 1266TIP3   OH225288   4.364   1.153   0.552 -0.2281 -0.4879 -0.2825
 1266TIP3    H125289   4.414   1.234   0.559 -0.0223 -0.5601 -0.8386
 1266TIP3    H225290   4.355   1.122   0.642  0.9178 -0.5992 -0.1921
 1267TIP3   OH225291   2.806   1.431  16.507 -0.7596  0.1472  0.0343
 1267TIP3    H125292   2.776   1.406  16.419  1.0205  1.1452 -0.9032
 1267TIP3    H225293   2.897   1.455  16.496 -1.0020  2.1855  1.8057
 1268TIP3   OH225294   3.300   0.400   3.912 -0.5792 -0.4029 -0.2220
 1268TIP3    H125295   3.385   0.398   3.956 -1.4497 -0.0155  1.5576
 1268TIP3    H225296   3.295   0.488   3.874 -0.6840  0.0484  0.7838
 1269TIP3   OH225297   3.725   4.506   0.203  0.3758  0.1475 -0.2636
 1269TIP3    H125298   3.660   4.447   0.242 -0.5798 -0.1544 -2.1841
 1269TIP3    H225299   3.767   4.549   0.278 -0.3908 -1.3976  1.1036
 1270TIP3   OH225300   0.538   0.533   5.187 -0.6348  0.2970 -0.1815
 1270TIP3    H125301   0.470   0.483   5.233 -1.7932  1.1474 -0.9207
 1270TIP3    H225302   0.496   0.564   5.107  0.7844  0.4358 -0.9225
 1271TIP3   OH225303   1.496   6.245  13.097 -0.1069 -0.4096 -0.1659
 1271TIP3    H125304   1.413   6.263  13.142  0.7622  0.1939  1.2678
 1271TIP3    H225305   1.537   6.175  13.148  0.8637  0.2288 -0.0410
 1272TIP3   OH225306   5.718   1.824   2.362  1.1950  0.0479 -0.1129
 1272TIP3    H125307   5.710   1.772   2.442  2.4947  0.7320  0.4983
 1272TIP3    H225308   5.775   1.773   2.305 -0.2887 -0.7677 -0.9226
 1273TIP3   OH225309   4.755   3.598   3.789  0.5443  0.0025 -0.3580
 1273TIP3    H125310   4.708   3.635   3.715 -0.4725  2.5445  1.3891
 1273TIP3    H225311   4.719   3.510   3.800 -1.8473  0.8706 -0.7746
 1274TIP3   OH225312   3.487   6.204   2.998  0.4858  0.4778  0.6771
 1274TIP3    H125313   3.572   6.239   2.970  0.3574  0.8948  0.8018
 1274TIP3    H225314   3.509   6.140   3.065  0.6638  1.1854  1.3158
 1275TIP3   OH225315   3.452   0.819   4.604  0.3481  0.5923  0.1315
 1275TIP3    H125316   3.502   0.886   4.650  1.0550 -1.1777  2.0924
 1275TIP3    H225317   3.373   0.807   4.658  1.0442 -1.2999  0.8191
 1276TIP3   OH225318   6.083   0.075   5.678  0.0209 -0.2888 -0.3650
 1276TIP3    H125319   6.167   0.060   5.635 -0.0724  0.8159 -0.9771
 1276TIP3    H225320   6.092   0.035   5.764  1.2883  0.1067 -0.2964
 1277TIP3   OH225321   1.117   1.766  10.390 -0.2292 -0.0275  0.2310
 1277TIP3    H125322   1.084   1.806  10.470  0.1367 -0.3966  0.5754
 1277TIP3    H225323   1.212   1.766  10.401 -0.2284 -2.9070  1.2519
 1278TIP3   OH225324   0.634   0.201  11.441 -0.1322 -0.6952  0.0047
 1278TIP3    H125325   0.539   0.194  11.428 -0.2782 -1.2910  1.1538
 1278TIP3    H225326   0.672   0.155  11.367 -0.8358 -2.6442  0.7688
 1279TIP3   OH225327   6.312   0.753  15.825 -0.1788 -0.2140  0.3607
 1279TIP3    H125328   6.303   0.666  15.786 -0.6041 -0.8625  1.8129
 1279TIP3    H225329   6.401   0.781  15.803 -0.5641 -0.2970 -1.4696
 1280TIP3   OH225330   6.599   1.913   5.553  0.0257 -0.3749  0.3695
 1280TIP3    H125331   6.540   1.868   5.614 -1.1682 -0.6802 -0.9490
 1280TIP3    H225332   6.623   1.845   5.490 -0.0066  0.2997 -0.3742
 1281TIP3   OH225333   1.778   2.111  11.792  0.1119 -0.6007  0.2965
 1281TIP3    H125334   1.715   2.183  11.801  0.7271 -0.0346  0.1415
 1281TIP3    H225335   1.792   2.104  11.698  2.3857  1.1548  0.4357
 1282TIP3   OH225336   0.176   1.229   4.398  0.2954 -0.2466  0.5746
 1282TIP3    H125337   0.260   1.226   4.351  0.0078 -1.1781  0.1015
 1282TIP3    H225338   0.111   1.200   4.334 -0.1249 -1.4552  1.5020
 1283TIP3   OH225339   6.820   5.399  11.752  0.5642  0.1100  0.1344
 1283TIP3    H125340   6.865   5.330  11.704 -1.4379 -1.7116  0.7304
 1283TIP3    H225341   6.852   5.390  11.842 -0.7782 -1.0805  0.5249
 1284TIP3   OH225342   4.598   4.152  11.318  0.7773  0.4908  0.1064
 1284TIP3    H125343   4.602   4.216  11.389  1.3339 -0.5933  1.1066
 1284TIP3    H225344   4.676   4.097  11.332  1.4174  0.8033 -1.9111
 1285TIP3   OH225345   5.862   4.465   1.902  0.3170 -0.6749 -0.1377
 1285TIP3    H125346   5.832   4.463   1.811 -2.8802 -0.2179  0.7764
 1285TIP3    H225347   5.788   4.430   1.952  1.6648 -0.1601  2.3570
 1286TIP3   OH225348   1.694   1.229   2.454 -0.1976 -0.1162 -0.2079
 1286TIP3    H125349   1.763   1.251   2.392  0.7034 -0.6459  0.5785
 1286TIP3    H225350   1.622   1.288   2.432 -0.9463 -2.0009 -3.4537
 1287TIP3   OH225351   6.152   4.933   2.639 -0.0164  0.2967  0.0112
 1287TIP3    H125352   6.225   4.876   2.616 -0.9183 -0.3150 -1.5730
 1287TIP3    H225353   6.142   4.990   2.562 -1.2334  0.3142  0.1694
 1288TIP3   OH225354   2.991   5.379   5.477  0.2349 -0.4732 -0.0188
 1288TIP3    H125355   2.956   5.304   5.428  0.3103 -1.1140  0.8663
 1288TIP3    H225356   3.074   5.347   5.513 -0.8506 -0.8634  2.3871
 1289TIP3   OH225357   4.520   4.425  13.158  0.6209  0.2320  0.1023
 1289TIP3    H125358   4.565   4.350  13.118 -1.1021 -1.2051  0.7756
 1289TIP3    H225359   4.437   4.432  13.110 -1.1248 -0.9902  2.7482
 1290TIP3   OH225360   4.102   2.192   1.784 -0.0884  0.0370  0.1036
 1290TIP3    H125361   4.168   2.152   1.842  0.1497  0.1448 -0.0888
 1290TIP3    H225362   4.077   2.122   1.724  1.9830  0.7188 -1.6961
 1291TIP3   OH225363   3.812   3.773  14.313  0.0867 -0.4505  0.2758
 1291TIP3    H125364   3.823   3.782  14.218 -1.5602  1.2113  0.1879
 1291TIP3    H225365   3.773   3.856  14.341  1.8383 -0.3323  2.6582
 1292TIP3   OH225366   3.091   5.427   3.970 -0.0413 -0.3469  0.1430
 1292TIP3    H125367   3.180   5.401   3.994  0.2326 -0.6453 -1.1012
 1292TIP3    H225368   3.096   5.522   3.958  0.5562 -0.5624 -1.5836
 1293TIP3   OH225369   3.096   4.291  13.020 -0.2697  0.2559  0.2499
 1293TIP3    H125370   3.078   4.363  13.081 -0.1390  1.3876 -0.9970
 1293TIP3    H225371   3.102   4.333  12.935 -2.2259 -1.4834 -0.8582
 1294TIP3   OH225372   3.284   2.914   0.077  0.4999  0.0743 -0.1576
 1294TIP3    H125373   3.253   2.911   0.168 -0.2279 -0.8596 -0.4154
 1294TIP3    H225374   3.215   2.960   0.030  0.7643  0.3462 -0.2788
 1295TIP3   OH225375   6.480   1.321  13.461 -0.4835  0.1017 -0.0030
 1295TIP3    H125376   6.557   1.352  13.415  0.1548 -1.1914  0.1574
 1295TIP3    H225377   6.407   1.368  13.420  0.3632  1.3572 -0.1417
 1296TIP3   OH225378   5.959   2.891   1.998  0.3599  0.2841  0.4313
 1296TIP3    H125379   5.950   2.852   1.910 -3.0879  0.0526  0.7517
 1296TIP3    H225380   5.974   2.984   1.982  0.5978  0.1196 -0.3611
 1297TIP3   OH225381   5.115   2.029  15.766  0.6385 -0.3944  0.6721
 1297TIP3    H125382   5.104   1.941  15.801  0.6965 -1.8097 -2.5247
 1297TIP3    H225383   5.208   2.035  15.744  0.7722  0.7484  1.4864
 1298TIP3   OH225384   1.062   4.199  12.169 -0.3537 -0.6158 -0.0941
 1298TIP3    H125385   1.125   4.128  12.167 -0.0115 -0.3575  1.0549
 1298TIP3    H225386   0.978   4.157  12.189 -0.4096 -0.8570 -0.8121
 1299TIP3   OH225387   0.488   4.793  14.142  0.1735  0.0879  0.6540
 1299TIP3    H125388   0.416   4.802  14.205  0.6470 -0.0237  1.2264
 1299TIP3    H225389   0.566   4.815  14.193  0.5008  0.6110 -0.0686
 1300TIP3   OH225390   3.182   5.519   1.399 -0.1117  0.1381 -0.2456
 1300TIP3    H125391   3.100   5.509   1.447 -0.3820 -2.9100 -1.1390
 1300TIP3    H225392   3.154   5.543   1.310  0.2486  2.9042  0.3009
 1301TIP3   OH225393   3.699   2.295   5.652  0.2354 -0.0790 -0.0888
 1301TIP3    H125394   3.624   2.354   5.654  0.0272 -0.3454  1.5031
 1301TIP3    H225395   3.770   2.344   5.694 -0.3088 -1.3238  2.5427
 1302TIP3   OH225396   2.285   2.108   4.561 -0.1616  0.1880  0.2274
 1302TIP3    H125397   2.214   2.044   4.554 -0.2723  0.3529 -0.1961
 1302TIP3    H225398   2.365   2.058   4.550 -0.1478 -0.1557  1.6303
 1303TIP3   OH225399   6.149   0.383  12.222 -0.2160  0.2995  0.5953
 1303TIP3    H125400   6.229   0.360  12.270  2.1547  1.6139 -2.4088
 1303TIP3    H225401   6.145   0.478  12.228  0.0726  0.4971 -1.5011
 1304TIP3   OH225402   1.607   3.663  12.250 -0.5543 -0.6589  0.8074
 1304TIP3    H125403   1.665   3.658  12.175 -0.8898  1.3679  0.3554
 1304TIP3    H225404   1.664   3.686  12.323 -0.4673 -1.0350  0.8634
 1305TIP3   OH225405   4.504   0.346  13.793 -0.3068  1.2885 -0.3755
 1305TIP3    H125406   4.588   0.367  13.751  0.7022  1.1015  1.4396
 1305TIP3    H225407   4.440   0.401  13.748  0.6805  1.0965 -2.1204
 1306TIP3   OH225408   6.551   6.701   5.927 -0.1330  0.3448  0.0433
 1306TIP3    H125409   6.459   6.710   5.951  0.3657  1.4953  1.7219
 1306TIP3    H225410   6.592   6.782   5.958  2.0000 -1.4185  2.2159
 1307TIP3   OH225411   4.068   2.909  17.127 -0.2745 -0.0143 -0.1219
 1307TIP3    H125412   4.060   2.815  17.143  0.1796  0.0712  0.6375
 1307TIP3    H225413   4.045   2.950  17.210  3.5688  0.3895  0.9523
 1308TIP3   OH225414   4.460   6.131   3.510 -0.6167  0.6139 -0.2022
 1308TIP3    H125415   4.462   6.149   3.416  1.7675  0.5759 -0.2173
 1308TIP3    H225416   4.446   6.217   3.550 -0.6856  0.7752 -0.5653
 1309TIP3   OH225417   4.194   0.173  14.076  0.0369 -0.5823  0.4008
 1309TIP3    H125418   4.281   0.162  14.112 -0.0884 -1.7844  0.3782
 1309TIP3    H225419   4.152   0.238  14.132  1.2768  0.7937 -0.2179
 1310TIP3   OH225420   5.395   0.013  16.931 -0.1658  0.4969 -0.0616
 1310TIP3    H125421   5.437   0.004  16.845  1.0854  1.4409  0.4084
 1310TIP3    H225422   5.410  -0.072  16.973  1.5756  0.8753  0.1804
 1311TIP3   OH225423   4.249   3.467   5.019 -0.6270  0.1458  0.0879
 1311TIP3    H125424   4.317   3.466   4.952 -1.0979  0.8555 -0.4141
 1311TIP3    H225425   4.249   3.557   5.052 -0.4390 -0.1811  1.0001
 1312TIP3   OH225426   0.634   5.843  14.832 -0.6359 -0.0955  0.2960
 1312TIP3    H125427   0.651   5.923  14.882  1.0233  0.8120 -1.5491
 1312TIP3    H225428   0.626   5.774  14.898 -0.4555  1.3186  1.8658
 1313TIP3   OH225429   0.270   1.606  11.173  0.3217 -0.1733 -0.4895
 1313TIP3    H125430   0.323   1.530  11.151 -2.8680 -2.6815 -0.1559
 1313TIP3    H225431   0.231   1.585  11.258  0.4135  2.5334  0.3278
 1314TIP3   OH225432   1.610   5.479   6.347 -0.1028  0.0623 -0.1924
 1314TIP3    H125433   1.656   5.412   6.296  0.1515  1.5222 -1.9874
 1314TIP3    H225434   1.522   5.482   6.309  0.9638  3.3500 -2.9929
 1315TIP3   OH225435   0.514   1.191  14.387 -0.1851  0.3646 -0.1726
 1315TIP3    H125436   0.594   1.168  14.434  1.1370 -0.0980 -2.5007
 1315TIP3    H225437   0.539   1.190  14.294 -2.7391  0.8325 -0.9529
 1316TIP3   OH225438   0.819   4.379   0.752  0.1466 -0.2067  0.1913
 1316TIP3    H125439   0.850   4.329   0.827  0.1905  0.6751  0.7731
 1316TIP3    H225440   0.894   4.385   0.694  0.6743  0.7166  0.9479
 1317TIP3   OH225441   4.746   3.394  16.399 -0.1280 -0.2296  0.7889
 1317TIP3    H125442   4.700   3.333  16.342  0.8233  0.2225 -0.5245
 1317TIP3    H225443   4.807   3.340  16.449  0.1469 -0.4671  0.2064
 1318TIP3   OH225444   1.274   1.914   5.906  0.0538 -0.4208  0.3613
 1318TIP3    H125445   1.272   1.973   5.982 -0.4692  0.1720 -0.1042
 1318TIP3    H225446   1.251   1.828   5.942  1.0136 -0.3899  1.0837
 1319TIP3   OH225447   3.720   0.605  16.804  0.7326  0.2109 -0.3248
 1319TIP3    H125448   3.650   0.581  16.865  2.3162 -0.8467  1.2064
 1319TIP3    H225449   3.733   0.527  16.751  0.2859  0.6522 -1.0899
 1320TIP3   OH225450   0.342   5.393  16.323  0.1286 -0.2135  1.0438
 1320TIP3    H125451   0.263   5.339  16.316  0.4482 -0.5569  0.0656
 1320TIP3    H225452   0.357   5.425  16.235 -1.6202  3.7713  1.9500
 1321TIP3   OH225453   3.650   4.526   5.018  0.2913 -0.0858  0.3087
 1321TIP3    H125454   3.741   4.534   4.988  0.6347 -1.4160  0.9356
 1321TIP3    H225455   3.651   4.452   5.078 -1.0280  0.4884  1.0896
 1322TIP3   OH225456   0.983   2.971  15.842  0.3947 -0.2729  0.2854
 1322TIP3    H125457   1.029   3.043  15.801 -0.6740 -0.3837 -1.1846
 1322TIP3    H225458   0.999   2.896  15.785 -3.8557  0.2762 -2.1048
 1323TIP3   OH225459   5.714   4.850  16.705 -0.0786  0.5733 -0.0012
 1323TIP3    H125460   5.681   4.921  16.760  0.1791  0.5816  0.1419
 1323TIP3    H225461   5.640   4.829  16.646 -1.2781 -1.1131  1.9655
 1324TIP3   OH225462   0.644   1.523   4.700 -0.0635  0.3568 -0.6339
 1324TIP3    H125463   0.562   1.542   4.746 -0.6975  0.7945 -1.8920
 1324TIP3    H225464   0.644   1.583   4.626  1.6401  0.6895 -0.4042
 1325TIP3   OH225465   2.368   1.855   4.086 -0.1895  0.4258  0.1135
 1325TIP3    H125466   2.388   1.869   3.994  0.2299 -0.2794  0.0947
 1325TIP3    H225467   2.317   1.774   4.088 -0.4877  0.6208  0.4656
 1326TIP3   OH225468   1.339   1.411   0.849 -0.1916 -0.3881  0.5760
 1326TIP3    H125469   1.337   1.427   0.754 -0.5221 -0.8668  0.5001
 1326TIP3    H225470   1.247   1.410   0.875 -0.2640 -2.7836  0.4587
 1327TIP3   OH225471   2.528   3.812   3.462 -0.1196 -0.3459  0.0629
 1327TIP3    H125472   2.526   3.789   3.369  0.9616 -0.4485  0.0506
 1327TIP3    H225473   2.557   3.903   3.464  0.1926 -0.4496  0.3162
 1328TIP3   OH225474   0.402   4.033  16.118 -0.1929  0.9143 -0.1766
 1328TIP3    H125475   0.402   3.952  16.169 -2.6309  1.2561  0.4577
 1328TIP3    H225476   0.369   4.100  16.178 -1.1582  1.7527 -1.5831
 1329TIP3   OH225477   0.557   2.938  12.771  0.5158  0.0346 -0.0685
 1329TIP3    H125478   0.495   2.928  12.699  1.1921 -1.6462 -0.4545
 1329TIP3    H225479   0.504   2.975  12.842 -0.0196  2.3087 -1.5540
 1330TIP3   OH225480   3.582   6.744  15.630 -0.5092  0.1458  0.0989
 1330TIP3    H125481   3.569   6.655  15.662  0.9996 -0.3904 -0.6728
 1330TIP3    H225482   3.634   6.787  15.698  0.2143 -0.0992 -0.2905
 1331TIP3   OH225483   3.815   2.681   2.141  0.1365  0.0777  0.4977
 1331TIP3    H125484   3.794   2.731   2.220 -0.2121  0.2414  0.3049
 1331TIP3    H225485   3.887   2.729   2.101  1.3121 -0.8032  1.4637
 1332TIP3   OH225486   6.192   1.110  12.378  0.1659 -0.2654 -0.5849
 1332TIP3    H125487   6.157   1.102  12.467 -0.4875  0.7578 -0.7320
 1332TIP3    H225488   6.272   1.059  12.379 -0.4641 -1.2645  0.2476
 1333TIP3   OH225489   0.946   2.974   3.061 -0.0850 -0.6804 -0.1415
 1333TIP3    H125490   1.030   2.944   3.094  0.2423  0.2695 -0.0815
 1333TIP3    H225491   0.949   2.956   2.967 -0.5682 -2.3450  0.1323
 1334TIP3   OH225492   0.105   4.645   4.440 -0.0895 -0.5523  0.1743
 1334TIP3    H125493   0.056   4.710   4.389 -0.8036 -0.7583  0.5791
 1334TIP3    H225494   0.170   4.610   4.379 -0.2518 -0.0575 -0.2895
 1335TIP3   OH225495   4.011   2.851   5.625 -0.4723 -0.2125  0.6914
 1335TIP3    H125496   3.998   2.926   5.683  0.4733 -0.4502  1.2322
 1335TIP3    H225497   3.931   2.847   5.573 -1.9584 -0.7608  2.8647
 1336TIP3   OH225498   6.773   3.136  11.198  0.5609 -0.6287 -0.2572
 1336TIP3    H125499   6.829   3.213  11.208 -0.8306  0.3930  0.0705
 1336TIP3    H225500   6.731   3.148  11.113 -1.2478  0.1158  0.6844
 1337TIP3   OH225501   4.333   0.031  13.674 -0.1667 -0.6350  0.0066
 1337TIP3    H125502   4.255   0.073  13.710  1.3074  1.2848  1.1647
 1337TIP3    H225503   4.398   0.101  13.669  1.6186 -2.2419 -0.5194
 1338TIP3   OH225504   5.186   6.547   0.575  0.4597  0.0786  0.5304
 1338TIP3    H125505   5.160   6.567   0.665 -1.0321 -0.3786  0.2200
 1338TIP3    H225506   5.210   6.454   0.577  2.2587  0.5127  0.8318
 1339TIP3   OH225507   5.170   0.026   1.362 -0.3324  0.2432  0.7391
 1339TIP3    H125508   5.251   0.036   1.312 -1.0318  1.2164 -0.2396
 1339TIP3    H225509   5.190   0.061   1.448 -0.2810  2.5032 -0.1200
 1340TIP3   OH225510   5.625   0.647  15.639 -0.6138 -0.7972  0.2775
 1340TIP3    H125511   5.558   0.698  15.593 -0.0378 -1.0212 -0.8231
 1340TIP3    H225512   5.576   0.575  15.679 -0.9932 -1.1453 -0.7906
 1341TIP3   OH225513   5.497   0.065   3.438  0.3850  0.3176  0.0855
 1341TIP3    H125514   5.522   0.140   3.492 -1.1075  1.7340 -1.0681
 1341TIP3    H225515   5.401   0.070   3.433  0.2567 -1.5543 -0.2173
 1342TIP3   OH225516   0.583   5.680  13.061  0.0599 -0.3320  0.1237
 1342TIP3    H125517   0.624   5.750  13.009  0.3210  0.1001  0.8913
 1342TIP3    H225518   0.494   5.674  13.027  0.9206 -1.7888 -2.0707
 1343TIP3   OH225519   1.299   4.264   4.780  0.1894 -0.3095  0.3520
 1343TIP3    H125520   1.344   4.256   4.864  0.9825 -0.9542 -0.1184
 1343TIP3    H225521   1.365   4.238   4.715 -0.4222  0.1463 -0.4644
 1344TIP3   OH225522   6.370   5.449   0.567  0.2935  0.1873  0.0893
 1344TIP3    H125523   6.318   5.525   0.593  0.1461  0.2570 -0.3935
 1344TIP3    H225524   6.332   5.421   0.484 -0.2976 -1.0365  0.7565
 1345TIP3   OH225525   3.143   0.421   0.113  0.4956  0.0051  0.4260
 1345TIP3    H125526   3.078   0.394   0.048  0.6268  2.0870 -0.6480
 1345TIP3    H225527   3.097   0.415   0.196  0.5120 -3.3357  0.3388
 1346TIP3   OH225528   4.692   1.808  11.775  0.1336  0.2263 -0.2684
 1346TIP3    H125529   4.669   1.727  11.821 -0.8391  0.4703 -0.2833
 1346TIP3    H225530   4.713   1.869  11.846  2.8029 -0.5428 -0.3115
 1347TIP3   OH225531   6.035   4.402  10.914 -0.0392  0.4987  0.2781
 1347TIP3    H125532   5.987   4.320  10.928  1.0216 -0.1082  0.4664
 1347TIP3    H225533   6.125   4.381  10.938  0.2995  1.6529  0.0582
 1348TIP3   OH225534   4.091   1.285   1.508  0.3025 -0.0056  0.6056
 1348TIP3    H125535   4.046   1.240   1.437 -0.7835  1.0135  0.6273
 1348TIP3    H225536   4.062   1.376   1.502  1.7317  0.5131  1.1446
 1349TIP3   OH225537   2.699   2.291  14.757  0.1350  0.4454  0.2721
 1349TIP3    H125538   2.762   2.336  14.701  0.7794 -0.3723  0.3234
 1349TIP3    H225539   2.618   2.292  14.706  1.0805 -1.6168 -1.4065
 1350TIP3   OH225540   2.901   6.595  15.391 -0.9378 -0.3612 -0.1611
 1350TIP3    H125541   2.824   6.539  15.392 -1.1708 -0.0802  1.8335
 1350TIP3    H225542   2.968   6.544  15.436 -0.8235  0.4908  0.6638
 1351TIP3   OH225543   1.426   0.005   3.258 -0.0117 -0.1987 -0.4378
 1351TIP3    H125544   1.332   0.002   3.242 -0.4767 -1.6983  2.0018
 1351TIP3    H225545   1.446  -0.080   3.299  2.7834 -0.7304 -2.6048
 1352TIP3   OH225546   4.018   4.878   6.581 -0.1563 -0.3031 -0.0398
 1352TIP3    H125547   4.104   4.886   6.539 -0.5224  0.7207 -0.6422
 1352TIP3    H225548   4.034   4.897   6.674  0.1023  1.0966 -0.3474
 1353TIP3   OH225549   5.483   0.254   3.062 -0.0167 -0.0626  0.3777
 1353TIP3    H125550   5.530   0.170   3.062  0.6277  0.2960  0.6745
 1353TIP3    H225551   5.405   0.237   3.116 -0.5438 -0.8198 -0.5889
 1354TIP3   OH225552   6.511   2.115  12.849  0.1186  0.0726 -0.0436
 1354TIP3    H125553   6.568   2.133  12.774  0.3886  0.3144  0.2216
 1354TIP3    H225554   6.557   2.047  12.898  0.2486  0.3658  0.2454
 1355TIP3   OH225555   0.644   3.380   3.268  0.0147 -0.7268  0.3152
 1355TIP3    H125556   0.719   3.437   3.251 -0.0936 -0.3007  1.2392
 1355TIP3    H225557   0.671   3.295   3.233  0.5221 -0.3334 -0.2811
 1356TIP3   OH225558   4.882   3.141  14.655 -0.3179 -0.0267 -0.6288
 1356TIP3    H125559   4.874   3.050  14.682 -0.7249  0.2923  0.4207
 1356TIP3    H225560   4.826   3.149  14.578  0.4757 -0.8716 -1.2974
 1357TIP3   OH225561   2.194   0.130  12.703 -0.6334 -0.3932 -0.3268
 1357TIP3    H125562   2.257   0.058  12.709 -0.5087 -0.2431  0.2913
 1357TIP3    H225563   2.135   0.104  12.632  0.6918 -0.0750 -1.5971
 1358TIP3   OH225564   4.215   1.958  12.992 -0.2492  0.4798 -0.0768
 1358TIP3    H125565   4.293   1.905  13.009 -0.5640  0.1152  0.2826
 1358TIP3    H225566   4.235   2.007  12.913 -0.2523 -0.7903 -0.8885
 1359TIP3   OH225567   4.343   4.080   5.334  0.0157 -0.0354 -0.0306
 1359TIP3    H125568   4.333   3.992   5.297 -0.6887 -0.4170  1.0226
 1359TIP3    H225569   4.298   4.076   5.418 -0.3452  1.4426 -0.1235
 1360TIP3   OH225570   2.471   0.784  15.737 -0.1525 -0.3145 -0.1234
 1360TIP3    H125571   2.515   0.804  15.654 -0.4023 -3.3889 -1.1057
 1360TIP3    H225572   2.407   0.855  15.747  1.7696  1.6815 -1.0422
 1361TIP3   OH225573   0.717   4.235   3.070  0.7650 -0.6101 -0.4100
 1361TIP3    H125574   0.762   4.167   3.021  0.0591 -2.7116  1.6805
 1361TIP3    H225575   0.766   4.244   3.151 -1.2957 -1.4702  1.0220
 1362TIP3   OH225576   1.049   0.595   1.738  0.3784 -0.1422  0.0934
 1362TIP3    H125577   1.039   0.500   1.743 -0.9702 -0.0109  0.3367
 1362TIP3    H225578   1.011   0.618   1.654 -0.5697  0.3033  0.6224
 1363TIP3   OH225579   5.611   3.239   3.409 -0.3137  0.6536  0.5826
 1363TIP3    H125580   5.567   3.171   3.459  1.7152  0.9049  2.8733
 1363TIP3    H225581   5.575   3.321   3.442 -0.7610  0.7766 -0.1897
 1364TIP3   OH225582   2.887   1.326   5.662  0.3803 -0.0531  0.1980
 1364TIP3    H125583   2.913   1.396   5.601 -2.0037  1.0451  0.3350
 1364TIP3    H225584   2.961   1.318   5.722  1.3348  1.2898 -0.7451
 1365TIP3   OH225585   0.622   3.261   1.498 -0.0882  0.3889  0.0092
 1365TIP3    H125586   0.705   3.297   1.531  0.8018 -1.9207  0.4667
 1365TIP3    H225587   0.625   3.278   1.404  1.6185 -0.8732 -0.2197
 1366TIP3   OH225588   5.244   6.587   2.967  0.1455 -0.0526  0.3268
 1366TIP3    H125589   5.149   6.593   2.954 -0.0237 -1.7631  0.4944
 1366TIP3    H225590   5.275   6.677   2.963 -1.3830  0.4695 -0.5459
 1367TIP3   OH225591   1.590   5.228   1.195 -0.6120 -0.4057  0.0542
 1367TIP3    H125592   1.650   5.243   1.122  1.2783 -0.1810  1.5815
 1367TIP3    H225593   1.528   5.301   1.189  0.5099  0.5466 -0.3629
 1368TIP3   OH225594   3.785   1.560   3.705 -0.0700 -0.1001  0.0341
 1368TIP3    H125595   3.716   1.584   3.642  0.9679 -2.2871 -2.0477
 1368TIP3    H225596   3.784   1.465   3.706  1.3327 -0.1264  1.8289
 1369TIP3   OH225597   6.145   2.301   1.301  0.0578 -0.4747 -0.4429
 1369TIP3    H125598   6.125   2.334   1.214  2.1132  1.3306 -0.3136
 1369TIP3    H225599   6.184   2.215   1.286  0.5626 -0.0982 -1.3292
 1370TIP3   OH225600   5.557   6.151   1.639 -0.6251  0.1690 -0.0444
 1370TIP3    H125601   5.464   6.139   1.658 -0.4703 -2.4296 -0.5465
 1370TIP3    H225602   5.602   6.102   1.708  0.5997  3.6985  1.9003
 1371TIP3   OH225603   5.801   2.300   5.583 -0.4568  0.0908 -0.3394
 1371TIP3    H125604   5.868   2.297   5.514  0.2046  1.5104  0.1921
 1371TIP3    H225605   5.779   2.393   5.589 -2.6997 -0.3662 -0.6749
 1372TIP3   OH225606   0.588   3.693   0.832 -0.3694 -0.1043  0.0163
 1372TIP3    H125607   0.601   3.780   0.869 -1.4163 -0.5533  1.5704
 1372TIP3    H225608   0.672   3.649   0.846 -1.0864 -0.7297  3.4217
 1373TIP3   OH225609   4.746   1.976   6.167  0.6028 -0.4709  0.0813
 1373TIP3    H125610   4.740   1.912   6.237  1.6652 -0.4461  0.2062
 1373TIP3    H225611   4.717   1.929   6.089 -1.1029 -0.3472  0.5984
 1374TIP3   OH225612   6.451   4.496  13.168  0.5554 -0.1466 -0.4309
 1374TIP3    H125613   6.380   4.547  13.130  0.4248 -0.5735 -0.7669
 1374TIP3    H225614   6.530   4.547  13.150  0.4045  0.0333 -0.5851
 1375TIP3   OH225615   2.498   6.225   4.770  0.3758 -0.2540  0.2582
 1375TIP3    H125616   2.582   6.207   4.728  0.1500 -1.6934  0.3787
 1375TIP3    H225617   2.445   6.148   4.752 -0.6607  0.3019  0.8445
 1376TIP3   OH225618   6.647   4.229   4.052 -0.2300  0.1423  0.0467
 1376TIP3    H125619   6.562   4.210   4.090  0.2265 -0.4562  0.8134
 1376TIP3    H225620   6.695   4.146   4.058  0.5063  0.5481 -0.0930
 1377TIP3   OH225621   1.947   0.684  14.030  0.1943  0.4290  0.3642
 1377TIP3    H125622   1.856   0.698  14.054 -0.1743  0.2398 -0.8622
 1377TIP3    H225623   1.969   0.757  13.972  0.5120 -0.0579 -0.1414
 1378TIP3   OH225624   3.679   2.018  15.375  0.6061  0.4593  0.1689
 1378TIP3    H125625   3.752   2.042  15.431  0.3753 -0.3634  0.8448
 1378TIP3    H225626   3.606   2.005  15.435  0.1411  0.3833 -0.4058
 1379TIP3   OH225627   3.248   3.207   5.479 -0.2634  0.0105 -0.1480
 1379TIP3    H125628   3.263   3.259   5.558 -3.6394  1.0815 -0.0574
 1379TIP3    H225629   3.256   3.116   5.509  0.9408  0.3958  0.8086
 1380TIP3   OH225630   0.051   6.615  16.458 -0.1135 -0.6302  0.1518
 1380TIP3    H125631   0.131   6.621  16.407 -0.6461  0.1266 -0.6251
 1380TIP3    H225632   0.047   6.697  16.507 -0.9364 -0.1788 -0.6355
 1381TIP3   OH225633   1.715   4.234   3.782  0.1128 -0.1362  0.0894
 1381TIP3    H125634   1.663   4.272   3.853 -1.1082 -1.2366 -0.1706
 1381TIP3    H225635   1.677   4.147   3.769  1.2061 -0.4771 -1.0001
 1382TIP3   OH225636   3.845   6.544  11.655  0.7627  0.1295  0.2486
 1382TIP3    H125637   3.827   6.603  11.581  0.4474  0.3484  0.4991
 1382TIP3    H225638   3.771   6.557  11.714  0.0784 -1.3874 -0.2314
 1383TIP3   OH225639   6.570   5.035  14.538  0.4549  0.1650 -0.2900
 1383TIP3    H125640   6.649   4.981  14.531  0.2076 -0.2581  0.1594
 1383TIP3    H225641   6.550   5.036  14.631 -0.7811 -0.7600 -0.5153
 1384TIP3   OH225642   0.556   4.105   3.430  0.1568 -0.1312  0.6798
 1384TIP3    H125643   0.547   4.145   3.343  0.1972  0.2419  0.8445
 1384TIP3    H225644   0.466   4.097   3.461  0.2220  1.4234  1.3521
 1385TIP3   OH225645   2.485   5.648   4.096  0.0912 -0.1091  0.1017
 1385TIP3    H125646   2.509   5.627   4.187  1.8673  1.9119  0.1863
 1385TIP3    H225647   2.474   5.743   4.096  1.3902  0.0942 -2.0222
 1386TIP3   OH225648   2.130   2.429  15.162 -0.2551 -0.5661  0.7812
 1386TIP3    H125649   2.044   2.391  15.140  0.0251 -1.2775  0.8698
 1386TIP3    H225650   2.109   2.510  15.209 -0.8784  1.3817 -2.5638
 1387TIP3   OH225651   2.402   6.195   6.336 -0.5167  0.8898 -0.2443
 1387TIP3    H125652   2.488   6.219   6.300  0.0103  0.8628  0.9464
 1387TIP3    H225653   2.383   6.109   6.298  0.3307  0.5635  0.0576
 1388TIP3   OH225654   3.722   0.738  16.556 -0.1072  0.1686  0.6223
 1388TIP3    H125655   3.677   0.666  16.513  0.7351  0.3940 -0.7126
 1388TIP3    H225656   3.740   0.707  16.645 -0.2259 -1.0620  0.2247
 1389TIP3   OH225657   5.312   6.603   2.620 -0.3814  0.4083  0.1016
 1389TIP3    H125658   5.280   6.569   2.703  0.3942  1.9106  1.0693
 1389TIP3    H225659   5.397   6.641   2.641  0.1636  0.1999 -1.5397
 1390TIP3   OH225660   2.371   4.936  14.739  0.2245  0.1001  0.5329
 1390TIP3    H125661   2.433   5.009  14.744 -0.1207  0.4257  0.1017
 1390TIP3    H225662   2.286   4.975  14.761 -0.3612  0.3399 -1.8278
 1391TIP3   OH225663   0.519   4.671   4.281  0.2347 -0.4856 -0.3290
 1391TIP3    H125664   0.562   4.730   4.343 -0.8932  1.5084 -1.3449
 1391TIP3    H225665   0.591   4.624   4.239  1.6147  2.8203 -2.0690
 1392TIP3   OH225666   1.910   3.050   1.537  1.1102  0.1273 -0.5553
 1392TIP3    H125667   1.870   3.050   1.450  0.3368 -0.1769 -0.2185
 1392TIP3    H225668   1.973   2.978   1.534 -1.1926 -2.0740  0.0808
 1393TIP3   OH225669   0.468   4.317   3.020  0.6698  0.4239  0.7659
 1393TIP3    H125670   0.492   4.408   3.007 -0.1525  0.4516 -0.9165
 1393TIP3    H225671   0.548   4.274   3.051  1.0070  1.7316  1.7816
 1394TIP3   OH225672   3.450   5.476  16.147 -0.4290 -0.5267  0.0570
 1394TIP3    H125673   3.519   5.521  16.195  1.0643 -0.7007 -1.8067
 1394TIP3    H225674   3.390   5.546  16.119 -0.9916 -0.3651  1.5909
 1395TIP3   OH225675   0.342   4.572   1.094  0.0938 -0.1522  0.0336
 1395TIP3    H125676   0.276   4.586   1.026 -0.1493  0.0245  0.3097
 1395TIP3    H225677   0.354   4.657   1.135  1.1677  0.0395 -0.6171
 1396TIP3   OH225678   5.039   4.576   0.388  0.0319 -1.2217 -0.7335
 1396TIP3    H125679   5.107   4.531   0.339  0.3881 -0.0553 -1.3554
 1396TIP3    H225680   5.076   4.663   0.406 -0.2955 -1.4166  1.1431
 1397TIP3   OH225681   2.107   2.019   1.381 -0.1051 -0.1585  0.5652
 1397TIP3    H125682   2.182   2.044   1.436 -0.1572 -1.6798  1.3851
 1397TIP3    H225683   2.062   1.951   1.431 -0.4025 -1.3069 -1.1742
 1398TIP3   OH225684   3.961   1.576   0.041 -0.4832  0.2125  0.6367
 1398TIP3    H125685   3.928   1.627   0.115 -0.1400  0.7982  0.3957
 1398TIP3    H225686   4.019   1.636  -0.005 -1.3390  0.1171 -0.5884
 1399TIP3   OH225687   2.999   0.041  12.750 -0.4972 -0.3369 -0.0821
 1399TIP3    H125688   2.972   0.062  12.840 -0.0857 -2.9903  0.7598
 1399TIP3    H225689   3.094   0.033  12.756 -0.1225  2.2006 -1.4643
 1400TIP3   OH225690   6.305   5.883  15.441 -0.2736  0.0018 -0.3792
 1400TIP3    H125691   6.334   5.947  15.375  0.9017  0.3960  0.4828
 1400TIP3    H225692   6.386   5.855  15.483 -0.9780 -0.5472  0.6363
 1401TIP3   OH225693   0.468   5.589   5.427 -0.4327 -0.1067  0.1491
 1401TIP3    H125694   0.490   5.531   5.500 -0.1513  0.8598  0.8363
 1401TIP3    H225695   0.545   5.586   5.370 -0.4914 -0.5393  0.0842
 1402TIP3   OH225696   5.194   0.350   2.856  0.2929  0.4968  0.3895
 1402TIP3    H125697   5.157   0.262   2.869  1.5309  0.1509  1.8588
 1402TIP3    H225698   5.288   0.337   2.855  0.4897  1.7946  0.4315
 1403TIP3   OH225699   4.901   5.406   6.299  0.1798 -0.0676  0.6210
 1403TIP3    H125700   4.906   5.473   6.367  0.9890  2.4648 -1.7271
 1403TIP3    H225701   4.808   5.403   6.274  0.1565  0.2542  0.6707
 1404TIP3   OH225702   1.300   2.756  15.464 -0.3550  0.5754  0.3163
 1404TIP3    H125703   1.327   2.742  15.374  1.5367  0.0938  0.9140
 1404TIP3    H225704   1.343   2.686  15.513 -1.9050  0.4089  1.5229
 1405TIP3   OH225705   6.541   5.443  14.623 -0.6918  0.8253  0.8067
 1405TIP3    H125706   6.456   5.450  14.580 -0.7208  0.3277  0.7817
 1405TIP3    H225707   6.583   5.528  14.606 -0.1815  0.1961 -1.3325
 1406TIP3   OH225708   0.947   4.285  13.006 -0.4365 -0.3116 -0.0884
 1406TIP3    H125709   0.949   4.238  12.923 -2.0504  0.7757 -0.7890
 1406TIP3    H225710   0.925   4.375  12.982  3.7292  1.2409  1.0612
 1407TIP3   OH225711   4.178   4.485   2.066  0.3542  0.0044 -0.0936
 1407TIP3    H125712   4.217   4.572   2.075 -1.0365  0.7112 -0.6239
 1407TIP3    H225713   4.120   4.477   2.142 -0.5877  0.1434 -0.7768
 1408TIP3   OH225714   6.217   2.786   1.252 -0.1704  0.1305  0.1342
 1408TIP3    H125715   6.149   2.847   1.225 -0.8250  0.7871  2.9493
 1408TIP3    H225716   6.200   2.770   1.345  0.6833 -3.4778 -0.1855
 1409TIP3   OH225717   4.457   3.418  14.001 -0.1723 -0.3553  0.2738
 1409TIP3    H125718   4.463   3.356  14.074  0.9823 -1.4650 -0.7173
 1409TIP3    H225719   4.498   3.498  14.034  1.8149 -1.3597  0.3419
 1410TIP3   OH225720   3.361   6.052   4.129  0.2789  0.8644  0.4355
 1410TIP3    H125721   3.368   6.070   4.035  1.7559  0.0097  0.3427
 1410TIP3    H225722   3.429   6.106   4.169  0.9243 -0.1581  0.7747
 1411TIP3   OH225723   6.033   3.472   5.710 -0.0615  0.0362  0.4604
 1411TIP3    H125724   5.957   3.498   5.658 -0.7656  0.4626  1.6534
 1411TIP3    H225725   6.073   3.401   5.661 -0.2740  0.8864 -1.0160
 1412TIP3   OH225726   3.716   5.582   1.958 -0.3145 -0.0046 -0.7772
 1412TIP3    H125727   3.742   5.659   2.008  1.0849  0.1705 -1.7033
 1412TIP3    H225728   3.687   5.518   2.024  1.1338  0.3338  0.2272
 1413TIP3   OH225729   3.119   6.126  13.886  0.5699  0.0191 -0.4792
 1413TIP3    H125730   3.096   6.122  13.978  3.1887 -3.7492  0.2722
 1413TIP3    H225731   3.183   6.197  13.880  0.1275  0.5231  0.4985
 1414TIP3   OH225732   5.675   0.357  13.809  0.0326  0.0922 -0.6041
 1414TIP3    H125733   5.653   0.412  13.884 -1.1498 -0.2307 -0.7006
 1414TIP3    H225734   5.729   0.287  13.845 -2.2628 -1.2743  0.3729
 1415TIP3   OH225735   1.122   4.627   5.741 -0.3208  0.6915 -0.3422
 1415TIP3    H125736   1.044   4.572   5.744 -0.8231  1.2741 -1.8860
 1415TIP3    H225737   1.120   4.668   5.655  0.6303  2.2680  0.3278
 1416TIP3   OH225738   5.489   1.162  11.451  0.2233  1.0001 -0.4374
 1416TIP3    H125739   5.563   1.218  11.427  0.7056  0.0206 -1.3179
 1416TIP3    H225740   5.481   1.100  11.378 -0.7851  0.4099  0.1495
 1417TIP3   OH225741   6.356   6.777  15.804  0.3732  0.0959 -0.4050
 1417TIP3    H125742   6.301   6.701  15.785  2.6633 -1.8242  0.2038
 1417TIP3    H225743   6.326   6.807  15.890 -1.6880  1.0531 -1.3739
 1418TIP3   OH225744   4.456   0.209   0.489 -0.0206  0.3370 -0.1475
 1418TIP3    H125745   4.452   0.151   0.413  0.2071  0.5499 -0.3228
 1418TIP3    H225746   4.519   0.167   0.548 -1.2506 -0.5840  0.5684
 1419TIP3   OH225747   0.019   1.494   3.058  0.5687 -0.3763 -0.7620
 1419TIP3    H125748   0.064   1.576   3.077  0.3116 -0.0938 -1.3569
 1419TIP3    H225749  -0.070   1.520   3.034  0.3390 -0.8690 -0.4623
 1420TIP3   OH225750   5.956   1.046   1.465  0.0216 -0.4467 -0.3088
 1420TIP3    H125751   6.028   1.077   1.410  0.4885  1.4215  1.2496
 1420TIP3    H225752   5.986   0.963   1.501  0.5979 -0.6163 -1.1684
 1421TIP3   OH225753   6.329   1.680  12.836  0.3146  0.0401  0.0103
 1421TIP3    H125754   6.239   1.648  12.824 -0.1514  1.3169 -0.0947
 1421TIP3    H225755   6.362   1.631  12.911  0.0351 -1.4583 -0.8018
 1422TIP3   OH225756   4.075   5.727  14.032 -0.4631 -0.0856 -0.3267
 1422TIP3    H125757   4.135   5.693  14.099 -1.1340 -0.4738  0.0960
 1422TIP3    H225758   4.128   5.730  13.952  0.5565  1.0431  0.3448
 1423TIP3   OH225759   4.817   2.988  15.097 -0.3380 -0.1602 -0.1026
 1423TIP3    H125760   4.726   2.990  15.127 -0.2474  1.1257  0.1033
 1423TIP3    H225761   4.833   3.075  15.060  0.4265 -0.7738 -1.3102
 1424TIP3   OH225762   5.855   6.110  13.485 -0.1134  0.1176  0.4855
 1424TIP3    H125763   5.774   6.065  13.461 -0.4979  1.5350 -1.0320
 1424TIP3    H225764   5.925   6.059  13.444 -0.1012 -1.5741  2.4669
 1425TIP3   OH225765   0.450   0.108   3.806  0.2235  0.3633 -0.2958
 1425TIP3    H125766   0.411   0.045   3.866  0.1217  2.0940  1.5767
 1425TIP3    H225767   0.425   0.077   3.719 -0.8768 -1.4417  0.6041
 1426TIP3   OH225768   2.709   1.676   0.022  0.3624  0.3108 -0.3713
 1426TIP3    H125769   2.672   1.728   0.093  2.4211  0.9695  0.3023
 1426TIP3    H225770   2.717   1.737  -0.052  0.3120  0.2376 -0.4373
 1427TIP3   OH225771   6.396   3.324   6.200  0.4286 -0.1038  0.1943
 1427TIP3    H125772   6.484   3.315   6.164  0.3910 -0.0937  0.0993
 1427TIP3    H225773   6.372   3.236   6.228  0.4617 -0.1097  0.2038
 1428TIP3   OH225774   5.363   1.344  11.090 -0.0380  0.0033 -0.2042
 1428TIP3    H125775   5.308   1.372  11.017  0.0640  2.2130  0.4607
 1428TIP3    H225776   5.445   1.315  11.050 -0.8421 -1.0929 -1.0727
 1429TIP3   OH225777   6.453   2.134   1.949  0.7718 -0.2417 -0.1222
 1429TIP3    H125778   6.411   2.211   1.909  2.3145  0.2628 -0.8259
 1429TIP3    H225779   6.419   2.132   2.038 -0.8088  0.0884 -0.6807
 1430TIP3   OH225780   3.260   1.521   5.468  0.5935  0.1982  0.4872
 1430TIP3    H125781   3.251   1.426   5.474  0.1001  0.3184  2.1305
 1430TIP3    H225782   3.354   1.537   5.479  0.4370 -0.0090  2.5053
 1431TIP3   OH225783   0.438   5.355   0.016 -0.0956 -0.0646 -0.1172
 1431TIP3    H125784   0.366   5.295  -0.002  1.4063 -1.3468 -2.1687
 1431TIP3    H225785   0.434   5.369   0.111 -3.3150  0.3532 -0.2111
 1432TIP3   OH225786   4.820   5.881  14.244  0.1619 -0.0357 -0.0297
 1432TIP3    H125787   4.873   5.830  14.182 -0.8224 -0.8556 -0.2256
 1432TIP3    H225788   4.779   5.948  14.190  0.5282  0.2243  0.0144
 1433TIP3   OH225789   0.930   1.163   4.288 -0.1825  0.3061 -0.4645
 1433TIP3    H125790   0.896   1.245   4.324 -2.2486  0.9047 -3.3768
 1433TIP3    H225791   1.023   1.179   4.273 -0.2941  1.6571  0.1957
 1434TIP3   OH225792   6.033   1.193  16.733 -0.1107 -0.1667 -0.5618
 1434TIP3    H125793   5.952   1.233  16.704 -1.2003  0.1710  2.5431
 1434TIP3    H225794   6.005   1.118  16.786  1.4162  0.8207  1.8613
 1435TIP3   OH225795   3.352   3.704   6.229 -0.6456  0.3515 -0.5455
 1435TIP3    H125796   3.438   3.677   6.261 -0.1777  1.5460 -0.7353
 1435TIP3    H225797   3.298   3.625   6.234  0.4094 -0.3651 -0.2447
 1436TIP3   OH225798   6.092   3.727   5.888 -0.5333  0.0460  0.5297
 1436TIP3    H125799   6.078   3.655   5.827 -1.1324 -1.5633  2.4469
 1436TIP3    H225800   6.184   3.719   5.914 -0.4898  0.2278  0.4318
 1437TIP3   OH225801   3.651   1.141  13.562 -0.3938  0.5308  0.2717
 1437TIP3    H125802   3.569   1.106  13.598 -0.5611  2.0452  1.4825
 1437TIP3    H225803   3.626   1.223  13.521  0.3836  0.5616 -0.1590
 1438TIP3   OH225804   1.729   5.302   6.180  0.1390  0.2181 -0.0069
 1438TIP3    H125805   1.814   5.341   6.160  0.7762 -0.0289  2.0415
 1438TIP3    H225806   1.741   5.208   6.165  0.6022  0.0397  1.3407
 1439TIP3   OH225807   1.538   0.284   1.625 -0.6238 -0.4708 -0.1806
 1439TIP3    H125808   1.518   0.218   1.691 -0.6127 -1.0302 -0.7321
 1439TIP3    H225809   1.632   0.277   1.611 -0.6451 -0.4383 -0.3423
 1440TIP3   OH225810   2.419   1.252   5.831  0.0913  0.0260  0.0457
 1440TIP3    H125811   2.512   1.232   5.821  0.0019 -0.6926  0.6242
 1440TIP3    H225812   2.405   1.328   5.774  0.9098 -0.1957 -0.4663
 1441TIP3   OH225813   1.986   0.754   4.099 -0.3255 -0.4821 -0.0638
 1441TIP3    H125814   1.989   0.718   4.188 -2.4740 -0.7519 -0.0554
 1441TIP3    H225815   1.915   0.818   4.102 -0.0125 -0.0516 -1.4460
 1442TIP3   OH225816   3.877   6.667   2.342  0.4249  0.8400  0.3828
 1442TIP3    H125817   3.881   6.734   2.274  0.9038  0.8844  0.4580
 1442TIP3    H225818   3.794   6.621   2.324  1.3529 -0.3014 -1.3259
 1443TIP3   OH225819   0.437   6.311   5.197  0.6125  0.7670  0.0365
 1443TIP3    H125820   0.521   6.337   5.234  2.0355 -1.2095 -1.5891
 1443TIP3    H225821   0.397   6.255   5.264  1.1470  0.7714  0.3597
 1444TIP3   OH225822   4.231   1.911  15.767 -0.9550 -0.0874 -0.1760
 1444TIP3    H125823   4.304   1.943  15.714 -1.0047  1.6111  0.7301
 1444TIP3    H225824   4.272   1.873  15.844 -1.0099  0.4295  0.1076
 1445TIP3   OH225825   5.426   3.207  11.848  0.3326  0.0794  0.1991
 1445TIP3    H125826   5.458   3.285  11.894 -1.3812  1.1613 -0.3442
 1445TIP3    H225827   5.336   3.196  11.880 -0.1225 -0.4921 -1.2201
 1446TIP3   OH225828   2.375   2.707   4.261  0.0821  0.2869  0.3285
 1446TIP3    H125829   2.426   2.788   4.260  0.9897 -0.2606  0.7984
 1446TIP3    H225830   2.400   2.664   4.343 -0.4639 -0.4302  0.1325
 1447TIP3   OH225831   4.702   0.035   5.631  0.5798 -0.3275 -0.6702
 1447TIP3    H125832   4.774   0.071   5.683  0.0230 -0.0071 -0.0954
 1447TIP3    H225833   4.671   0.108   5.578 -0.3914  0.0207  0.3172
 1448TIP3   OH225834   4.812   4.067   3.178 -0.3152 -0.4190 -0.3516
 1448TIP3    H125835   4.781   3.997   3.235  2.0867 -3.2730 -2.2527
 1448TIP3    H225836   4.850   4.132   3.237 -0.9372 -1.6153  1.4238
 1449TIP3   OH225837   4.053   4.387   3.774  0.0609 -0.3944 -0.1212
 1449TIP3    H125838   4.043   4.474   3.735  2.1238  0.6990  1.6033
 1449TIP3    H225839   3.984   4.382   3.839  1.9799  1.5196  2.2597
 1450TIP3   OH225840   1.555   4.373   5.610 -0.0695 -0.0089  0.1243
 1450TIP3    H125841   1.511   4.400   5.530  2.2966  1.5858 -0.7344
 1450TIP3    H225842   1.484   4.360   5.673 -1.7832  2.0213 -1.2613
 1451TIP3   OH225843   1.835   6.039   3.827  0.2482 -0.0131  0.2469
 1451TIP3    H125844   1.824   6.132   3.847  4.8089  1.1615 -1.2771
 1451TIP3    H225845   1.874   6.002   3.906  2.6334  0.5989 -0.5529
 1452TIP3   OH225846   0.998   6.393  14.968 -0.0804  0.5864  0.3527
 1452TIP3    H125847   0.909   6.403  14.933  0.2242 -0.9254 -0.9804
 1452TIP3    H225848   1.049   6.459  14.922  0.2292 -1.1063 -1.8730
 1453TIP3   OH225849   2.336   5.777   3.775  0.3904 -0.0990 -0.3515
 1453TIP3    H125850   2.426   5.751   3.792 -0.1898 -1.8548  0.2163
 1453TIP3    H225851   2.287   5.743   3.850 -0.5931  1.8426 -0.0592
 1454TIP3   OH225852   6.745   6.011  13.703  0.4255 -0.9148  0.5586
 1454TIP3    H125853   6.786   5.957  13.636  1.6363  1.2803 -0.5723
 1454TIP3    H225854   6.652   6.012  13.680  0.2831 -2.8676  0.9197
 1455TIP3   OH225855   0.027   1.337  13.143  0.0671 -0.4251  0.0190
 1455TIP3    H125856  -0.027   1.329  13.065  1.2611 -1.5982 -0.7245
 1455TIP3    H225857   0.073   1.420  13.133  0.3703 -0.6680 -0.6451
 1456TIP3   OH225858   2.601   1.588  14.897  0.2895 -0.5561 -0.2807
 1456TIP3    H125859   2.552   1.514  14.932  2.0378 -1.3048  0.7102
 1456TIP3    H225860   2.634   1.557  14.813 -0.4388 -0.2518 -0.6869
 1457TIP3   OH225861   3.665   2.462   0.438  0.3949  0.4093 -0.2073
 1457TIP3    H125862   3.578   2.428   0.462 -0.5579  1.6574 -1.6839
 1457TIP3    H225863   3.712   2.469   0.521 -0.7947 -0.5711  0.5921
 1458TIP3   OH225864   2.617   5.299   4.285 -0.0119  0.7385 -0.3254
 1458TIP3    H125865   2.662   5.356   4.348  0.0167  0.3749 -0.0119
 1458TIP3    H225866   2.525   5.323   4.293 -0.2358 -0.4185  1.0572
 1459TIP3   OH225867   3.828   5.187   1.664  0.2557 -0.6424 -0.1512
 1459TIP3    H125868   3.879   5.221   1.591  0.0504 -0.1227 -0.0528
 1459TIP3    H225869   3.862   5.098   1.677  0.7576 -0.4975 -0.4375
 1460TIP3   OH225870   3.286   6.744  16.873  0.0930 -0.4935  0.3389
 1460TIP3    H125871   3.317   6.677  16.811 -0.3843 -1.6744  1.3273
 1460TIP3    H225872   3.365   6.773  16.918  0.1609 -1.3547  0.8033
 1461TIP3   OH225873   1.386   2.833  16.748  0.0466 -0.2778  0.7558
 1461TIP3    H125874   1.457   2.804  16.805 -1.0847 -2.6699  1.0512
 1461TIP3    H225875   1.322   2.762  16.750 -2.2830  1.6718  0.3225
 1462TIP3   OH225876   6.808   4.914  14.525 -0.6682 -0.5471  0.1749
 1462TIP3    H125877   6.882   4.900  14.584 -0.7794  0.5538  0.6067
 1462TIP3    H225878   6.782   4.826  14.497  1.0951 -0.9400 -0.3725
 1463TIP3   OH225879   3.865   0.085   4.950  0.2063 -0.0641 -0.4970
 1463TIP3    H125880   3.923   0.117   4.881  0.5250  0.5230  0.0287
 1463TIP3    H225881   3.811   0.161   4.973 -0.8035 -0.6057 -0.9951
 1464TIP3   OH225882   3.512   6.723  14.355 -0.0835 -0.3051 -0.4054
 1464TIP3    H125883   3.475   6.700  14.440 -0.8643  1.2689 -0.2818
 1464TIP3    H225884   3.598   6.680  14.353  0.1293 -0.0182  1.3358
 1465TIP3   OH225885   2.473   4.595   0.616  0.4724  0.1370 -0.1843
 1465TIP3    H125886   2.379   4.593   0.598  0.4301  0.7967 -0.0597
 1465TIP3    H225887   2.507   4.515   0.574 -0.1263 -0.0674 -0.2943
 1466TIP3   OH225888   5.483   5.571  12.449 -0.4370  0.1704  0.2262
 1466TIP3    H125889   5.464   5.658  12.485 -1.8231 -0.5192  1.2257
 1466TIP3    H225890   5.572   5.579  12.415 -0.3062  1.8013  0.8429
 1467TIP3   OH225891   6.665   1.308   0.337 -0.1453 -0.4326 -1.2345
 1467TIP3    H125892   6.718   1.386   0.355 -0.1559 -0.7031  0.0585
 1467TIP3    H225893   6.678   1.292   0.244  0.3128  0.7824 -1.4026
 1468TIP3   OH225894   6.742   0.472  11.582  0.2915  0.3152  0.1372
 1468TIP3    H125895   6.664   0.455  11.635  0.4589  1.2887  0.7322
 1468TIP3    H225896   6.770   0.386  11.552 -0.7714 -0.0836  0.2632
 1469TIP3   OH225897   4.211   5.882  16.949 -0.4819 -0.5926 -0.3380
 1469TIP3    H125898   4.133   5.924  16.911 -0.3492  0.4468  0.5010
 1469TIP3    H225899   4.176   5.814  17.007 -0.7173 -1.1774 -1.1528
 1470TIP3   OH225900   0.909   3.412  14.617 -0.2172  0.1738 -0.1235
 1470TIP3    H125901   0.914   3.317  14.632  2.3368  0.4960  1.8759
 1470TIP3    H225902   0.881   3.420  14.526  0.3851 -2.5479 -0.6546
 1471TIP3   OH225903   4.482   6.312   5.855  0.1850 -0.0012  0.4143
 1471TIP3    H125904   4.475   6.394   5.805 -1.1316 -1.1239 -1.3517
 1471TIP3    H225905   4.572   6.312   5.887  0.5843  1.5642 -0.5700
 1472TIP3   OH225906   4.612   6.021   4.683 -0.1033  0.3326  0.4946
 1472TIP3    H125907   4.537   5.968   4.656 -0.7271  0.5972  1.6379
 1472TIP3    H225908   4.635   6.072   4.605 -0.7228 -0.2045 -0.0436
 1473TIP3   OH225909   2.441   2.344   4.538  0.3820  0.3511 -0.2442
 1473TIP3    H125910   2.362   2.291   4.549  0.2501  0.1720 -1.7988
 1473TIP3    H225911   2.514   2.282   4.543  0.5783  0.6951  2.5770
 1474TIP3   OH225912   0.196   3.762  17.262  0.1884 -0.1576  0.4257
 1474TIP3    H125913   0.242   3.688  17.301  0.2653 -0.4480 -0.2054
 1474TIP3    H225914   0.253   3.792  17.192 -0.6709 -0.6764 -0.5281
 1475TIP3   OH225915   5.649   4.316   1.658  0.2826 -0.5895 -0.1440
 1475TIP3    H125916   5.572   4.326   1.714  0.9081 -0.8311  0.7713
 1475TIP3    H225917   5.690   4.235   1.686 -0.4827 -1.8281 -2.3233
 1476TIP3   OH225918   6.145   4.047  13.221 -0.5303  0.3659  0.7506
 1476TIP3    H125919   6.177   4.123  13.269 -0.5940  0.3504  0.8169
 1476TIP3    H225920   6.171   4.064  13.130 -0.1683  0.2641  0.8320
 1477TIP3   OH225921   0.854   2.899   4.940 -0.5028 -0.1801  1.1175
 1477TIP3    H125922   0.876   2.866   4.853 -2.0961 -0.7431  0.8927
 1477TIP3    H225923   0.858   2.822   4.996 -0.0331  0.0763  1.4391
 1478TIP3   OH225924   4.583   6.582  12.999 -0.3789  0.3036 -0.5056
 1478TIP3    H125925   4.647   6.651  12.980  0.4311 -0.1919  0.3243
 1478TIP3    H225926   4.544   6.609  13.082 -0.5678  0.1268 -0.5374
 1479TIP3   OH225927   4.005   4.461  15.715  0.0925 -0.0334  0.3494
 1479TIP3    H125928   4.076   4.415  15.759  0.5300 -0.2020 -0.5153
 1479TIP3    H225929   4.047   4.539  15.677  0.3809 -1.3172 -2.2095
 1480TIP3   OH225930   4.282   4.189  15.377  0.3074 -0.2018  0.3656
 1480TIP3    H125931   4.233   4.271  15.385  0.0541 -0.3178  0.0254
 1480TIP3    H225932   4.217   4.120  15.393  0.5493 -0.3314  0.7866
 1481TIP3   OH225933   1.579   0.998  14.872  0.0492  1.2081  0.2868
 1481TIP3    H125934   1.565   0.959  14.958  0.8050  2.3041  0.9192
 1481TIP3    H225935   1.495   1.037  14.849 -0.4334  0.0735  0.0805
 1482TIP3   OH225936   5.212   4.092   5.506 -0.3971 -0.0958  0.0116
 1482TIP3    H125937   5.235   4.179   5.475  0.8955 -0.2897  0.3644
 1482TIP3    H225938   5.246   4.088   5.596  0.3499 -1.2379 -0.2909
 1483TIP3   OH225939   3.948   4.443   2.908 -0.5283  0.3952 -0.4318
 1483TIP3    H125940   3.905   4.382   2.968 -2.1466 -0.7106 -2.5921
 1483TIP3    H225941   4.028   4.398   2.880  0.9489  1.4509  1.7206
 1484TIP3   OH225942   4.899   1.680  14.857 -0.2393 -0.3056 -0.0109
 1484TIP3    H125943   4.890   1.720  14.771  1.5784  2.7079  0.9967
 1484TIP3    H225944   4.811   1.682  14.894 -0.7512 -0.0978 -1.1906
 1485TIP3   OH225945   3.353   2.981  15.022  0.2105  0.2401 -0.0600
 1485TIP3    H125946   3.275   3.016  15.067  0.2971 -1.2879  1.4097
 1485TIP3    H225947   3.426   3.031  15.059  0.0628  0.7203 -0.4048
 1486TIP3   OH225948   6.677   0.280  11.933  0.1063  0.6736 -0.2782
 1486TIP3    H125949   6.753   0.337  11.918  0.3786  0.0664 -1.3212
 1486TIP3    H225950   6.704   0.221  12.004 -0.4841  2.3369  1.4230
 1487TIP3   OH225951   6.429   0.342   2.219 -0.2963 -0.3231 -0.3227
 1487TIP3    H125952   6.491   0.298   2.277  0.3335 -0.5944 -1.1733
 1487TIP3    H225953   6.349   0.289   2.225  0.0422 -0.8486 -0.3475
 1488TIP3   OH225954   2.267   0.994  15.678  0.2001 -0.8415 -1.1624
 1488TIP3    H125955   2.191   1.045  15.706  0.1404 -0.4678 -1.9826
 1488TIP3    H225956   2.230   0.924  15.624  0.5387  0.3191 -2.9766
 1489TIP3   OH225957   0.990   5.316  12.121  0.6219  0.0788  0.0709
 1489TIP3    H125958   1.033   5.344  12.040 -1.0098 -2.4384 -1.8052
 1489TIP3    H225959   1.060   5.318  12.187  2.4052  0.7484 -1.7297
 1490TIP3   OH225960   4.155   3.133  11.502 -0.6463  0.1389 -0.0641
 1490TIP3    H125961   4.063   3.136  11.475 -0.0065 -0.2235 -2.5827
 1490TIP3    H225962   4.193   3.212  11.466  0.0249  0.3759  1.1140
 1491TIP3   OH225963   6.345   3.845   3.126 -0.0568  0.5004  0.2365
 1491TIP3    H125964   6.274   3.857   3.188 -0.2560  1.9903 -0.2542
 1491TIP3    H225965   6.302   3.832   3.041  0.2307 -0.8339  0.2592
 1492TIP3   OH225966   4.719   2.358   4.497  0.2995  0.1277  0.5167
 1492TIP3    H125967   4.670   2.282   4.531  0.7917 -0.5731 -0.3109
 1492TIP3    H225968   4.759   2.397   4.575  0.0095 -0.4383  0.9581
 1493TIP3   OH225969   2.999   3.110   3.544  0.1187 -0.2713  0.4281
 1493TIP3    H125970   2.944   3.160   3.606 -0.1961 -1.0355  0.7823
 1493TIP3    H225971   2.949   3.110   3.463 -0.6521 -1.3496  0.8747
 1494TIP3   OH225972   2.106   0.953  12.636 -0.0946 -0.0779 -0.7419
 1494TIP3    H125973   2.161   1.030  12.644  0.9568 -0.9595  1.6905
 1494TIP3    H225974   2.167   0.881  12.617 -0.2579 -1.0450  1.8707
 1495TIP3   OH225975   5.890   1.461   3.031 -0.6606  0.2082 -0.0695
 1495TIP3    H125976   5.980   1.435   3.052 -0.1345  0.9793 -1.2378
 1495TIP3    H225977   5.848   1.381   3.000  0.4141  0.3167 -1.9609
 1496TIP3   OH225978   2.633   3.913  12.665  0.9882 -0.4665  0.6027
 1496TIP3    H125979   2.713   3.958  12.692  0.7990 -0.8163  1.7795
 1496TIP3    H225980   2.610   3.858  12.740  1.3308 -2.6945 -0.8100
 1497TIP3   OH225981   4.647   5.378  11.220  0.2202 -0.2201  0.1171
 1497TIP3    H125982   4.709   5.441  11.258 -0.4713  0.0607  0.8043
 1497TIP3    H225983   4.561   5.418  11.234 -0.3688 -1.9884  1.9372
 1498TIP3   OH225984   6.092   1.198  12.120 -0.6194  0.0562  0.2354
 1498TIP3    H125985   6.121   1.213  12.210 -2.4286  2.5499  0.5063
 1498TIP3    H225986   6.056   1.110  12.121  0.7105 -0.5204  1.5475
 1499TIP3   OH225987   4.962   0.890   2.430 -0.4579  0.3086  0.5437
 1499TIP3    H125988   5.016   0.834   2.374  1.6219  1.7196  1.0201
 1499TIP3    H225989   4.932   0.832   2.500  0.1967 -0.5844  0.1074
 1500TIP3   OH225990   6.452   2.095  12.463 -0.2841  0.1067 -0.3062
 1500TIP3    H125991   6.466   2.162  12.396 -1.4991 -0.3605 -1.0756
 1500TIP3    H225992   6.463   2.012  12.416 -1.2203 -0.2238  0.0393
 1501TIP3   OH225993   1.228   5.499  11.501  0.0960  0.8080 -0.1439
 1501TIP3    H125994   1.318   5.475  11.478  0.6543  0.5875  2.0647
 1501TIP3    H225995   1.231   5.594  11.513 -0.3488  1.0182 -1.4902
 1502TIP3   OH225996   4.993   4.103  13.180 -0.3068 -0.1633 -0.3868
 1502TIP3    H125997   5.079   4.103  13.138 -0.3684 -0.8716 -0.5244
 1502TIP3    H225998   4.931   4.096  13.107 -0.6762  3.4146 -0.5879
 1503TIP3   OH225999   6.643   5.204  16.166 -0.2152  0.0964 -0.0224
 1503TIP3    H126000   6.716   5.252  16.205 -0.3499  0.6527 -0.4483
 1503TIP3    H226001   6.658   5.209  16.072 -0.6107 -0.0945 -0.0986
 1504TIP3   OH226002   6.548   0.795  16.128 -0.0673 -0.6639 -0.4792
 1504TIP3    H126003   6.616   0.858  16.103  0.7103 -0.5099  1.7946
 1504TIP3    H226004   6.476   0.849  16.159 -0.5223 -0.8614 -1.1813
 1505TIP3   OH226005   0.226   2.387  13.059 -0.1553 -0.0383  0.0593
 1505TIP3    H126006   0.192   2.338  13.134 -0.9349  1.3701  0.6427
 1505TIP3    H226007   0.293   2.445  13.096 -1.6737  1.8436 -0.0177
 1506TIP3   OH226008   5.901   0.239  16.860 -0.1630 -0.5930 -0.3132
 1506TIP3    H126009   5.810   0.253  16.888  0.2459 -0.6803  1.1149
 1506TIP3    H226010   5.949   0.312  16.899  0.3720 -0.4409 -1.2205
 1507TIP3   OH226011   5.139   0.575   6.240 -0.5299  0.1840  0.4401
 1507TIP3    H126012   5.063   0.582   6.183 -0.5103  0.6783  0.4698
 1507TIP3    H226013   5.149   0.663   6.277 -1.9780 -0.6589  3.0751
 1508TIP3   OH226014   6.348   1.293  12.941 -0.2273 -0.4181 -0.0605
 1508TIP3    H126015   6.369   1.367  12.997  0.5530 -0.0943 -0.7725
 1508TIP3    H226016   6.270   1.254  12.981 -1.6604  1.7650 -0.5807
 1509TIP3   OH226017   1.730   2.180  12.903  0.2536 -1.0439  0.2131
 1509TIP3    H126018   1.776   2.149  12.826 -0.3924 -0.1830 -0.5432
 1509TIP3    H226019   1.663   2.113  12.920  0.2970 -1.1582 -0.0658
 1510TIP3   OH226020   3.282   1.820   3.519 -0.6881  0.0911  0.7555
 1510TIP3    H126021   3.287   1.843   3.612 -0.5710 -0.0669  0.7877
 1510TIP3    H226022   3.246   1.731   3.518  0.0857 -0.2239  0.6837
 1511TIP3   OH226023   6.502   0.483  11.737  0.2285  0.2651  0.0834
 1511TIP3    H126024   6.502   0.459  11.830 -1.8315  0.5400  0.1951
 1511TIP3    H226025   6.497   0.578  11.737 -0.2880  0.2419 -0.2951
 1512TIP3   OH226026   5.113   3.822   0.802 -0.0080  0.2657  0.2234
 1512TIP3    H126027   5.139   3.770   0.879  0.1317  2.6472  1.8998
 1512TIP3    H226028   5.056   3.890   0.837 -0.6551  0.9272 -1.9566
 1513TIP3   OH226029   4.587   4.582  13.772 -0.3635  0.2406 -0.2600
 1513TIP3    H126030   4.533   4.619  13.841  1.4766  1.9220  0.3570
 1513TIP3    H226031   4.639   4.514  13.816 -0.1002  0.4461 -0.2469
 1514TIP3   OH226032   1.996   5.464   2.091 -0.2229  0.0160 -0.2274
 1514TIP3    H126033   1.953   5.493   2.011 -1.7497  0.9178  0.8489
 1514TIP3    H226034   2.011   5.544   2.141  1.9808 -0.3775 -0.1692
 1515TIP3   OH226035   6.698   5.877  12.935 -0.8735 -0.2366  0.2081
 1515TIP3    H126036   6.698   5.908  13.026 -2.6259 -0.8973  0.4720
 1515TIP3    H226037   6.622   5.819  12.930 -1.3523  0.5037 -1.9385
 1516TIP3   OH226038   1.013   2.147   1.877 -0.1235  0.0989 -0.3922
 1516TIP3    H126039   0.925   2.158   1.913 -0.8719 -0.4423 -1.9711
 1516TIP3    H226040   1.001   2.150   1.782  1.5633 -0.0471 -0.6453
 1517TIP3   OH226041   5.880   0.822  11.105 -0.4068  0.0574  0.3019
 1517TIP3    H126042   5.929   0.741  11.116 -1.6320 -0.5743  1.3676
 1517TIP3    H226043   5.821   0.805  11.031 -0.4554  0.0959  0.3328
 1518TIP3   OH226044   0.166   3.383   4.316 -0.6038  0.4567 -0.1379
 1518TIP3    H126045   0.121   3.455   4.271 -0.3978 -0.6291 -2.2183
 1518TIP3    H226046   0.100   3.347   4.376 -0.9771  1.7895  0.2802
 1519TIP3   OH226047   4.128   2.675  11.689  0.6838 -0.1931  0.2497
 1519TIP3    H126048   4.178   2.689  11.608  0.5587 -0.0279  0.2005
 1519TIP3    H226049   4.038   2.660  11.660  0.3904  1.1055  0.4114
 1520TIP3   OH226050   6.401   3.742  15.293 -0.7660 -0.2435  0.3356
 1520TIP3    H126051   6.406   3.660  15.342 -1.5026 -1.0565 -0.9047
 1520TIP3    H226052   6.333   3.728  15.227 -0.3202  1.0604 -0.4632
 1521TIP3   OH226053   5.089   1.070   4.534  0.2256  0.3944 -0.4088
 1521TIP3    H126054   5.147   1.116   4.473  2.0722 -1.2054  0.0525
 1521TIP3    H226055   5.135   1.074   4.618 -0.6143 -0.4195  0.1060
 1522TIP3   OH226056   5.098   0.949  14.683 -0.2733  0.6017  0.1342
 1522TIP3    H126057   5.117   1.002  14.606  0.2280 -1.5044 -1.2702
 1522TIP3    H226058   5.162   0.878  14.680 -1.4709 -0.5986  1.3994
 1523TIP3   OH226059   4.469   1.315  11.548  0.0247 -0.3189  0.4095
 1523TIP3    H126060   4.422   1.265  11.481  1.2478  0.4392 -1.1033
 1523TIP3    H226061   4.557   1.276  11.549  0.8671  1.4227 -0.4728
 1524TIP3   OH226062   5.661   0.542  16.419 -0.0552 -0.2922  0.5310
 1524TIP3    H126063   5.636   0.602  16.348  1.7157  1.1029  1.0039
 1524TIP3    H226064   5.683   0.600  16.492 -1.7113 -1.6975  2.2276
 1525TIP3   OH226065   4.720   1.919  11.265 -0.5251 -0.1526 -0.0833
 1525TIP3    H126066   4.735   1.904  11.172  1.0883 -0.5674  0.2095
 1525TIP3    H226067   4.738   1.834  11.306 -0.4993  0.2086  0.6731
 1526TIP3   OH226068   5.622   4.332   1.977 -0.1592 -0.0769  0.3588
 1526TIP3    H126069   5.646   4.246   1.943 -3.0794  0.1321 -2.6821
 1526TIP3    H226070   5.561   4.314   2.048  0.6279 -0.4812  0.9471
 1527TIP3   OH226071   6.125   0.185   0.819 -0.5815  0.7187 -0.8019
 1527TIP3    H126072   6.153   0.205   0.908 -0.3147  1.2117 -0.9970
 1527TIP3    H226073   6.199   0.137   0.780 -1.4979 -1.4159 -0.0923
 1528TIP3   OH226074   1.946   6.550   2.725  0.3248  0.4418 -0.4518
 1528TIP3    H126075   1.949   6.458   2.697  1.6586  0.6013 -0.8942
 1528TIP3    H226076   1.889   6.549   2.802 -0.3302 -0.6211 -0.9143
 1529TIP3   OH226077   2.459   0.469   0.403  0.0431  0.7093 -0.3628
 1529TIP3    H126078   2.374   0.504   0.374  0.6480  1.2538 -1.5847
 1529TIP3    H226079   2.519   0.493   0.332  1.7884  2.6808  1.6389
 1530TIP3   OH226080   2.057   1.626   3.056  0.6247 -0.0870  0.1995
 1530TIP3    H126081   2.137   1.612   3.006  0.2641  0.3490 -0.5125
 1530TIP3    H226082   1.987   1.623   2.991 -0.1270 -2.0522  0.9915
 1531TIP3   OH226083   1.670   4.798   5.220  0.8035 -1.1891 -0.8843
 1531TIP3    H126084   1.750   4.813   5.171  0.9012 -1.4404 -0.8017
 1531TIP3    H226085   1.698   4.753   5.300  1.0421  1.8735  0.9016
 1532TIP3   OH226086   6.446   4.875   2.749  0.1895  0.0527  0.1767
 1532TIP3    H126087   6.403   4.827   2.819 -0.6501 -0.1162 -0.4321
 1532TIP3    H226088   6.422   4.827   2.669  1.2955  0.1141 -0.2104
 1533TIP3   OH226089   1.457   3.538   5.683 -0.1172  0.2008  0.1364
 1533TIP3    H126090   1.461   3.537   5.779 -0.4787  1.1460  0.1741
 1533TIP3    H226091   1.364   3.543   5.663 -0.3958 -3.5597 -0.3699
 1534TIP3   OH226092   5.375   0.184   0.231 -0.2757  0.6338  0.7629
 1534TIP3    H126093   5.328   0.105   0.204  2.1109 -1.2090  1.5507
 1534TIP3    H226094   5.316   0.228   0.291 -2.4031  0.4593 -1.0788
 1535TIP3   OH226095   1.353   6.280   6.079 -0.5419  0.1742  0.2132
 1535TIP3    H126096   1.302   6.296   5.999  0.1500 -0.9509 -0.4929
 1535TIP3    H226097   1.441   6.258   6.047 -0.3561 -0.6803  1.2596
 1536TIP3   OH226098   2.762   3.578   1.594  0.2365 -0.5430  0.3257
 1536TIP3    H126099   2.685   3.623   1.629  0.0092 -0.0143 -0.8014
 1536TIP3    H226100   2.740   3.561   1.502  1.5023 -0.3131 -0.0399
 1537TIP3   OH226101   4.051   2.589  16.340  0.0268  0.1087  0.9457
 1537TIP3    H126102   3.986   2.653  16.310 -1.0703 -1.5720 -0.4520
 1537TIP3    H226103   4.130   2.610  16.291 -0.5537 -0.0667 -0.0900
 1538TIP3   OH226104   4.365   1.924   3.596 -0.4007 -0.4125  0.2128
 1538TIP3    H126105   4.315   1.893   3.672 -0.5083  0.9070  0.7045
 1538TIP3    H226106   4.450   1.950   3.632 -0.4269  0.1591 -0.1247
 1539TIP3   OH226107   0.624   5.055   3.529 -0.2369 -0.8952  0.6239
 1539TIP3    H126108   0.616   5.150   3.538  0.8165 -0.5082 -1.7405
 1539TIP3    H226109   0.535   5.026   3.509  0.0428  0.3218 -3.2491
 1540TIP3   OH226110   5.277   4.887   5.795  0.1764 -0.1635 -0.4624
 1540TIP3    H126111   5.272   4.956   5.861 -1.1194  1.6299 -2.2995
 1540TIP3    H226112   5.353   4.911   5.742 -0.7167  0.3405 -1.5597
 1541TIP3   OH226113   3.456   6.430   1.010 -0.2679 -0.4908  0.3577
 1541TIP3    H126114   3.488   6.421   0.920  1.5932  1.5309  0.7566
 1541TIP3    H226115   3.523   6.390   1.064 -0.5884 -0.2258  0.9635
 1542TIP3   OH226116   1.938   0.212   6.079  0.1406  0.2937 -0.2728
 1542TIP3    H126117   2.003   0.264   6.125 -0.4591  0.9814 -0.1962
 1542TIP3    H226118   1.872   0.191   6.145  0.0904 -0.0888 -0.4390
 1543TIP3   OH226119   0.272   1.354  12.849  0.6628 -0.0261  0.5512
 1543TIP3    H126120   0.351   1.338  12.796  0.0165 -0.3512 -0.3417
 1543TIP3    H226121   0.298   1.330  12.938  1.6472  0.1112  0.3169
 1544TIP3   OH226122   2.317   1.209  13.340  0.3507 -0.5526 -0.2792
 1544TIP3    H126123   2.289   1.279  13.281  0.7523 -0.6828 -0.6312
 1544TIP3    H226124   2.294   1.129  13.294 -0.7572 -0.6718  0.4321
 1545TIP3   OH226125   1.057   1.447   0.883 -0.0220 -0.1865 -0.1079
 1545TIP3    H126126   0.981   1.441   0.824  0.0380  1.2791 -0.3725
 1545TIP3    H226127   1.041   1.526   0.935  1.9271  0.9405 -1.0882
 1546TIP3   OH226128   5.244   2.088   5.935 -0.3097  0.0885 -0.5587
 1546TIP3    H126129   5.214   2.023   5.871  1.0866  1.7086 -3.0228
 1546TIP3    H226130   5.302   2.039   5.993 -0.7590 -1.2362 -1.1858
 1547TIP3   OH226131   1.077   6.515  10.471 -0.1723 -0.7455  0.3645
 1547TIP3    H126132   1.095   6.452  10.402  1.7709  1.0404 -0.8797
 1547TIP3    H226133   1.083   6.464  10.552  0.2561 -2.3530 -0.6373
 1548TIP3   OH226134   1.225   2.309  11.482 -0.4207  0.7545 -0.1687
 1548TIP3    H126135   1.276   2.241  11.526 -0.4946 -1.7537 -3.5740
 1548TIP3    H226136   1.135   2.295  11.512 -0.0766  1.0221  1.0225
 1549TIP3   OH226137   6.178   5.680   0.375 -0.1322 -0.0499  0.3607
 1549TIP3    H126138   6.116   5.623   0.419 -0.8264  0.8654  0.5984
 1549TIP3    H226139   6.208   5.741   0.443  1.4618 -0.8095  0.3941
 1550TIP3   OH226140   5.122   6.009  12.219  0.1309  0.0265 -0.3636
 1550TIP3    H126141   5.061   5.996  12.146 -1.6414  1.0410  0.8381
 1550TIP3    H226142   5.209   6.010  12.179 -0.6464 -1.2347 -2.1900
 1551TIP3   OH226143   4.038   5.449   1.456 -0.8222  0.2158 -0.3384
 1551TIP3    H126144   4.123   5.412   1.479 -0.8273 -0.4423 -1.3270
 1551TIP3    H226145   4.030   5.527   1.511  0.0909 -0.1240  0.2915
 1552TIP3   OH226146   0.030   5.925  14.887  0.0220 -0.1660  0.4302
 1552TIP3    H126147  -0.055   5.925  14.843  0.1329  2.6196  0.0585
 1552TIP3    H226148   0.090   5.884  14.824 -0.6854 -0.4549 -0.0636
 1553TIP3   OH226149   4.987   6.630   3.013 -0.0414  0.5198 -0.1558
 1553TIP3    H126150   4.922   6.679   2.963 -0.0458  0.9651  0.2748
 1553TIP3    H226151   5.020   6.693   3.077  0.2836  0.0882  0.1056
 1554TIP3   OH226152   3.743   1.846  12.989 -0.0595 -0.1275 -0.2484
 1554TIP3    H126153   3.780   1.898  13.060 -0.7594  0.4630 -0.3019
 1554TIP3    H226154   3.683   1.906  12.944 -0.2010 -0.7174 -0.8650
 1555TIP3   OH226155   4.959   1.043  11.218  0.2182  0.1287 -0.9100
 1555TIP3    H126156   4.964   0.966  11.161  0.2671  0.2143 -1.0215
 1555TIP3    H226157   5.051   1.069  11.229  0.1275  0.9369 -1.9084
 1556TIP3   OH226158   2.863   2.350   1.145 -0.1998 -0.2800 -0.3800
 1556TIP3    H126159   2.862   2.336   1.050 -0.2498  0.9639 -0.5803
 1556TIP3    H226160   2.953   2.374   1.165 -0.8006  2.4663 -0.6229
 1557TIP3   OH226161   5.344   0.129   6.220 -0.1417  0.9715  0.0650
 1557TIP3    H126162   5.371   0.130   6.312 -0.8652  1.1246  0.2771
 1557TIP3    H226163   5.249   0.135   6.222 -0.3341 -0.9932 -0.6416
 1558TIP3   OH226164   2.339   5.687   4.880 -0.3315 -0.7079 -0.5829
 1558TIP3    H126165   2.381   5.643   4.954  0.6631  1.3805  0.1852
 1558TIP3    H226166   2.265   5.733   4.919  2.0367  3.1057 -0.0585
 1559TIP3   OH226167   1.810   4.726   5.986  0.3089  0.0593  0.7824
 1559TIP3    H126168   1.882   4.736   5.924 -0.2693  0.2479  0.1231
 1559TIP3    H226169   1.850   4.688   6.064  1.4148  1.5692  1.0041
 1560TIP3   OH226170   2.323   6.255  16.762 -0.1059  0.4067 -0.9702
 1560TIP3    H126171   2.386   6.215  16.822 -0.1720 -1.4281 -2.0570
 1560TIP3    H226172   2.288   6.329  16.810 -1.8558 -2.2667  2.2154
 1561TIP3   OH226173   2.976   3.440   3.092  0.0525 -0.0169 -0.8123
 1561TIP3    H126174   2.901   3.436   3.033  0.9965  1.8337 -2.2639
 1561TIP3    H226175   2.952   3.506   3.158 -0.4857 -1.1344  0.1378
 1562TIP3   OH226176   4.167   3.358  17.079  0.6801  0.1613 -0.0182
 1562TIP3    H126177   4.186   3.265  17.064 -0.9268  0.1654 -2.8643
 1562TIP3    H226178   4.084   3.357  17.128  1.4700  0.1577  1.3790
 1563TIP3   OH226179   2.670   6.046   1.292  0.0827  0.4510  0.2047
 1563TIP3    H126180   2.597   6.100   1.323  0.1972 -0.2701  1.8131
 1563TIP3    H226181   2.749   6.094   1.320  0.2227  0.5854 -0.4002
 1564TIP3   OH226182   1.827   6.348  14.950 -0.7733 -0.0552 -0.2678
 1564TIP3    H126183   1.788   6.370  14.865 -1.1231 -1.2358 -0.4241
 1564TIP3    H226184   1.799   6.258  14.967  1.5807 -0.8620 -0.2306
 1565TIP3   OH226185   1.760   0.924   4.333 -0.5703  0.2311 -0.0996
 1565TIP3    H126186   1.775   0.928   4.239  0.5723 -1.6752 -0.0556
 1565TIP3    H226187   1.827   0.981   4.371 -0.5619  0.4313 -0.4176
 1566TIP3   OH226188   2.971   1.666  13.096 -0.6419 -0.3985  0.3518
 1566TIP3    H126189   2.962   1.746  13.148 -1.1170 -0.2935  0.1202
 1566TIP3    H226190   3.065   1.651  13.089 -0.5630 -0.0557  0.6982
 1567TIP3   OH226191   5.595   2.921  12.051  0.2643 -0.4059 -0.0334
 1567TIP3    H126192   5.666   2.941  11.990  1.4918  0.1932  1.5379
 1567TIP3    H226193   5.618   2.835  12.086  0.1181 -0.2919  0.3433
 1568TIP3   OH226194   1.593   6.689   2.290  0.3906  0.1315  0.1895
 1568TIP3    H126195   1.621   6.636   2.365 -1.4739  0.2245  1.0269
 1568TIP3    H226196   1.498   6.696   2.301  0.2114  1.0314 -1.6347
 1569TIP3   OH226197   5.133   3.665  17.256 -1.3542  0.5774  0.0160
 1569TIP3    H126198   5.065   3.705  17.310 -1.3603  3.5556 -1.9625
 1569TIP3    H226199   5.212   3.715  17.276 -0.5106 -0.6439 -0.1517
 1570TIP3   OH226200   2.070   4.409   5.053  0.0518  0.0257 -0.0558
 1570TIP3    H126201   1.989   4.431   5.006 -0.1295  0.8408  0.6075
 1570TIP3    H226202   2.040   4.369   5.135  0.2699  1.1817  0.6167
 1571TIP3   OH226203   2.003   1.484  13.420 -0.4716 -0.3002 -0.0168
 1571TIP3    H126204   1.960   1.560  13.458 -1.8790 -1.3893  0.6730
 1571TIP3    H226205   2.028   1.430  13.495  2.3429  0.3322 -0.3670
 1572TIP3   OH226206   0.924   4.982   2.035  0.1649  0.1856  0.5381
 1572TIP3    H126207   0.844   4.929   2.036  1.0559 -1.3213 -1.2428
 1572TIP3    H226208   0.984   4.934   2.092  0.6322 -0.1726 -0.2380
 1573TIP3   OH226209   2.406   6.796   2.327 -0.7559  0.0852 -0.0346
 1573TIP3    H126210   2.328   6.825   2.373  0.7927  2.4488  1.3331
 1573TIP3    H226211   2.447   6.733   2.388 -1.1538 -0.5362 -0.3964
 1574TIP3   OH226212   2.878   2.261  14.937  1.0687 -0.3098 -0.6561
 1574TIP3    H126213   2.958   2.249  14.886 -0.0324  0.0968 -2.5769
 1574TIP3    H226214   2.807   2.257  14.872 -0.4648 -0.4429  0.9486
 1575TIP3   OH226215   5.129   0.009  12.170 -0.0934 -0.0418  0.1456
 1575TIP3    H126216   5.070  -0.039  12.112 -2.6433  2.1144  0.7170
 1575TIP3    H226217   5.193   0.049  12.112 -0.4150 -0.8282 -0.7710
 1576TIP3   OH226218   3.044   2.479  11.568  0.1239  0.2840 -0.3838
 1576TIP3    H126219   3.021   2.394  11.606 -1.4622  0.4674 -0.8504
 1576TIP3    H226220   3.090   2.525  11.638 -0.1475 -0.4789  0.3070
 1577TIP3   OH226221   1.088   3.217  12.965 -0.5236  0.1677  0.3619
 1577TIP3    H126222   1.075   3.133  13.008 -0.3958 -1.4126 -2.4093
 1577TIP3    H226223   1.158   3.201  12.902  0.1147  2.6335  0.3568
 1578TIP3   OH226224   4.471   4.042   1.863  0.8923 -0.1686  0.0479
 1578TIP3    H126225   4.508   3.986   1.931  1.3953  2.2818  1.9644
 1578TIP3    H226226   4.417   3.984   1.810  2.0935 -2.5818  1.2987
 1579TIP3   OH226227   0.363   2.025  16.012  0.1859  0.3400 -0.3735
 1579TIP3    H126228   0.326   1.987  15.933  0.0707 -0.4818  0.0676
 1579TIP3    H226229   0.290   2.031  16.073  0.7458 -1.4630  0.5671
 1580TIP3   OH226230   1.981   0.059   0.136  0.2015  0.0876  0.6487
 1580TIP3    H126231   1.907   0.089   0.084  1.8206  0.8477 -1.3773
 1580TIP3    H226232   1.962   0.088   0.225 -1.2662  1.4832 -0.0808
 1581TIP3   OH226233   3.970   4.104  14.298  0.4618  0.1921  0.0249
 1581TIP3    H126234   3.881   4.083  14.269  1.0992 -1.4950 -0.8755
 1581TIP3    H226235   3.965   4.101  14.394 -0.6702  1.2448  0.0310
 1582TIP3   OH226236   4.812   4.297  13.373  0.8534  0.4592  0.5843
 1582TIP3    H126237   4.889   4.350  13.395  1.8460 -0.8238  0.2972
 1582TIP3    H226238   4.831   4.260  13.287 -0.2907  0.4723  0.3060
 1583TIP3   OH226239   4.428   4.032  14.827  0.5317  0.3086 -0.6550
 1583TIP3    H126240   4.422   4.110  14.882  1.2192  0.3287 -0.6041
 1583TIP3    H226241   4.356   4.041  14.764 -1.8476 -0.8804  1.6788
 1584TIP3   OH226242   2.833   4.304   0.704  0.0223 -0.3205  0.5233
 1584TIP3    H126243   2.812   4.270   0.617 -0.6909 -0.0496  0.5820
 1584TIP3    H226244   2.762   4.273   0.760 -0.9556  1.6695  0.4659
 1585TIP3   OH226245   0.698   6.526  13.993 -0.4102  0.4359  0.0802
 1585TIP3    H126246   0.658   6.596  13.941 -1.2579  1.8860  2.5188
 1585TIP3    H226247   0.641   6.518  14.070  1.0574 -1.2223  1.0722
 1586TIP3   OH226248   1.078   4.132   4.926 -0.2966  0.3290  0.1382
 1586TIP3    H126249   1.148   4.172   4.875  0.8306 -1.1053  0.5150
 1586TIP3    H226250   1.075   4.041   4.897  0.9518 -0.7921  3.1155
 1587TIP3   OH226251   5.112   0.146  12.592  0.3521 -0.5181  0.2896
 1587TIP3    H126252   5.138   0.223  12.542 -0.8526  0.5992  1.3090
 1587TIP3    H226253   5.154   0.072  12.548 -0.2525  0.4674 -2.0510
 1588TIP3   OH226254   6.317   4.483  14.227 -0.2431  0.7255  0.1712
 1588TIP3    H126255   6.243   4.458  14.172  0.4298  1.3673 -1.0570
 1588TIP3    H226256   6.332   4.407  14.283 -0.6228 -0.1489 -0.8783
 1589TIP3   OH226257   5.435   0.698   2.546 -0.3612  0.2699 -0.3881
 1589TIP3    H126258   5.481   0.752   2.611 -1.0347 -0.1933  0.4992
 1589TIP3    H226259   5.349   0.683   2.584 -0.6273 -0.3589 -1.2130
 1590TIP3   OH226260   1.433   6.390  12.536 -0.1088 -0.0141 -0.0257
 1590TIP3    H126261   1.429   6.466  12.478 -2.5200  1.0761  1.3919
 1590TIP3    H226262   1.463   6.426  12.619  2.9546 -1.4876 -0.3669
 1591TIP3   OH226263   6.191   4.846   3.142 -0.0070 -0.3083  0.2790
 1591TIP3    H126264   6.178   4.899   3.221  0.7991  1.0182 -0.4332
 1591TIP3    H226265   6.118   4.871   3.085 -1.2978 -2.1646  1.0036
 1592TIP3   OH226266   5.908   0.934  11.758 -0.1146  0.1027 -0.1321
 1592TIP3    H126267   5.840   0.994  11.726 -0.1354  0.5015  0.6369
 1592TIP3    H226268   5.860   0.869  11.809  0.0101 -0.0140 -0.1644
 1593TIP3   OH226269   0.638   3.489  13.169  0.0071  0.4970 -0.2804
 1593TIP3    H126270   0.636   3.417  13.231  1.8847  0.0997 -0.6215
 1593TIP3    H226271   0.586   3.459  13.094 -0.6090  0.1861  0.2694
 1594TIP3   OH226272   1.785   3.034   1.283 -0.6112 -0.0103 -0.6479
 1594TIP3    H126273   1.737   2.952   1.270 -0.9693  0.3498 -1.6915
 1594TIP3    H226274   1.725   3.102   1.252 -0.6694  0.7417  1.0456
 1595TIP3   OH226275   5.627   1.060   2.850 -0.1373  0.1034 -0.3918
 1595TIP3    H126276   5.636   0.968   2.826  0.3494 -0.9292  3.1015
 1595TIP3    H226277   5.532   1.073   2.858 -0.1906 -1.1250  2.0496
 1596TIP3   OH226278   3.390   3.074  12.329  0.0082  0.2897 -0.4941
 1596TIP3    H126279   3.345   2.990  12.338  1.2606 -0.3975 -0.5124
 1596TIP3    H226280   3.331   3.137  12.372 -0.9164 -0.5854 -0.4315
 1597TIP3   OH226281   3.400   0.392   5.992 -0.3853  0.3644 -0.2016
 1597TIP3    H126282   3.355   0.327   6.047 -0.5721  1.1926  0.6539
 1597TIP3    H226283   3.491   0.363   5.990 -0.5093 -0.0446  0.0018
 1598TIP3   OH226284   3.035   1.814  15.861 -0.0253  0.3080 -0.1144
 1598TIP3    H126285   3.069   1.767  15.937 -0.6560 -0.5389 -0.3493
 1598TIP3    H226286   3.114   1.839  15.812  0.3101 -2.1717 -0.9777
 1599TIP3   OH226287   5.818   5.558   1.350  0.1951 -0.0878  0.5748
 1599TIP3    H126288   5.818   5.598   1.437 -2.2508 -2.9732  2.0898
 1599TIP3    H226289   5.902   5.512   1.345 -0.1229 -0.8755  1.9656
 1600TIP3   OH226290   4.426   5.914   1.241 -0.1449 -0.3829  0.2757
 1600TIP3    H126291   4.359   5.977   1.269 -0.7930  1.2401 -4.1365
 1600TIP3    H226292   4.381   5.829   1.245 -1.7922  0.3939 -0.4765
 1601TIP3   OH226293   1.937   6.075   2.289  0.1537 -0.2028  0.0393
 1601TIP3    H126294   1.990   6.054   2.213  0.0478 -0.6573  0.0867
 1601TIP3    H226295   1.988   6.043   2.364  1.5017  2.5597  0.4229
 1602TIP3   OH226296   3.541   6.512  13.701 -0.1402 -0.7915 -0.8444
 1602TIP3    H126297   3.632   6.537  13.689  0.2942 -2.1062 -0.3719
 1602TIP3    H226298   3.525   6.447  13.633 -0.3227 -1.5652 -0.0737
 1603TIP3   OH226299   2.651   3.510  17.254 -0.3086  0.2776 -0.0690
 1603TIP3    H126300   2.720   3.545  17.197 -1.0597  1.1240 -0.4991
 1603TIP3    H226301   2.579   3.490  17.194 -1.4884  2.1194  0.6385
 1604TIP3   OH226302   3.432   4.186  15.232  0.8211  0.5051  0.2628
 1604TIP3    H126303   3.526   4.201  15.247  0.6268  1.6297  0.4505
 1604TIP3    H226304   3.389   4.239  15.299  0.0125  1.9261 -1.2947
 1605TIP3   OH226305   3.646   6.020  13.758 -0.1430 -0.7416  0.3274
 1605TIP3    H126306   3.576   6.084  13.742  0.6090 -0.4637 -2.2022
 1605TIP3    H226307   3.611   5.937  13.726  1.3575 -0.1898 -3.2414
 1606TIP3   OH226308   6.290   5.747   3.902 -0.0483 -0.3376 -0.3321
 1606TIP3    H126309   6.344   5.684   3.949 -0.7888 -2.5529 -2.2346
 1606TIP3    H226310   6.214   5.761   3.958  0.7615 -0.0202  0.7214
 1607TIP3   OH226311   6.748   3.286   0.535  0.2185  0.3343  0.8940
 1607TIP3    H126312   6.698   3.321   0.609 -0.8113  0.6506  0.0830
 1607TIP3    H226313   6.777   3.200   0.563 -0.8947  0.1000  1.3588
 1608TIP3   OH226314   6.736   1.198   1.196 -0.1432  0.3164  0.2948
 1608TIP3    H126315   6.814   1.169   1.148 -1.1257 -2.3141  0.1436
 1608TIP3    H226316   6.754   1.175   1.287 -0.6241 -0.0886  0.2911
 1609TIP3   OH226317   1.664   5.419  15.298 -0.2817  0.3238 -0.4195
 1609TIP3    H126318   1.619   5.376  15.370 -0.9512  0.2603 -0.8623
 1609TIP3    H226319   1.603   5.411  15.224  0.2795  0.6147 -0.9188
 1610TIP3   OH226320   3.916   3.867   1.515 -0.4450 -0.1696  0.3690
 1610TIP3    H126321   3.932   3.941   1.574  1.1196 -0.9959  1.0664
 1610TIP3    H226322   4.004   3.837   1.492 -0.8908  1.0450 -3.6688
 1611TIP3   OH226323   0.939   2.913  15.061 -1.0186 -0.7659 -0.3461
 1611TIP3    H126324   0.904   3.000  15.041  0.0328  0.2849  2.0523
 1611TIP3    H226325   1.000   2.895  14.989 -1.8613  0.0852 -1.3144
 1612TIP3   OH226326   2.970   3.323   0.319 -0.3831 -0.2908  0.1113
 1612TIP3    H126327   2.967   3.323   0.223 -2.2683  0.5039  0.1272
 1612TIP3    H226328   3.017   3.404   0.341  0.2919 -0.6095 -0.1244
 1613TIP3   OH226329   0.363   3.456   3.436 -0.3900  0.1641 -0.1011
 1613TIP3    H126330   0.449   3.477   3.399 -0.5219  0.9525  0.0202
 1613TIP3    H226331   0.376   3.456   3.530 -0.4185 -0.1759 -0.0984
 1614TIP3   OH226332   0.825   1.484  15.415  0.4510  0.8246 -0.5197
 1614TIP3    H126333   0.862   1.404  15.454  1.9376  1.6763 -0.1104
 1614TIP3    H226334   0.790   1.455  15.330 -0.5550 -0.5672  0.3403
 1615TIP3   OH226335   6.655   6.534   0.243 -0.6653 -0.5176  0.6497
 1615TIP3    H126336   6.680   6.616   0.201  1.2742 -0.9545  0.8441
 1615TIP3    H226337   6.588   6.497   0.186 -3.0402  2.0610  1.5477
 1616TIP3   OH226338   2.995   5.807   4.732 -0.0758 -0.2028 -0.0488
 1616TIP3    H126339   3.059   5.878   4.743  1.4376 -1.2302 -1.6545
 1616TIP3    H226340   3.017   5.744   4.802 -1.7424  1.0465  1.6965
 1617TIP3   OH226341   5.832   2.518  16.592 -0.4910  0.1436 -0.4473
 1617TIP3    H126342   5.786   2.435  16.576 -0.5368  0.1771 -0.4873
 1617TIP3    H226343   5.860   2.546  16.505  1.3647 -0.8942 -0.2321
 1618TIP3   OH226344   4.062   6.294   6.591 -0.4543  0.2508 -0.2687
 1618TIP3    H126345   3.966   6.292   6.595 -0.5372  0.8202 -1.5068
 1618TIP3    H226346   4.085   6.222   6.534 -0.2323  0.9032 -1.0192
 1619TIP3   OH226347   4.483   2.845  16.315  0.8520 -0.4421  0.0538
 1619TIP3    H126348   4.561   2.900  16.312 -0.5561  1.6508 -0.4306
 1619TIP3    H226349   4.461   2.839  16.408  0.8897  0.0275  0.0957
 1620TIP3   OH226350   1.731   0.484   6.040  0.4876 -1.0473 -0.1868
 1620TIP3    H126351   1.809   0.428   6.046  0.1787 -1.5583 -0.8306
 1620TIP3    H226352   1.759   0.568   6.077  1.1147 -1.4600  0.3078
 1621TIP3   OH226353   6.571   3.662   3.005  0.2242 -0.1918  0.0235
 1621TIP3    H126354   6.510   3.713   3.058  1.1822 -0.7109  1.7274
 1621TIP3    H226355   6.537   3.573   3.007 -0.8904  0.1231 -2.0958
 1622TIP3   OH226356   2.325   6.135   1.808  0.0897 -0.0315 -0.0132
 1622TIP3    H126357   2.344   6.057   1.756 -0.7021 -1.0861  1.2146
 1622TIP3    H226358   2.245   6.170   1.769  0.1723 -0.1076 -0.2581
 1623TIP3   OH226359   2.728   5.911  11.939 -0.3556 -0.7913 -0.3864
 1623TIP3    H126360   2.733   5.820  11.970 -1.2896 -1.3667 -1.8433
 1623TIP3    H226361   2.817   5.931  11.911  0.2410 -0.6637  1.4589
 1624TIP3   OH226362   3.916   3.062   4.342 -0.2868 -0.4810  0.3701
 1624TIP3    H126363   3.995   3.033   4.387 -0.1988 -1.4394 -0.3625
 1624TIP3    H226364   3.844   3.024   4.391 -0.2971  0.3726  1.0245
 1625TIP3   OH226365   5.367   6.584   5.179  0.2828 -0.1413  0.3557
 1625TIP3    H126366   5.379   6.679   5.173  0.2246 -0.2348 -3.0099
 1625TIP3    H226367   5.272   6.573   5.192 -0.0125  0.3130 -1.1540
 1626TIP3   OH226368   2.661   4.562   4.678 -0.6600 -0.4933 -0.1100
 1626TIP3    H126369   2.565   4.562   4.673 -0.6436 -1.6463 -0.8412
 1626TIP3    H226370   2.689   4.528   4.593  0.2806 -3.3675  1.2179
 1627TIP3   OH226371   5.681   5.511  12.026 -0.7781 -0.0197  0.4826
 1627TIP3    H126372   5.605   5.562  12.053  0.6872  1.5706  1.8542
 1627TIP3    H226373   5.716   5.557  11.950 -0.2873  0.1668  0.8204
 1628TIP3   OH226374   3.321   2.153  15.764  0.1920  0.2689 -0.4283
 1628TIP3    H126375   3.375   2.216  15.811  0.7534  1.0398 -2.0124
 1628TIP3    H226376   3.254   2.206  15.722 -0.4166 -0.4149 -0.3361
 1629TIP3   OH226377   6.296   3.993  17.067 -0.3381 -0.5157  0.1857
 1629TIP3    H126378   6.356   4.066  17.081  1.0148 -1.4781 -0.3168
 1629TIP3    H226379   6.261   4.007  16.979  0.0702 -0.5572  0.0119
 1630TIP3   OH226380   3.994   2.860   4.638 -0.3874  0.2624 -0.0432
 1630TIP3    H126381   4.054   2.917   4.592  1.1846 -0.0507  1.5044
 1630TIP3    H226382   4.031   2.852   4.726 -1.1959 -2.1482  0.1578
 1631TIP3   OH226383   2.964   0.014  15.980 -0.1499  0.0527 -0.0765
 1631TIP3    H126384   2.981   0.095  16.027  2.4999 -0.4813  0.0359
 1631TIP3    H226385   2.869   0.005  15.982 -0.7273  3.8497 -1.3235
 1632TIP3   OH226386   0.969   4.125   4.453 -0.2165 -0.4634 -0.0766
 1632TIP3    H126387   0.979   4.212   4.492 -0.6415 -1.4656  2.4816
 1632TIP3    H226388   0.933   4.142   4.366 -1.2287  1.9000  0.7122
 1633TIP3   OH226389   4.963   2.733   1.017 -0.2338 -0.6802 -0.1027
 1633TIP3    H126390   4.881   2.723   0.969 -1.4786 -2.3414  2.1847
 1633TIP3    H226391   5.017   2.659   0.988 -1.1144 -1.8813  1.2111
 1634TIP3   OH226392   3.569   2.139   2.141  0.2833  0.0924  0.1041
 1634TIP3    H126393   3.496   2.109   2.088 -0.1321  0.2975  0.5497
 1634TIP3    H226394   3.621   2.193   2.082  0.0043  0.0523 -0.1816
 1635TIP3   OH226395   4.658   1.745  15.585  0.7597 -0.0945  0.0310
 1635TIP3    H126396   4.612   1.673  15.541  0.5136 -0.1994  0.4503
 1635TIP3    H226397   4.682   1.805  15.515  1.7829 -1.0311 -0.4505
 1636TIP3   OH226398   0.454   1.574  10.728 -0.2778  0.7675 -0.0033
 1636TIP3    H126399   0.451   1.529  10.643  0.5869 -2.7297  1.6378
 1636TIP3    H226400   0.365   1.566  10.762 -0.4799  1.6629 -0.2900
 1637TIP3   OH226401   5.776   1.447   5.633 -0.2089 -0.0892  0.4047
 1637TIP3    H126402   5.715   1.425   5.703  0.1095 -0.9414  0.4206
 1637TIP3    H226403   5.779   1.543   5.633  0.6669 -0.0743  2.3119
 1638TIP3   OH226404   3.541   5.407   4.596  0.7064 -0.4286  0.3712
 1638TIP3    H126405   3.607   5.448   4.540  0.3814  1.7597  1.4721
 1638TIP3    H226406   3.547   5.455   4.678 -0.9973 -1.4259  1.1252
 1639TIP3   OH226407   6.369   6.596   4.937  0.2238 -0.0078 -0.1000
 1639TIP3    H126408   6.281   6.634   4.937  0.5224  0.7935 -1.7120
 1639TIP3    H226409   6.424   6.662   4.980  0.4135  0.5968 -1.2166
 1640TIP3   OH226410   2.863   0.282  16.368  0.1660 -0.3778 -0.1358
 1640TIP3    H126411   2.945   0.331  16.375  0.3178 -0.5672 -0.5447
 1640TIP3    H226412   2.805   0.323  16.432 -0.3680  1.6520 -1.8170
 1641TIP3   OH226413   3.450   0.085   3.171 -0.0035  0.2859  0.2024
 1641TIP3    H126414   3.377   0.053   3.224 -0.1888 -2.1721 -1.3768
 1641TIP3    H226415   3.527   0.041   3.207  0.5675  1.9268  1.0865
 1642TIP3   OH226416   5.958   0.486   5.122  0.1743  0.0424 -0.0754
 1642TIP3    H126417   5.864   0.485   5.141  0.2257 -1.4196  0.2224
 1642TIP3    H226418   5.996   0.424   5.185  1.1755 -0.2970 -0.9787
 1643TIP3   OH226419   0.564   0.016  12.732 -0.6851 -0.4317  0.6401
 1643TIP3    H126420   0.579  -0.074  12.761  0.9194 -0.0114  1.2611
 1643TIP3    H226421   0.626   0.068  12.785 -0.8790  0.9021 -0.4046
 1644TIP3   OH226422   1.839   4.297  14.976  0.6502 -0.3747 -0.3584
 1644TIP3    H126423   1.863   4.224  14.919  1.1293 -0.5865  0.0991
 1644TIP3    H226424   1.755   4.327  14.942  0.8997 -0.5227 -1.1457
 1645TIP3   OH226425   3.727   3.712  14.607  0.3836  0.1341 -0.6546
 1645TIP3    H126426   3.714   3.736  14.699  1.0448 -1.6586 -0.0566
 1645TIP3    H226427   3.642   3.728  14.566 -0.3410 -0.3582  0.5928
 1646TIP3   OH226428   1.715   0.299  15.335  0.4926  0.1569  0.2069
 1646TIP3    H126429   1.804   0.267  15.317  0.8694  0.4968  1.4028
 1646TIP3    H226430   1.687   0.250  15.412 -0.5162 -0.2131 -0.3776
 1647TIP3   OH226431   1.042   0.350   1.889  0.7391  0.1730  0.0096
 1647TIP3    H126432   1.126   0.348   1.934 -0.1082  1.5688  1.7914
 1647TIP3    H226433   0.977   0.351   1.960 -0.7165  1.0322 -1.2669
 1648TIP3   OH226434   5.468   0.165  17.202  0.3877  0.4426  0.6022
 1648TIP3    H126435   5.465   0.122  17.117 -1.9264 -0.0199  0.8486
 1648TIP3    H226436   5.461   0.258  17.183 -2.3144  0.2514  0.2786
 1649TIP3   OH226437   0.825   0.530   0.344  0.3762 -0.0191  0.7762
 1649TIP3    H126438   0.794   0.482   0.421 -0.7698  0.4854  0.6366
 1649TIP3    H226439   0.754   0.525   0.281  1.1998 -0.1895 -0.1719
 1650TIP3   OH226440   0.139   4.383   2.068  0.0367  0.5887  0.5126
 1650TIP3    H126441   0.052   4.401   2.032 -0.4673 -1.0113  0.8493
 1650TIP3    H226442   0.121   4.343   2.153  1.0941 -0.1598  0.3991
 1651TIP3   OH226443   2.336   2.600   2.441  0.0489  0.4514 -0.2863
 1651TIP3    H126444   2.416   2.617   2.489 -0.1902  0.9860 -0.0652
 1651TIP3    H226445   2.266   2.626   2.501 -0.2849  0.1285 -0.5293
 1652TIP3   OH226446   3.974   0.586  14.434 -0.1449 -0.0881 -0.3580
 1652TIP3    H126447   3.908   0.655  14.425  0.1117  0.0027 -1.6325
 1652TIP3    H226448   3.994   0.586  14.528 -1.8735 -0.0551  0.0620
 1653TIP3   OH226449   6.289   4.709  14.371  0.0011 -0.5756 -0.5927
 1653TIP3    H126450   6.329   4.789  14.337  0.7925 -0.2876  0.9083
 1653TIP3    H226451   6.320   4.640  14.313 -1.4838  0.3019 -2.5067
 1654TIP3   OH226452   0.622   0.001   0.127  0.5123 -0.0566 -0.1061
 1654TIP3    H126453   0.586  -0.072   0.177  0.5287 -0.9337 -1.3310
 1654TIP3    H226454   0.608   0.078   0.183  0.0713 -0.9198  1.0023
 1655TIP3   OH226455   2.691   0.986   1.472  0.0236  0.0270 -0.1393
 1655TIP3    H126456   2.742   0.989   1.391  0.6759 -0.2847  0.2462
 1655TIP3    H226457   2.667   1.077   1.489  1.9616  0.4615  0.5863
 1656TIP3   OH226458   5.513   2.630  14.503 -0.0620 -0.1521  0.1749
 1656TIP3    H126459   5.553   2.702  14.454  0.3891  0.2919  1.1595
 1656TIP3    H226460   5.556   2.633  14.589 -1.9299  0.1039  1.1429
 1657TIP3   OH226461   0.574   5.338  15.154  0.0095 -0.6205  0.3143
 1657TIP3    H126462   0.562   5.267  15.216 -1.1431  0.4425  1.3613
 1657TIP3    H226463   0.620   5.298  15.080  2.2527 -1.7319  2.1683
 1658TIP3   OH226464   0.179   3.553  11.658 -0.2144  0.6016  0.0142
 1658TIP3    H126465   0.107   3.570  11.598 -0.6031  1.3371  0.6709
 1658TIP3    H226466   0.256   3.587  11.614 -0.3191  0.1211 -0.5447
 1659TIP3   OH226467   3.797   6.179   6.353 -0.6175  0.0171 -0.2021
 1659TIP3    H126468   3.806   6.215   6.441 -0.5499 -1.4215  0.4154
 1659TIP3    H226469   3.847   6.239   6.297 -1.4563  1.4702  0.5760
 1660TIP3   OH226470   2.385   0.617   2.469  0.1769 -0.0447  0.3796
 1660TIP3    H126471   2.308   0.594   2.416 -0.1712  0.5476  0.6100
 1660TIP3    H226472   2.375   0.567   2.549 -0.3708  0.5857  0.7185
 1661TIP3   OH226473   3.987   6.160  13.912 -0.1111 -0.1891  0.6666
 1661TIP3    H126474   3.898   6.176  13.946 -0.8368 -1.1812 -0.6678
 1661TIP3    H226475   4.024   6.095  13.972 -0.9679 -1.1156  0.2144
 1662TIP3   OH226476   0.819   4.101   5.279  0.5241  0.0674  0.2399
 1662TIP3    H126477   0.906   4.075   5.247  0.3443 -1.6459  1.0659
 1662TIP3    H226478   0.758   4.043   5.235 -0.2510  1.3200 -0.4000
 1663TIP3   OH226479   4.558   1.185  14.219  0.6305  0.3778 -0.2939
 1663TIP3    H126480   4.587   1.272  14.245  1.0002 -0.1527  1.2082
 1663TIP3    H226481   4.464   1.184  14.236  1.1276 -0.5492  3.0769
 1664TIP3   OH226482   6.654   3.594  16.776 -0.4160 -0.6348 -0.4267
 1664TIP3    H126483   6.741   3.584  16.737 -0.8640 -0.3097 -1.5378
 1664TIP3    H226484   6.594   3.593  16.702 -1.2734  0.3003  0.2268
 1665TIP3   OH226485   5.453   1.267   4.915 -0.4466  0.2991 -0.6030
 1665TIP3    H126486   5.438   1.301   5.003  0.7006 -1.2079  0.2360
 1665TIP3    H226487   5.486   1.342   4.865 -4.5237  2.1575 -0.8833
 1666TIP3   OH226488   5.661   2.819   3.492 -0.3982 -0.3088  0.2940
 1666TIP3    H126489   5.684   2.728   3.472 -1.7507 -0.8491  1.0848
 1666TIP3    H226490   5.733   2.851   3.545  0.3628 -0.7344 -0.4571
 1667TIP3   OH226491   3.804   2.419   2.457 -0.7200 -0.3198  0.0115
 1667TIP3    H126492   3.726   2.368   2.480 -2.2227  1.7972 -0.1426
 1667TIP3    H226493   3.870   2.390   2.520 -2.0542 -1.1464  1.0950
 1668TIP3   OH226494   4.813   4.422  13.829 -0.2511 -0.2334 -0.8746
 1668TIP3    H126495   4.895   4.420  13.878 -0.9956  0.9124  0.5075
 1668TIP3    H226496   4.822   4.354  13.763  2.0518  0.2634 -1.1440
 1669TIP3   OH226497   2.012   5.603  12.285  0.0997  0.3665  0.1577
 1669TIP3    H126498   2.085   5.665  12.280  0.8749 -0.4058  1.4592
 1669TIP3    H226499   1.935   5.658  12.294  0.8190  1.1628  1.7837
 1670TIP3   OH226500   4.195   1.988   0.996  0.5961 -0.6789 -0.1407
 1670TIP3    H126501   4.206   2.029   1.082 -0.1330 -0.2664 -0.2326
 1670TIP3    H226502   4.213   1.896   1.011  0.1926 -0.6557  0.5239
 1671TIP3   OH226503   4.827   3.182  16.891 -0.2087 -0.0835  0.1578
 1671TIP3    H126504   4.857   3.263  16.931  2.0943 -0.0791 -1.3729
 1671TIP3    H226505   4.904   3.125  16.890 -0.1550 -0.2250 -3.7235
 1672TIP3   OH226506   1.344   4.036  11.660 -0.5111  0.1272  0.0448
 1672TIP3    H126507   1.416   4.095  11.684  0.7298 -0.9856 -0.7889
 1672TIP3    H226508   1.358   4.018  11.567 -2.1130  0.1696 -0.2400
 1673TIP3   OH226509   1.668   4.722   4.618  0.1885 -0.1602  0.1280
 1673TIP3    H126510   1.645   4.807   4.580  1.0224  0.2732  0.5660
 1673TIP3    H226511   1.751   4.737   4.664  2.1512 -1.9538 -2.5362
 1674TIP3   OH226512   4.739   0.676   4.925 -0.0047 -0.2463  0.0194
 1674TIP3    H126513   4.745   0.757   4.975 -1.4790  0.9267 -1.5765
 1674TIP3    H226514   4.784   0.610   4.979  1.9034  1.7608  1.0144
 1675TIP3   OH226515   5.385   0.294  14.746 -0.1820  0.0558  0.6375
 1675TIP3    H126516   5.448   0.249  14.802 -0.1946 -1.9223 -0.8243
 1675TIP3    H226517   5.308   0.307  14.802 -0.1781 -1.8299  1.1581
 1676TIP3   OH226518   6.025   6.355   5.502 -0.1736 -0.0284  0.4699
 1676TIP3    H126519   6.079   6.393   5.433 -1.2072  0.0337 -0.3413
 1676TIP3    H226520   6.081   6.354   5.580  0.4851  1.4295  0.0461
 1677TIP3   OH226521   2.590   0.658   5.800 -0.2490 -0.0563 -0.2231
 1677TIP3    H126522   2.524   0.645   5.868  0.0733  1.0324  0.3096
 1677TIP3    H226523   2.542   0.644   5.718 -1.2137  0.9606  0.1439
 1678TIP3   OH226524   4.369   3.786   5.299  0.5429  0.1334  0.7412
 1678TIP3    H126525   4.313   3.708   5.297 -0.3712  0.7849  0.0966
 1678TIP3    H226526   4.456   3.752   5.324  0.3520 -1.2037 -0.2653
 1679TIP3   OH226527   3.670   4.422  13.940 -0.5582  0.2646  0.1221
 1679TIP3    H126528   3.590   4.370  13.944  0.9494 -2.1600  2.0405
 1679TIP3    H226529   3.665   4.479  14.017  0.0169 -0.7434  0.9392
 1680TIP3   OH226530   3.837   6.375   4.361 -0.3830 -0.0998 -0.6988
 1680TIP3    H126531   3.855   6.402   4.271  0.1974  0.9799 -0.2711
 1680TIP3    H226532   3.798   6.288   4.352 -0.3276 -0.0137 -1.9892
 1681TIP3   OH226533   2.665   0.817  17.041  0.5044 -0.2272 -0.2186
 1681TIP3    H126534   2.759   0.807  17.056  0.9722 -0.0489 -2.5631
 1681TIP3    H226535   2.658   0.900  16.993 -0.8017 -0.4589 -0.4614
 1682TIP3   OH226536   1.441   0.669  17.159 -0.5157 -0.0830 -0.4744
 1682TIP3    H126537   1.486   0.626  17.087  0.0630  2.0197 -1.4206
 1682TIP3    H226538   1.495   0.745  17.180 -1.4524  0.1740  1.1916
 1683TIP3   OH226539   2.360   4.639  16.969 -0.7982  0.0127  0.0435
 1683TIP3    H126540   2.269   4.640  16.997 -0.4734 -1.1862  1.2125
 1683TIP3    H226541   2.401   4.570  17.021  0.7090  0.3107 -0.6900
 1684TIP3   OH226542   4.300   1.046  11.801 -0.7400  0.5903 -0.2555
 1684TIP3    H126543   4.283   1.014  11.712  0.5933 -0.2105 -0.2508
 1684TIP3    H226544   4.216   1.079  11.831 -1.2094  0.9032 -1.8288
 1685TIP3   OH226545   3.846   6.818   4.336  0.8435  0.0421 -0.6313
 1685TIP3    H126546   3.818   6.871   4.410  0.0848  0.2359 -1.0398
 1685TIP3    H226547   3.917   6.764   4.370 -1.2460 -1.8563  1.0172
 1686TIP3   OH226548   3.594   5.410   2.137  0.1316 -0.5146 -0.4286
 1686TIP3    H126549   3.500   5.428   2.146  0.3181  0.1394  0.1778
 1686TIP3    H226550   3.598   5.315   2.122 -0.6043 -0.6008 -0.1305
 1687TIP3   OH226551   6.326   5.220  15.607  0.2259  0.1686  0.0476
 1687TIP3    H126552   6.244   5.222  15.558  0.2792  1.3439 -0.0243
 1687TIP3    H226553   6.328   5.133  15.646 -1.1791  0.2055  0.2609
 1688TIP3   OH226554   6.002   0.082  11.117 -0.2684  0.5632 -0.1379
 1688TIP3    H126555   6.002   0.069  11.022 -1.8173  0.8721 -0.2178
 1688TIP3    H226556   6.004   0.177  11.129 -0.9691  0.5619  0.0895
 1689TIP3   OH226557   3.305   3.119  11.595 -0.3720  0.0749 -0.4696
 1689TIP3    H126558   3.290   3.024  11.594  0.9888 -0.1665 -1.8296
 1689TIP3    H226559   3.253   3.151  11.669 -0.7568 -1.7481  0.0963
 1690TIP3   OH226560   1.371   1.860  12.441  0.1862  0.0757 -0.2144
 1690TIP3    H126561   1.448   1.820  12.480 -1.0280 -2.7640 -0.4769
 1690TIP3    H226562   1.376   1.838  12.348 -0.6343  0.3861 -0.3417
 1691TIP3   OH226563   0.823   4.968   1.674 -0.2061 -0.6165 -0.1932
 1691TIP3    H126564   0.855   4.892   1.626  0.0933 -0.0333 -0.9317
 1691TIP3    H226565   0.860   5.043   1.628 -1.5977  0.0352 -0.3020
 1692TIP3   OH226566   5.039   1.177   0.159 -0.5156 -0.2085  0.2759
 1692TIP3    H126567   5.004   1.092   0.132 -1.1159 -0.0084  0.3915
 1692TIP3    H226568   5.050   1.226   0.077 -0.1973 -0.3907  0.2119
 1693TIP3   OH226569   1.205   5.541  15.013  0.2692 -0.1353 -0.8010
 1693TIP3    H126570   1.283   5.488  15.030 -0.3601 -0.9489 -0.3705
 1693TIP3    H226571   1.232   5.602  14.944  1.4654  0.0259 -0.2298
 1694TIP3   OH226572   3.112   3.856   5.768  0.2829  0.0766 -0.1346
 1694TIP3    H126573   3.200   3.877   5.737  0.5609 -1.3020 -0.3668
 1694TIP3    H226574   3.123   3.841   5.862  0.0807  0.9335  0.0354
 1695TIP3   OH226575   5.088   2.787   4.890 -0.9286  0.0029  0.3716
 1695TIP3    H126576   5.100   2.723   4.960 -1.9227  0.0980  0.6432
 1695TIP3    H226577   5.096   2.735   4.809  1.1607  0.0508  0.4817
 1696TIP3   OH226578   1.692   4.985   4.092  0.5983  0.3986 -0.2153
 1696TIP3    H126579   1.750   5.055   4.063  1.3811 -0.1638 -0.0388
 1696TIP3    H226580   1.625   5.030   4.145  1.7178  0.9014  0.8282
 1697TIP3   OH226581   4.593   4.367   2.568  0.4666  0.2627  0.6731
 1697TIP3    H126582   4.578   4.285   2.521  0.5608  0.3444  0.4970
 1697TIP3    H226583   4.686   4.384   2.557  0.1209  1.3976 -0.9855
 1698TIP3   OH226584   3.739   4.364  16.711  0.4169  0.1788 -0.7043
 1698TIP3    H126585   3.711   4.376  16.802  0.7974 -1.0660 -0.4034
 1698TIP3    H226586   3.673   4.308  16.672 -0.8073  2.2585 -1.8016
 1699TIP3   OH226587   6.194   4.524   4.454  0.4213 -1.2885 -0.2319
 1699TIP3    H126588   6.186   4.456   4.521  0.4720  0.7971  2.0634
 1699TIP3    H226589   6.114   4.576   4.463  0.4215 -0.9585 -1.8529
 1700TIP3   OH226590   2.494   3.394  11.600  0.1230  0.5007 -0.0464
 1700TIP3    H126591   2.555   3.464  11.622  1.6750 -0.3358 -1.4509
 1700TIP3    H226592   2.436   3.434  11.535  0.8689  0.5676 -0.6879
 1701TIP3   OH226593   5.910   5.590  11.745 -0.7057 -0.0842  0.0148
 1701TIP3    H126594   5.994   5.544  11.746 -1.1409 -0.9500  2.1419
 1701TIP3    H226595   5.927   5.672  11.792 -1.0474 -0.3141  0.5572
 1702TIP3   OH226596   4.304   1.323  12.395  0.8396  0.1256  0.2817
 1702TIP3    H126597   4.321   1.233  12.422  1.2081  0.3238  0.7135
 1702TIP3    H226598   4.356   1.334  12.315  0.6210 -0.1079  0.1040
 1703TIP3   OH226599   3.513   5.104  14.412 -0.0033 -0.9354  0.3737
 1703TIP3    H126600   3.434   5.120  14.463 -0.6481 -0.2124 -0.8220
 1703TIP3    H226601   3.491   5.029  14.357 -0.1683 -0.1871 -0.5884
 1704TIP3   OH226602   3.464   4.275  16.715 -0.0678  0.2177 -0.0186
 1704TIP3    H126603   3.455   4.205  16.780 -1.4720 -0.6245 -1.0485
 1704TIP3    H226604   3.461   4.356  16.766 -1.6794 -0.3986  0.9564
 1705TIP3   OH226605   1.522   2.631   4.109 -0.1556  0.4786 -0.1295
 1705TIP3    H126606   1.517   2.662   4.200 -2.3118 -1.1634  0.3848
 1705TIP3    H226607   1.446   2.670   4.067  0.2067  0.3045 -0.9536
 1706TIP3   OH226608   0.903   3.226  15.868 -0.0165  0.0009  0.1064
 1706TIP3    H126609   0.829   3.186  15.914 -0.1461  0.5770  0.4154
 1706TIP3    H226610   0.978   3.211  15.926  0.0357 -0.2595 -0.0298
 1707TIP3   OH226611   4.708   0.474   2.242 -0.7411 -0.3375 -0.0836
 1707TIP3    H126612   4.640   0.437   2.299 -1.5104  1.6688  0.3905
 1707TIP3    H226613   4.790   0.446   2.282 -1.2316 -2.3857 -0.3801
 1708TIP3   OH226614   0.026   3.939   3.871  0.7258 -0.4021 -0.0434
 1708TIP3    H126615   0.112   3.916   3.836  0.5833 -0.7871 -0.1450
 1708TIP3    H226616   0.038   3.939   3.966  1.2317  1.1070 -0.0833
 1709TIP3   OH226617   1.921   3.923   3.657 -0.0233 -0.0665 -0.0401
 1709TIP3    H126618   1.828   3.945   3.652  0.0149  0.4216  1.0184
 1709TIP3    H226619   1.924   3.828   3.653 -0.8815 -0.3367  3.0404
 1710TIP3   OH226620   2.476   1.570  11.908  0.3832  0.3641  0.0367
 1710TIP3    H126621   2.479   1.574  11.812 -1.0477  0.4466 -0.0412
 1710TIP3    H226622   2.428   1.649  11.933  1.3101  0.6743  0.8728
 1711TIP3   OH226623   1.724   5.975   5.277 -0.5255 -0.0884  0.8662
 1711TIP3    H126624   1.797   6.036   5.284 -1.5196  1.0443  2.0348
 1711TIP3    H226625   1.647   6.031   5.266 -1.0855 -1.2820 -2.4345
 1712TIP3   OH226626   5.430   5.675   0.377 -0.3171  0.1085 -0.2706
 1712TIP3    H126627   5.478   5.598   0.408 -0.7564  0.0577  0.3106
 1712TIP3    H226628   5.463   5.690   0.289 -1.5404 -1.8695 -1.1339
 1713TIP3   OH226629   2.498   0.130  16.916 -0.2752  1.2066 -0.0555
 1713TIP3    H126630   2.507   0.223  16.936 -0.1154  1.6166 -1.8590
 1713TIP3    H226631   2.580   0.107  16.873 -0.9305  0.6293 -1.0243
 1714TIP3   OH226632   2.637   5.019  14.911 -0.0192  0.0883  0.1907
 1714TIP3    H126633   2.710   4.958  14.920  0.5761  0.7453 -0.1056
 1714TIP3    H226634   2.622   5.051  15.000  0.7011  0.6784  0.1089
 1715TIP3   OH226635   3.756   5.125   6.776  0.5716  0.6975 -0.6363
 1715TIP3    H126636   3.685   5.109   6.714 -1.6991  1.5958  1.5785
 1715TIP3    H226637   3.772   5.219   6.771  1.4117  0.5488 -0.8873
 1716TIP3   OH226638   6.089   0.891   5.824  0.0952  0.5594 -0.3176
 1716TIP3    H126639   6.058   0.890   5.914  1.1272  2.1842  0.1046
 1716TIP3    H226640   6.133   0.807   5.813 -1.6863 -0.4786  0.0344
 1717TIP3   OH226641   2.385   0.041   0.644 -0.3071 -0.3067 -0.7277
 1717TIP3    H126642   2.426   0.076   0.565 -0.3771  1.8802  0.1294
 1717TIP3    H226643   2.456  -0.002   0.692  0.0263 -0.4200 -1.3205
 1718TIP3   OH226644   2.906   6.818   5.756  0.3610  0.4587  0.2388
 1718TIP3    H126645   2.821   6.858   5.772 -0.1645 -1.2468  1.9758
 1718TIP3    H226646   2.921   6.833   5.662 -2.4296 -0.2764 -0.4208
 1719TIP3   OH226647   3.803   2.714  16.308  0.3405  0.1609  0.2051
 1719TIP3    H126648   3.819   2.792  16.362  1.5207 -0.8484  1.3770
 1719TIP3    H226649   3.769   2.649  16.370 -0.2065 -0.4194 -0.6736
 1720TIP3   OH226650   4.441   4.382  14.144  0.4390 -0.4150 -0.2157
 1720TIP3    H126651   4.405   4.409  14.228 -0.8773 -1.0742 -0.5420
 1720TIP3    H226652   4.383   4.422  14.078  0.7604 -0.8510 -0.7765
 1721TIP3   OH226653   4.052   4.818   3.827  0.4088 -0.4402  0.5794
 1721TIP3    H126654   4.115   4.809   3.899 -0.6076 -0.2733  1.5289
 1721TIP3    H226655   4.034   4.912   3.824 -0.8743 -0.6482  1.2991
 1722TIP3   OH226656   3.059   5.033  16.363  0.5872  0.2112  0.2982
 1722TIP3    H126657   3.071   5.126  16.344 -0.7415  0.3748  0.1869
 1722TIP3    H226658   3.100   4.988  16.289 -0.0899  0.7522 -0.4199
 1723TIP3   OH226659   4.635   4.807  11.395  0.0911  0.5350 -0.4040
 1723TIP3    H126660   4.551   4.810  11.441 -0.4329  0.9960 -1.3676
 1723TIP3    H226661   4.646   4.715  11.371 -0.2036  0.4962 -0.3952
 1724TIP3   OH226662   0.813   3.564   0.458 -0.4619  0.4619 -0.3870
 1724TIP3    H126663   0.756   3.622   0.408  0.1003  0.7377 -0.7039
 1724TIP3    H226664   0.884   3.619   0.489 -0.8902  0.3264  0.8639
 1725TIP3   OH226665   1.262   3.060  12.505 -0.5718  0.2828  0.0775
 1725TIP3    H126666   1.316   3.035  12.430 -0.6086  1.2027 -0.2696
 1725TIP3    H226667   1.198   3.121  12.470  0.4647  2.0584  1.1465
 1726TIP3   OH226668   1.152   5.342  15.407 -0.3864 -0.0976 -0.4005
 1726TIP3    H126669   1.195   5.416  15.365 -0.4147  0.3393  0.3055
 1726TIP3    H226670   1.063   5.343  15.372 -0.4559  0.3561 -0.2175
 1727TIP3   OH226671   2.708   6.781  12.339  0.0154 -0.1840 -0.3324
 1727TIP3    H126672   2.618   6.749  12.336  0.7655 -2.4993  0.1403
 1727TIP3    H226673   2.759   6.708  12.373  2.1094  1.0533 -0.6124
 1728TIP3   OH226674   5.067   2.779  13.421  0.2365  0.1137 -0.2335
 1728TIP3    H126675   5.068   2.710  13.355  1.0607 -1.0225  0.9247
 1728TIP3    H226676   5.158   2.810  13.425  0.5190 -0.8206  1.3415
 1729TIP3   OH226677   1.134   2.417  13.637  0.5048 -0.0450 -0.3587
 1729TIP3    H126678   1.111   2.430  13.729 -0.7529 -4.1171  0.1216
 1729TIP3    H226679   1.229   2.413  13.637  0.5087 -0.6361  0.9272
 1730TIP3   OH226680   2.060   3.684   1.164 -0.0068  0.5040  0.1800
 1730TIP3    H126681   2.015   3.603   1.139 -1.9015  1.4152  0.4758
 1730TIP3    H226682   2.109   3.709   1.085  3.1720 -2.4423  0.9599
 1731TIP3   OH226683   0.958   6.257  11.324 -0.1539  0.3735 -0.6690
 1731TIP3    H126684   0.976   6.306  11.244 -2.1917 -0.1561 -1.5028
 1731TIP3    H226685   0.912   6.179  11.295  1.4391 -1.1888  0.7997
 1732TIP3   OH226686   2.390   6.136  15.318 -0.1285 -0.0763 -0.5883
 1732TIP3    H126687   2.369   6.079  15.391  2.2021  1.9098  1.8146
 1732TIP3    H226688   2.306   6.147  15.272 -2.3277  0.3872  3.1046
 1733TIP3   OH226689   4.065   6.340   5.414 -0.1304  0.1046 -0.1316
 1733TIP3    H126690   4.071   6.434   5.430  0.6626 -0.1444  1.2275
 1733TIP3    H226691   4.152   6.316   5.381  0.3352 -0.4367  1.3859
 1734TIP3   OH226692   2.480   4.857   3.393 -1.0815 -0.3121  0.2702
 1734TIP3    H126693   2.536   4.928   3.424 -1.9250  0.2720  0.5108
 1734TIP3    H226694   2.430   4.897   3.322 -0.2945 -1.1902 -0.8083
 1735TIP3   OH226695   5.080   5.682   6.115 -0.3154 -0.1159 -0.3414
 1735TIP3    H126696   5.093   5.741   6.041  0.1357  2.7011  1.8042
 1735TIP3    H226697   5.131   5.604   6.093 -1.1559  0.0742 -3.4398
 1736TIP3   OH226698   3.174   2.339  15.532 -0.3580 -0.2375 -0.1794
 1736TIP3    H126699   3.212   2.419  15.495  0.4156 -0.9313 -0.9418
 1736TIP3    H226700   3.184   2.274  15.462  1.6739 -1.7692  1.4129
 1737TIP3   OH226701   5.633   6.013  14.517  0.3591  0.2720  0.3682
 1737TIP3    H126702   5.598   6.096  14.485 -1.0936 -0.1652  0.7851
 1737TIP3    H226703   5.658   6.031  14.607  2.7106  0.9907 -0.3487
 1738TIP3   OH226704   0.794   6.298  16.326  0.3582 -0.1672 -0.0611
 1738TIP3    H126705   0.766   6.387  16.301  4.1013  0.9391 -0.9009
 1738TIP3    H226706   0.723   6.266  16.382 -2.8940  1.8510 -2.5980
 1739TIP3   OH226707   1.042   1.965  14.221  0.2917  0.4693 -0.3989
 1739TIP3    H126708   1.120   1.977  14.167 -0.8233  1.4922 -1.8467
 1739TIP3    H226709   0.977   2.025  14.184 -0.7588  0.7058  1.6530
 1740TIP3   OH226710   5.165   2.968  14.966 -0.0429  0.4855  0.6211
 1740TIP3    H126711   5.126   2.985  14.880  0.3660 -1.5084 -0.0098
 1740TIP3    H226712   5.244   3.022  14.966  0.7670 -0.6091 -0.9268
 1741TIP3   OH226713   1.664   0.788  14.765  0.1921  0.4996  0.4273
 1741TIP3    H126714   1.645   0.873  14.804  1.1305  0.9399 -0.0385
 1741TIP3    H226715   1.752   0.798  14.729 -0.0366 -0.3941 -0.4069
 1742TIP3   OH226716   4.060   2.883  16.139 -0.4449  0.1982 -0.3945
 1742TIP3    H126717   4.055   2.909  16.231  2.7873  1.6675 -0.4971
 1742TIP3    H226718   4.069   2.788  16.141  1.8474  0.3805  1.0293
 1743TIP3   OH226719   0.412   6.807  11.115 -0.4368 -1.1038  0.4245
 1743TIP3    H126720   0.492   6.755  11.119  0.8203  0.7662  0.5805
 1743TIP3    H226721   0.368   6.790  11.198  0.6629 -0.8084  1.0772
 1744TIP3   OH226722   0.945   4.687  16.090 -0.0255  0.0540  0.9613
 1744TIP3    H126723   0.937   4.746  16.164  1.3410 -1.3509  2.3231
 1744TIP3    H226724   0.993   4.612  16.125 -3.1263 -2.7010 -0.1509
 1745TIP3   OH226725   0.595   3.609   3.596 -0.0067  0.0634  0.0568
 1745TIP3    H126726   0.555   3.550   3.660 -0.5896  0.2154 -0.1630
 1745TIP3    H226727   0.675   3.564   3.569 -1.2927 -1.5273 -1.4494
 1746TIP3   OH226728   1.493   1.297   1.390 -0.2201 -0.0911 -0.0496
 1746TIP3    H126729   1.400   1.276   1.383 -0.0811 -0.3346 -1.5084
 1746TIP3    H226730   1.495   1.385   1.426 -1.0331  0.0433 -0.3128
 1747TIP3   OH226731   1.568   5.600   3.886 -0.5275  0.0003 -0.0148
 1747TIP3    H126732   1.633   5.563   3.827 -0.6416 -1.0080  0.4739
 1747TIP3    H226733   1.580   5.695   3.878  1.5390 -0.1469  0.6524
 1748TIP3   OH226734   6.342   5.586  15.756 -0.6085 -0.3030 -0.0929
 1748TIP3    H126735   6.305   5.631  15.681  1.7213  1.6698 -0.1666
 1748TIP3    H226736   6.355   5.654  15.822  2.8732 -0.7412 -0.1324
 1749TIP3   OH226737   4.157   0.829  17.131 -0.5347  0.7184  0.4940
 1749TIP3    H126738   4.118   0.891  17.191 -0.1483  1.1652  0.2831
 1749TIP3    H226739   4.107   0.748  17.145 -0.8369  0.9841  0.9790
 1750TIP3   OH226740   2.582   1.507  13.592  0.7802  0.8714  0.0159
 1750TIP3    H126741   2.549   1.498  13.681  1.8882  0.1544  0.3636
 1750TIP3    H226742   2.558   1.597  13.567 -2.5047  0.0584 -0.2286
 1751TIP3   OH226743   0.170   4.262   2.578 -0.3113  0.1477  0.0605
 1751TIP3    H126744   0.111   4.187   2.580 -0.6406  0.4020  0.1368
 1751TIP3    H226745   0.248   4.233   2.626  0.1539 -0.6174 -1.1317
 1752TIP3   OH226746   1.399   4.180   2.979  0.3952  0.4067  0.4115
 1752TIP3    H126747   1.462   4.233   3.028 -2.7803  3.3286  1.7602
 1752TIP3    H226748   1.367   4.117   3.043 -0.5213  1.2720  0.8356
 1753TIP3   OH226749   5.521   4.021   2.993  0.1082  0.4964  0.1240
 1753TIP3    H126750   5.475   3.940   2.969 -0.0979  0.8093 -0.5700
 1753TIP3    H226751   5.613   4.002   2.973  0.1415  0.2187  0.5492
 1754TIP3   OH226752   0.649   4.292   5.059  0.0962  0.2867  0.1046
 1754TIP3    H126753   0.625   4.214   5.010 -0.2272 -0.6878  1.7441
 1754TIP3    H226754   0.571   4.314   5.110  0.2222  1.6304 -0.2436
 1755TIP3   OH226755   4.036   4.789   5.788 -0.1671 -0.3032 -0.2551
 1755TIP3    H126756   3.960   4.793   5.730 -0.8064  1.2550  0.6276
 1755TIP3    H226757   4.010   4.841   5.864  2.4641  1.9028 -0.7313
 1756TIP3   OH226758   1.028   2.076   5.861  0.2895  0.3506  0.7788
 1756TIP3    H126759   1.113   2.032   5.866  0.9066  1.5681  1.5822
 1756TIP3    H226760   1.044   2.163   5.898 -1.7608 -0.0686  2.9422
 1757TIP3   OH226761   6.727   0.297   1.629  0.2963 -0.0551 -0.2422
 1757TIP3    H126762   6.795   0.354   1.666  1.2824 -1.4990  0.2756
 1757TIP3    H226763   6.679   0.265   1.706  0.5654 -0.8690 -0.3924
 1758TIP3   OH226764   6.435   2.800  15.602 -0.4480 -0.2097  0.6767
 1758TIP3    H126765   6.348   2.839  15.611  0.0381  0.7711  1.2536
 1758TIP3    H226766   6.468   2.832  15.518  0.2787  1.3374  1.5173
 1759TIP3   OH226767   1.276   5.437   3.561 -0.6730 -0.4959 -0.4609
 1759TIP3    H126768   1.207   5.383   3.600  0.2042 -1.8516 -0.7495
 1759TIP3    H226769   1.245   5.455   3.472 -0.7977 -0.8182 -0.4825
 1760TIP3   OH226770   3.771   1.023  15.967  0.3206  0.1884  0.5679
 1760TIP3    H126771   3.724   0.966  16.028  0.3315 -0.0506  0.3600
 1760TIP3    H226772   3.821   0.962  15.912  0.6513  0.4226  0.6010
 1761TIP3   OH226773   2.231   6.023   3.316  0.4625  0.0311  0.7628
 1761TIP3    H126774   2.302   6.053   3.260 -0.1935 -0.7595 -0.5501
 1761TIP3    H226775   2.273   5.970   3.383  1.1320 -0.4808 -0.0345
 1762TIP3   OH226776   2.460   2.424  17.138  0.3552 -0.4692 -0.5776
 1762TIP3    H126777   2.495   2.513  17.137  0.3749 -0.3696  2.0247
 1762TIP3    H226778   2.528   2.372  17.181 -0.6980 -1.2167  0.2285
 1763TIP3   OH226779   0.788   0.837   1.737 -0.2045  0.2295  0.4047
 1763TIP3    H126780   0.800   0.759   1.792 -0.3305 -0.1781 -0.1308
 1763TIP3    H226781   0.695   0.838   1.716 -0.4670  1.3062  1.5210
 1764TIP3   OH226782   5.667   4.766  13.543 -0.4223 -0.3480  0.4075
 1764TIP3    H126783   5.626   4.853  13.547 -2.9600 -1.4803  2.9784
 1764TIP3    H226784   5.685   4.752  13.451 -0.1405  2.7848 -0.1266
 1765TIP3   OH226785   3.016   1.911  13.212 -0.5267 -0.3770 -0.0122
 1765TIP3    H126786   3.019   1.975  13.282 -0.7168  1.8985 -1.9639
 1765TIP3    H226787   3.093   1.930  13.158 -0.9276 -1.3803 -0.9955
 1766TIP3   OH226788   6.713   4.715  11.605  0.1624 -0.1306 -0.1223
 1766TIP3    H126789   6.629   4.671  11.592  0.0844  0.2301 -0.9170
 1766TIP3    H226790   6.735   4.700  11.697 -0.4092 -0.8635 -0.1012
 1767TIP3   OH226791   5.974   2.183   5.346 -0.3178 -0.5420  0.4693
 1767TIP3    H126792   5.895   2.144   5.310 -0.3186  0.3831 -0.5765
 1767TIP3    H226793   5.966   2.277   5.326  1.3176 -0.5086 -0.2168
 1768TIP3   OH226794   1.956   2.283  11.387 -0.4858  0.6681  0.2795
 1768TIP3    H126795   1.908   2.313  11.310 -0.3885  1.6743  0.6020
 1768TIP3    H226796   1.896   2.300  11.460 -1.1174 -1.4720  0.3250
 1769TIP3   OH226797   5.466   5.726   0.118 -0.4873  0.2827 -0.1157
 1769TIP3    H126798   5.560   5.742   0.108 -0.4146  0.1984  0.4028
 1769TIP3    H226799   5.425   5.783   0.054 -0.1164  0.8630  0.1493
 1770TIP3   OH226800   0.927   1.837   1.571 -0.3494 -0.4191 -0.4765
 1770TIP3    H126801   0.939   1.816   1.478 -1.1925 -0.7777 -0.5141
 1770TIP3    H226802   0.972   1.767   1.618  1.8623  0.8410 -0.5862
 1771TIP3   OH226803   4.831   2.611   0.758 -0.2041  0.5449  0.6184
 1771TIP3    H126804   4.799   2.686   0.709 -0.4274  0.8260  1.1858
 1771TIP3    H226805   4.793   2.535   0.712  0.9604  0.6888 -0.6555
 1772TIP3   OH226806   2.106   0.536  16.747  0.2603  0.1854 -0.3422
 1772TIP3    H126807   2.190   0.572  16.775 -0.0149  1.0658 -0.6153
 1772TIP3    H226808   2.115   0.441  16.759  0.5462  0.4277  1.6680
 1773TIP3   OH226809   2.656   2.453   4.785 -0.4915  0.6136  0.3203
 1773TIP3    H126810   2.588   2.454   4.852 -0.1846  1.3363  0.6443
 1773TIP3    H226811   2.625   2.514   4.718 -0.2281  0.8612  0.4162
 1774TIP3   OH226812   6.596   0.321  14.168  0.3921 -0.3712 -0.4673
 1774TIP3    H126813   6.603   0.364  14.254  1.5872  0.4719 -0.9602
 1774TIP3    H226814   6.601   0.227  14.188  0.4152 -0.1922  0.4104
 1775TIP3   OH226815   3.057   1.407   6.216 -0.0532  0.2213 -0.4626
 1775TIP3    H126816   3.055   1.465   6.292  2.1984  1.2737 -1.1505
 1775TIP3    H226817   3.065   1.465   6.141  0.7635 -0.9010 -1.2807
 1776TIP3   OH226818   5.210   4.062   2.907 -0.0873 -0.0530  0.7725
 1776TIP3    H126819   5.237   4.145   2.946  0.2530  0.5087 -0.6058
 1776TIP3    H226820   5.275   3.998   2.937  0.9933  0.6588 -0.0307
 1777TIP3   OH226821   5.180   6.278  16.057  0.1131 -0.2752 -0.1410
 1777TIP3    H126822   5.265   6.309  16.026  1.7103 -1.4567  2.6243
 1777TIP3    H226823   5.154   6.211  15.994  1.5524 -0.3167 -0.7206
 1778TIP3   OH226824   6.541   1.197   5.477 -0.5714  0.3872 -0.2939
 1778TIP3    H126825   6.616   1.231   5.526  0.3624  1.6677 -2.4250
 1778TIP3    H226826   6.531   1.258   5.403 -2.7338 -0.6446 -0.9516
 1779TIP3   OH226827   6.063   0.761  14.046 -0.0376 -0.1162 -0.3158
 1779TIP3    H126828   6.106   0.676  14.041  0.8529  0.1663  1.4488
 1779TIP3    H226829   6.132   0.821  14.075 -1.2578  0.6181  1.2549
 1780TIP3   OH226830   3.803   5.612   3.659 -0.2845  0.0298  0.2207
 1780TIP3    H126831   3.890   5.650   3.672 -0.6437  1.1350 -0.4590
 1780TIP3    H226832   3.779   5.639   3.570 -2.2059  1.5619  1.1425
 1781TIP3   OH226833   6.767   3.429  17.261  0.5402 -0.1076  0.6295
 1781TIP3    H126834   6.702   3.367  17.292  0.9433 -0.6696  0.3705
 1781TIP3    H226835   6.745   3.511  17.305  0.5819 -0.6652  1.7295
 1782TIP3   OH226836   5.369   1.544   4.114  0.3726  0.4073  0.3859
 1782TIP3    H126837   5.286   1.570   4.075  0.7158 -0.9381 -1.3651
 1782TIP3    H226838   5.431   1.612   4.088  0.3603  0.0832 -0.5042
 1783TIP3   OH226839   1.133   3.255  16.008  0.0865 -0.0585 -0.3182
 1783TIP3    H126840   1.175   3.303  15.938  0.4218  0.9678  0.5541
 1783TIP3    H226841   1.203   3.202  16.047  0.2302  0.4702  0.1492
 1784TIP3   OH226842   2.697   0.368   1.599 -0.5114  0.0195  0.0654
 1784TIP3    H126843   2.654   0.452   1.613 -2.1734 -0.9756  1.2978
 1784TIP3    H226844   2.778   0.374   1.649 -0.1726  1.1821 -0.5866
 1785TIP3   OH226845   6.783   6.808  13.442 -0.3099 -0.3852  0.4907
 1785TIP3    H126846   6.817   6.779  13.527 -1.3041  0.0558  1.0540
 1785TIP3    H226847   6.691   6.829  13.459 -0.1458  1.1351 -0.3608
 1786TIP3   OH226848   3.313   2.488   2.470 -0.0656 -0.2050  0.4042
 1786TIP3    H126849   3.381   2.429   2.436 -1.6146 -0.3316 -2.9216
 1786TIP3    H226850   3.250   2.429   2.513 -0.4344 -0.7373 -0.8198
 1787TIP3   OH226851   2.134   1.077  16.653  0.2526 -0.7540  0.0970
 1787TIP3    H126852   2.214   1.123  16.677 -1.0998  0.6742  2.2672
 1787TIP3    H226853   2.099   1.126  16.578  0.3209 -0.0278  0.5325
 1788TIP3   OH226854   3.216   2.092  16.007  0.1563 -0.5549 -0.6426
 1788TIP3    H126855   3.252   2.059  15.924  1.5184 -0.9292  0.0655
 1788TIP3    H226856   3.277   2.160  16.034 -1.1775  0.7173 -0.7406
 1789TIP3   OH226857   5.845   3.739  16.648  0.0216 -0.2464  0.0356
 1789TIP3    H126858   5.795   3.667  16.609 -2.0058  0.3069  1.4331
 1789TIP3    H226859   5.833   3.729  16.742  1.2053  0.8997  0.3393
 1790TIP3   OH226860   6.676   4.480   6.294  0.5298  0.4637 -0.6920
 1790TIP3    H126861   6.750   4.538   6.309 -0.3042  1.3995 -0.0294
 1790TIP3    H226862   6.604   4.519   6.345  0.0733 -1.4471  0.2328
 1791TIP3   OH226863   0.489   1.165  13.402 -0.3626  0.2544  0.0948
 1791TIP3    H126864   0.583   1.154  13.412 -0.5898 -3.1299 -0.3542
 1791TIP3    H226865   0.452   1.138  13.486 -1.0097 -0.9403 -0.5499
 1792TIP3   OH226866   3.309   0.517   5.699  0.2830 -0.2036  0.0278
 1792TIP3    H126867   3.344   0.435   5.664 -1.6041 -1.4038  0.7624
 1792TIP3    H226868   3.359   0.533   5.779  1.1781 -0.2087 -0.5242
 1793TIP3   OH226869   2.428   0.565  12.948 -0.5105  0.3122 -0.1599
 1793TIP3    H126870   2.465   0.488  12.991  1.1177  1.3606  0.4046
 1793TIP3    H226871   2.366   0.529  12.884 -0.0852 -1.4351  0.3557
 1794TIP3   OH226872   3.328   4.414   3.694 -0.0971 -0.6051 -0.2350
 1794TIP3    H126873   3.404   4.465   3.721  0.2645 -0.4500 -1.5251
 1794TIP3    H226874   3.284   4.470   3.630 -1.0737 -0.8762  0.1803
 1795TIP3   OH226875   0.723   0.789  16.737  0.9582 -0.2848  0.2409
 1795TIP3    H126876   0.722   0.858  16.671  1.5986 -0.0990  0.4189
 1795TIP3    H226877   0.795   0.732  16.711  0.4651 -0.8649  0.1221
 1796TIP3   OH226878   3.279   5.505  12.384 -0.0269  0.0928 -0.3830
 1796TIP3    H126879   3.294   5.597  12.406  1.9286  0.6018 -3.1630
 1796TIP3    H226880   3.288   5.458  12.466  2.5729  2.0853  0.6004
 1797TIP3   OH226881   3.308   1.256   5.555 -0.5829 -0.2249 -0.5595
 1797TIP3    H126882   3.350   1.237   5.471  1.4954  0.8848  0.1418
 1797TIP3    H226883   3.279   1.171   5.588  2.6785 -1.3976 -0.3628
 1798TIP3   OH226884   6.202   5.452  13.273 -0.2060  0.5932  0.3125
 1798TIP3    H126885   6.279   5.452  13.215  1.2625 -0.4271  2.1577
 1798TIP3    H226886   6.196   5.542  13.304  1.7559  0.2331  1.9569
 1799TIP3   OH226887   1.316   1.638  15.281 -0.0653  0.2905  0.5707
 1799TIP3    H126888   1.393   1.608  15.232 -0.3779 -0.1274  0.3323
 1799TIP3    H226889   1.261   1.560  15.289 -0.3986  0.5542  0.8719
 1800TIP3   OH226890   4.566   2.323   4.968 -0.0344  0.0774 -0.4079
 1800TIP3    H126891   4.489   2.359   5.011  0.4759  0.4401  0.2203
 1800TIP3    H226892   4.552   2.342   4.875 -1.1690 -0.7735 -0.4176
 1801TIP3   OH226893   2.337   2.202  11.960 -0.2929 -0.0699 -0.0224
 1801TIP3    H126894   2.263   2.164  11.913 -1.1370  2.5567 -0.9624
 1801TIP3    H226895   2.305   2.215  12.049 -2.3611  4.0402 -1.0998
 1802TIP3   OH226896   6.672   5.079  15.592  0.2884  0.1286  0.0258
 1802TIP3    H126897   6.662   5.004  15.650  1.3708  0.0876  0.1820
 1802TIP3    H226898   6.612   5.062  15.520 -0.9650  0.1039  1.0457
 1803TIP3   OH226899   6.223   1.636  15.851 -0.2491  0.4957  0.1796
 1803TIP3    H126900   6.138   1.678  15.837  1.2178  3.1419 -1.7677
 1803TIP3    H226901   6.231   1.573  15.780 -0.1953  0.9587 -0.2304
 1804TIP3   OH226902   2.731   0.804  12.009 -0.4192 -0.5523  0.0510
 1804TIP3    H126903   2.759   0.720  11.973 -1.2759 -1.0576  0.5457
 1804TIP3    H226904   2.644   0.788  12.044 -0.1637  0.2714  1.1292
 1805TIP3   OH226905   6.333   5.908  15.768 -0.5500 -0.3485  0.5699
 1805TIP3    H126906   6.385   5.846  15.717 -3.2580 -1.7937 -0.6529
 1805TIP3    H226907   6.374   5.993  15.751  2.1576 -1.5000  0.8078
 1806TIP3   OH226908   6.318   2.105  11.495  0.1219  0.2145  0.1208
 1806TIP3    H126909   6.241   2.080  11.444  0.0048  1.5222 -0.3588
 1806TIP3    H226910   6.319   2.042  11.568 -2.1600  0.9892  0.9084
 1807TIP3   OH226911   1.716   4.000  17.053 -0.5517 -0.2486 -0.0206
 1807TIP3    H126912   1.795   3.946  17.054  0.0062  0.5281 -0.6568
 1807TIP3    H226913   1.733   4.069  17.117 -0.3815  0.3648 -0.7166
 1808TIP3   OH226914   6.586   6.541   2.455 -0.3810  0.1950 -0.5973
 1808TIP3    H126915   6.681   6.552   2.460 -0.3747 -0.1782  0.3541
 1808TIP3    H226916   6.568   6.464   2.509 -1.2322  0.3397 -0.6648
 1809TIP3   OH226917   2.371   4.436   2.353  0.2515 -0.1851 -0.3611
 1809TIP3    H126918   2.448   4.387   2.381 -0.0947  0.3066  1.5692
 1809TIP3    H226919   2.321   4.373   2.301  1.0984 -1.0517 -0.1712
 1810TIP3   OH226920   2.767   4.179  13.897 -0.5534 -0.4801 -0.6108
 1810TIP3    H126921   2.804   4.251  13.848 -0.3644 -0.2736 -0.1719
 1810TIP3    H226922   2.683   4.162  13.856 -0.7685  0.2448 -0.4747
 1811TIP3   OH226923   1.269   6.084  11.230 -0.1912 -0.2655  0.6233
 1811TIP3    H126924   1.293   6.151  11.294  0.9234 -1.2914  1.3274
 1811TIP3    H226925   1.299   6.119  11.146 -0.7011  0.6185  0.7906
 1812TIP3   OH226926   1.714   1.885   3.616 -0.4980 -0.8381 -0.2141
 1812TIP3    H126927   1.703   1.867   3.709  0.6775  2.1838  0.6052
 1812TIP3    H226928   1.806   1.864   3.598  0.1453  1.4757  0.1235
 1813TIP3   OH226929   4.871   3.169  12.979 -0.2791 -0.0252  0.3499
 1813TIP3    H126930   4.916   3.131  13.055 -1.9204 -0.4354  1.1600
 1813TIP3    H226931   4.845   3.093  12.927  0.6035  0.2459 -0.5190
 1814TIP3   OH226932   0.903   3.555   4.180 -0.1971 -0.3164  0.3168
 1814TIP3    H126933   0.889   3.507   4.099 -2.1457 -2.6092  1.8489
 1814TIP3    H226934   0.900   3.488   4.248 -1.1968  1.7782  2.4835
 1815TIP3   OH226935   5.181   2.350   5.973  0.0208 -0.6609 -0.3045
 1815TIP3    H126936   5.210   2.259   5.969  2.9962 -0.1401  3.6776
 1815TIP3    H226937   5.249   2.396   6.021 -3.3585  2.8147  1.8137
 1816TIP3   OH226938   3.819   0.469   5.502 -0.1050  0.1888  0.2277
 1816TIP3    H126939   3.742   0.415   5.515 -0.7144  1.2232  1.0651
 1816TIP3    H226940   3.892   0.407   5.497 -0.7933 -0.7098  1.0574
 1817TIP3   OH226941   3.545   4.802  13.671 -0.1995 -0.1538  0.6174
 1817TIP3    H126942   3.546   4.792  13.575  3.2522  1.4077  0.3412
 1817TIP3    H226943   3.489   4.731  13.702 -2.4855  0.0292 -2.5888
 1818TIP3   OH226944   2.082   0.800   3.659 -0.1858  0.5949 -0.0646
 1818TIP3    H126945   1.988   0.789   3.642 -0.2260  1.2429 -0.2817
 1818TIP3    H226946   2.104   0.884   3.618  0.3945  0.6640  0.3796
 1819TIP3   OH226947   1.682   2.258   5.175 -0.3020 -0.5408 -0.6134
 1819TIP3    H126948   1.668   2.182   5.231  1.2095  0.4950  1.3027
 1819TIP3    H226949   1.672   2.333   5.234  1.4650  0.6090 -1.6850
 1820TIP3   OH226950   1.433   3.108  16.861 -0.0831 -0.2607  0.8919
 1820TIP3    H126951   1.348   3.131  16.824  0.5257  0.7796  0.0668
 1820TIP3    H226952   1.452   3.022  16.825  0.5317  0.7469 -1.4186
 1821TIP3   OH226953   1.169   4.412   2.242  0.0046 -1.0647  0.3506
 1821TIP3    H126954   1.089   4.366   2.213  1.2829 -3.4941  0.4072
 1821TIP3    H226955   1.181   4.384   2.332  0.3111  0.2514  0.7410
 1822TIP3   OH226956   3.912   0.021  11.958 -0.1889  0.5409 -0.1786
 1822TIP3    H126957   3.830  -0.000  11.915  0.4400  1.3426 -1.8674
 1822TIP3    H226958   3.915   0.117  11.959  1.2720  0.5387 -1.3052
 1823TIP3   OH226959   1.041   1.162  12.193  0.0037  0.5757  1.2319
 1823TIP3    H126960   1.027   1.095  12.127 -1.0110 -0.3330  2.3159
 1823TIP3    H226961   1.040   1.244  12.144  1.3921 -0.1690 -0.1393
 1824TIP3   OH226962   3.414   2.203   5.487  0.3858  0.0357 -0.1573
 1824TIP3    H126963   3.337   2.256   5.467  0.4373  0.3893  0.5406
 1824TIP3    H226964   3.385   2.113   5.475  0.4231  0.2107 -1.8135
 1825TIP3   OH226965   0.582   5.368   0.787 -0.1639 -0.6473 -0.0729
 1825TIP3    H126966   0.522   5.393   0.857  0.6408 -0.3164  0.5199
 1825TIP3    H226967   0.597   5.275   0.801 -0.8672 -0.8297 -0.4889
 1826TIP3   OH226968   3.021   4.414  14.197 -0.3038  0.0279 -0.2773
 1826TIP3    H126969   3.101   4.363  14.212 -0.8881 -0.7384  0.2813
 1826TIP3    H226970   2.974   4.410  14.280 -0.5563  1.1535 -0.3474
 1827TIP3   OH226971   1.711   3.252   4.241  0.0500  0.8927 -0.1989
 1827TIP3    H126972   1.647   3.197   4.196  2.3076 -0.4987 -1.9509
 1827TIP3    H226973   1.740   3.199   4.315  2.7016 -0.7906 -2.2524
 1828TIP3   OH226974   1.170   2.687   1.902  0.2256 -0.1893  0.2765
 1828TIP3    H126975   1.247   2.743   1.886 -0.3845  0.3593 -0.9030
 1828TIP3    H226976   1.203   2.598   1.894  1.0296 -0.0059  1.2612
 1829TIP3   OH226977   5.259   5.969   2.384  0.4056 -0.0644 -0.0385
 1829TIP3    H126978   5.320   6.028   2.427  1.5337 -0.9191 -0.4055
 1829TIP3    H226979   5.311   5.926   2.316 -0.0185 -2.3518  0.9758
 1830TIP3   OH226980   3.904   0.983   5.778  0.1992  0.3267  0.5286
 1830TIP3    H126981   3.897   0.899   5.732 -1.2940 -0.1151  1.5124
 1830TIP3    H226982   3.990   1.017   5.752  0.3253 -0.9273 -0.8366
 1831TIP3   OH226983   3.176   0.015   5.599 -0.2443  0.1337 -0.1939
 1831TIP3    H126984   3.101   0.031   5.542  0.3957  0.8254 -0.8657
 1831TIP3    H226985   3.225  -0.055   5.555  0.9462  1.5641 -1.2151
 1832TIP3   OH226986   3.887   6.121  16.559  0.0420  0.1747  0.3014
 1832TIP3    H126987   3.924   6.052  16.615  0.4979  0.2893  0.1487
 1832TIP3    H226988   3.962   6.156  16.512 -0.1868  0.7770  0.3740
 1833TIP3   OH226989   6.455   3.805   4.065 -0.4697  1.0026 -0.4158
 1833TIP3    H126990   6.367   3.814   4.103 -1.0738  1.5480 -1.8548
 1833TIP3    H226991   6.513   3.792   4.140 -2.0268 -1.6261  0.4644
 1834TIP3   OH226992   2.623   0.190   5.640 -0.3463 -0.3091 -0.3947
 1834TIP3    H126993   2.608   0.128   5.711  0.2612  1.3691  1.2950
 1834TIP3    H226994   2.685   0.145   5.582 -0.5333 -1.5746  0.3458
 1835TIP3   OH226995   1.181   6.589  13.605  0.2563 -0.1339  0.0644
 1835TIP3    H126996   1.251   6.654  13.608  0.0725  0.0395  0.8413
 1835TIP3    H226997   1.103   6.638  13.579 -0.1964  0.2695  2.0568
 1836TIP3   OH226998   1.044   0.922   4.797  0.4307  0.1469  0.4822
 1836TIP3    H126999   1.120   0.978   4.811  0.8899 -0.4694  0.4683
 1836TIP3    H227000   1.065   0.841   4.842 -1.1281  0.6965  2.3114
 1837TIP3   OH227001   4.852   5.634   5.927 -0.4015  0.9004 -0.4489
 1837TIP3    H127002   4.947   5.644   5.925 -0.2685 -0.1977 -0.1751
 1837TIP3    H227003   4.837   5.539   5.932 -1.5361  0.9431 -1.9772
 1838TIP3   OH227004   5.619   0.954   1.544 -0.5301 -0.1272  0.2431
 1838TIP3    H127005   5.562   0.956   1.621 -0.0694  3.0018  0.6456
 1838TIP3    H227006   5.690   1.015   1.565  0.2621 -0.0938 -2.1946
 1839TIP3   OH227007   3.281   1.112  14.495 -0.5384  0.0403  0.3593
 1839TIP3    H127008   3.296   1.129  14.402  0.3162 -2.5750 -0.0636
 1839TIP3    H227009   3.329   1.181  14.540 -0.3832  0.9364 -1.1059
 1840TIP3   OH227010   0.084   1.820  13.587  0.2565 -0.1453 -0.0873
 1840TIP3    H127011   0.034   1.750  13.546 -0.0726 -1.1291  1.8577
 1840TIP3    H227012   0.164   1.777  13.619  1.0646  0.8305 -0.7216
 1841TIP3   OH227013   5.112   4.636  15.807 -0.4097  0.2900  0.1867
 1841TIP3    H127014   5.121   4.595  15.892 -0.8666  1.5263  0.8622
 1841TIP3    H227015   5.021   4.665  15.804 -0.6544 -0.5424 -1.1080
 1842TIP3   OH227016   0.325   3.839   0.921  0.0296  0.2069 -0.0663
 1842TIP3    H127017   0.387   3.910   0.904 -0.0467  0.4427  0.5973
 1842TIP3    H227018   0.365   3.762   0.881  1.4020  0.0711  1.4660
 1843TIP3   OH227019   1.589   3.474   3.445 -0.6392 -0.4375 -0.0006
 1843TIP3    H127020   1.671   3.440   3.408  0.2563  2.0414 -0.5053
 1843TIP3    H227021   1.610   3.491   3.537 -1.1599 -1.4111  0.3128
 1844TIP3   OH227022   0.482   0.678  10.870 -0.1130 -0.5302 -0.3828
 1844TIP3    H127023   0.463   0.585  10.884  0.2872 -0.4905  0.4572
 1844TIP3    H227024   0.577   0.685  10.879 -0.2730  0.1838  0.9754
 1845TIP3   OH227025   6.062   0.647  12.225 -0.2806 -0.6870 -0.1624
 1845TIP3    H127026   5.970   0.623  12.224 -0.4355 -0.7223  3.2314
 1845TIP3    H227027   6.066   0.732  12.181 -2.1721 -0.1016  0.7156
 1846TIP3   OH227028   6.604   0.670  14.465 -0.6463  0.1389 -0.1178
 1846TIP3    H127029   6.599   0.574  14.467  0.3160  0.0717 -0.2693
 1846TIP3    H227030   6.608   0.695  14.557  1.7668 -0.1676 -0.0727
 1847TIP3   OH227031   3.751   0.147   4.536  0.0513 -0.6260 -0.1632
 1847TIP3    H127032   3.665   0.105   4.539 -0.9098  1.0835 -1.9705
 1847TIP3    H227033   3.742   0.226   4.589 -0.2694  0.7702 -2.1875
 1848TIP3   OH227034   6.280   2.208  15.881  0.3620 -0.2447 -0.1299
 1848TIP3    H127035   6.298   2.288  15.930  1.6176 -1.3735  1.3333
 1848TIP3    H227036   6.321   2.223  15.795  1.7376  0.1868  0.5759
 1849TIP3   OH227037   6.473   2.447  16.691 -0.4100  0.1576  0.5998
 1849TIP3    H127038   6.472   2.542  16.696  1.6407  0.2216  0.4458
 1849TIP3    H227039   6.500   2.418  16.778  0.6026 -0.1994  0.1771
 1850TIP3   OH227040   2.941   5.926   4.288 -0.5162 -0.0105  0.2544
 1850TIP3    H127041   3.006   5.877   4.338  1.0845  1.4164 -0.3296
 1850TIP3    H227042   2.918   6.001   4.343  1.9672  2.1075 -1.3184
 1851TIP3   OH227043   2.882   1.244   6.033  0.0754  0.1417  0.0693
 1851TIP3    H127044   2.947   1.186   5.992  1.6117  2.3308 -0.7690
 1851TIP3    H227045   2.928   1.280   6.109  0.0666  2.1087 -0.8127
 1852TIP3   OH227046   1.861   5.523   4.855 -0.5840  0.0452  0.0044
 1852TIP3    H127047   1.916   5.516   4.932  0.7027  0.0501 -0.8849
 1852TIP3    H227048   1.870   5.439   4.811 -0.0070  0.6094 -0.9809
 1853TIP3   OH227049   2.424   3.741  11.741 -0.4389  0.2519  0.1129
 1853TIP3    H127050   2.370   3.692  11.680  2.4362 -1.6514 -1.1271
 1853TIP3    H227051   2.437   3.682  11.815  2.0255 -0.5390 -0.8303
 1854TIP3   OH227052   1.400   6.127   2.196  0.2583  0.1851  0.0881
 1854TIP3    H127053   1.425   6.109   2.105  0.2722 -1.5739  0.3956
 1854TIP3    H227054   1.367   6.043   2.228  2.4584  0.0765  2.4001
 1855TIP3   OH227055   2.469   1.579   5.255 -0.2393 -0.3136 -0.4347
 1855TIP3    H127056   2.478   1.673   5.271  3.0124 -0.6359  0.2064
 1855TIP3    H227057   2.547   1.555   5.205 -1.1218 -2.6519 -0.8340
 1856TIP3   OH227058   4.366   6.386   1.602  0.3318 -0.4015  0.1153
 1856TIP3    H127059   4.405   6.471   1.620  1.7199 -1.1730  0.9545
 1856TIP3    H227060   4.434   6.323   1.628 -1.0680 -1.7819  0.5548
 1857TIP3   OH227061   5.842   6.231   4.190 -0.2664  0.8842  0.1898
 1857TIP3    H127062   5.917   6.269   4.238 -0.4540 -0.5499  1.6943
 1857TIP3    H227063   5.800   6.174   4.254 -0.1495 -1.6644 -1.8694
 1858TIP3   OH227064   2.760   2.953   5.216 -0.4421  0.0544  0.0935
 1858TIP3    H127065   2.851   2.932   5.237 -0.3143  1.4835  1.1269
 1858TIP3    H227066   2.757   3.049   5.216 -2.0972  0.0410  0.8455
 1859TIP3   OH227067   1.769   5.842  15.231  0.1036  0.0332 -0.2835
 1859TIP3    H127068   1.719   5.839  15.313 -0.5963  1.6463 -0.6078
 1859TIP3    H227069   1.706   5.873  15.166  0.1964 -2.6668 -1.8351
 1860TIP3   OH227070   2.786   0.765   2.147  0.1226 -0.0165  0.4848
 1860TIP3    H127071   2.775   0.860   2.136  0.3473  0.1932  1.8884
 1860TIP3    H227072   2.809   0.754   2.239  1.1858 -1.3523  0.0935
 1861TIP3   OH227073   1.057   5.037  16.561 -0.0642  0.4278  0.3246
 1861TIP3    H127074   1.063   5.120  16.513 -1.0476  0.8248  0.8639
 1861TIP3    H227075   1.148   5.009  16.573  0.2764  1.4647  0.2100
 1862TIP3   OH227076   6.750   2.677  11.338  0.7023  0.6887  0.2961
 1862TIP3    H127077   6.667   2.676  11.387  0.6019  0.3424  0.1216
 1862TIP3    H227078   6.723   2.678  11.246  0.8938  0.7463  0.2403
 1863TIP3   OH227079   0.264   5.217   3.414 -0.0731 -0.2125  0.0518
 1863TIP3    H127080   0.260   5.310   3.394 -1.5072 -0.5224 -1.3663
 1863TIP3    H227081   0.302   5.177   3.335  2.8836 -0.6401  1.5759
 1864TIP3   OH227082   4.323   3.836   4.539  0.0728 -0.4160 -0.8588
 1864TIP3    H127083   4.345   3.803   4.626 -1.8688 -0.3218 -0.2897
 1864TIP3    H227084   4.314   3.757   4.485  0.1808 -0.5331 -0.7064
 1865TIP3   OH227085   1.766   4.734  13.699  0.2009 -0.3541  0.6474
 1865TIP3    H127086   1.843   4.771  13.742  0.7131  0.1030 -0.6221
 1865TIP3    H227087   1.740   4.799  13.634 -0.7843 -0.8557  0.5145
 1866TIP3   OH227088   4.853   3.362  13.824  0.6394  0.2158 -0.0015
 1866TIP3    H127089   4.794   3.291  13.799  0.0686  0.4429  0.7007
 1866TIP3    H227090   4.859   3.417  13.745 -0.5630  0.5273  0.1125
 1867TIP3   OH227091   1.198   1.035  14.510  0.2935  0.0254  0.3054
 1867TIP3    H127092   1.224   0.953  14.468 -1.5864  0.7601 -2.5795
 1867TIP3    H227093   1.103   1.031  14.514  0.2769  0.9246  2.8340
 1868TIP3   OH227094   5.043   6.123  13.218 -0.2805 -0.4596 -0.2248
 1868TIP3    H127095   5.020   6.036  13.183  0.0509 -0.5485 -0.2270
 1868TIP3    H227096   4.966   6.150  13.268 -0.9858 -0.1019 -1.4421
 1869TIP3   OH227097   5.210   0.836  13.134  0.0363  0.6225  0.4974
 1869TIP3    H127098   5.287   0.798  13.091 -0.3202 -0.1752  0.5541
 1869TIP3    H227099   5.155   0.761  13.157 -1.3128  1.2337 -0.5882
 1870TIP3   OH227100   2.819   1.192  16.654  0.3112  0.0764 -0.4718
 1870TIP3    H127101   2.824   1.281  16.618 -0.2651  0.4426  0.3197
 1870TIP3    H227102   2.726   1.170  16.653  0.5182 -0.8264 -1.3518
 1871TIP3   OH227103   5.669   4.026  12.145  0.1935  0.5865  0.3326
 1871TIP3    H127104   5.677   3.972  12.223  0.3685  0.7245  0.4106
 1871TIP3    H227105   5.675   3.964  12.072 -0.4202  0.4038  0.4335
 1872TIP3   OH227106   4.058   5.740   5.146  0.2602  0.0569 -0.0969
 1872TIP3    H127107   4.125   5.767   5.208  0.2870  0.4157 -0.2846
 1872TIP3    H227108   4.053   5.811   5.082 -0.7680  0.3443  0.2841
 1873TIP3   OH227109   0.887   4.088   4.055  0.2718  0.4756 -0.3522
 1873TIP3    H127110   0.852   4.079   4.143  1.9555  1.8615  0.5144
 1873TIP3    H227111   0.874   4.002   4.015 -3.1070  0.6109  0.1981
 1874TIP3   OH227112   2.981   3.556   2.548 -0.1393  0.1407  0.6445
 1874TIP3    H127113   2.976   3.621   2.617  0.1057  0.2956  0.5158
 1874TIP3    H227114   3.061   3.507   2.566  0.3202  0.6606  0.0507
 1875TIP3   OH227115   2.704   2.640   6.085 -0.6696  0.1532 -0.0823
 1875TIP3    H127116   2.755   2.604   6.012 -0.8421 -0.2087 -0.0293
 1875TIP3    H227117   2.688   2.565   6.141 -0.0353  0.5423  0.6342
 1876TIP3   OH227118   4.812   2.423   1.527 -0.3602 -0.1186  0.7390
 1876TIP3    H127119   4.773   2.494   1.578  0.3430  0.2516  0.7731
 1876TIP3    H227120   4.737   2.375   1.491 -0.8352  1.0719  0.1052
 1877TIP3   OH227121   1.132   6.457   5.635  0.4106  0.2558  0.0882
 1877TIP3    H127122   1.174   6.533   5.594 -1.0522  1.0215 -0.0675
 1877TIP3    H227123   1.044   6.454   5.596  0.6754 -2.0090 -0.5259
 1878TIP3   OH227124   6.530   1.085  16.426 -0.0869  0.4690  0.1002
 1878TIP3    H127125   6.603   1.031  16.455 -0.1711  0.7379  0.8324
 1878TIP3    H227126   6.492   1.037  16.352  2.8321  1.8915 -2.5649
 1879TIP3   OH227127   6.127   6.324   3.366 -0.1085  0.0499  0.0521
 1879TIP3    H127128   6.203   6.275   3.335  0.9371  1.9402 -0.5517
 1879TIP3    H227129   6.141   6.334   3.460 -0.1160 -0.4076  0.1059
 1880TIP3   OH227130   1.110   5.765  12.546 -0.9603 -0.0328  0.5873
 1880TIP3    H127131   1.125   5.824  12.472  1.3384  0.1030  1.0851
 1880TIP3    H227132   1.149   5.682  12.519  2.3621  0.7157  2.5015
 1881TIP3   OH227133   5.479   4.201   1.371  0.4533  0.3905  0.2939
 1881TIP3    H127134   5.396   4.237   1.340  0.6425  0.9219  0.3933
 1881TIP3    H227135   5.501   4.253   1.448  0.4678 -0.2928  0.7675
 1882TIP3   OH227136   4.802   2.453  15.242  0.0843 -0.5114 -0.5089
 1882TIP3    H127137   4.823   2.361  15.253  1.2308 -0.1897  0.2137
 1882TIP3    H227138   4.795   2.465  15.147 -1.1315 -1.5340 -0.5765
 1883TIP3   OH227139   1.940   0.091  11.391 -0.2130 -0.1375 -0.3423
 1883TIP3    H127140   1.882   0.054  11.325 -0.0548 -0.6989 -0.1756
 1883TIP3    H227141   1.993   0.155  11.343 -0.8805  0.2926 -0.5182
 1884TIP3   OH227142   1.900   3.824   6.339  0.3553  0.1478 -0.0049
 1884TIP3    H127143   1.904   3.813   6.434 -1.2477  1.8348  0.3243
 1884TIP3    H227144   1.806   3.831   6.320  0.6201 -0.6490 -1.7944
 1885TIP3   OH227145   4.636   1.801  15.844 -0.4371 -0.3356 -0.3242
 1885TIP3    H127146   4.638   1.804  15.749  2.1023 -0.8645 -0.3434
 1885TIP3    H227147   4.686   1.723  15.868  0.7586  0.8710  1.4397
 1886TIP3   OH227148   1.103   0.399  17.023  0.2734  0.6272  0.3462
 1886TIP3    H127149   1.159   0.476  17.026  0.0536  0.7674  1.8284
 1886TIP3    H227150   1.099   0.369  17.114 -0.4690 -0.5345 -0.0424
 1887TIP3   OH227151   2.012   5.593   4.297  0.0092 -0.2519  0.4619
 1887TIP3    H127152   2.050   5.517   4.342  1.0269  0.6049  1.1003
 1887TIP3    H227153   2.087   5.635   4.255 -0.8560 -0.7572 -1.6814
 1888TIP3   OH227154   5.784   2.574   5.614 -0.9080  0.1927 -0.1626
 1888TIP3    H127155   5.756   2.639   5.551 -1.6672  1.5006  1.4562
 1888TIP3    H227156   5.744   2.601   5.697 -0.7285 -1.9718  0.7063
 1889TIP3   OH227157   1.905   4.130   1.452 -0.0579 -0.1964 -0.7573
 1889TIP3    H127158   1.871   4.177   1.375 -0.6352 -1.0839 -1.0602
 1889TIP3    H227159   1.994   4.163   1.462  0.4749 -0.9340 -2.5682
 1890TIP3   OH227160   2.849   1.464  11.764  0.0970 -0.6578  0.2888
 1890TIP3    H127161   2.877   1.392  11.708  2.0809 -0.0395  0.3810
 1890TIP3    H227162   2.917   1.470  11.831 -0.0864  1.1818  0.3749
 1891TIP3   OH227163   4.314   3.429   4.530  0.3396  0.3380  0.2639
 1891TIP3    H127164   4.267   3.483   4.465 -0.6599 -0.3075  0.4318
 1891TIP3    H227165   4.253   3.358   4.551  1.0863 -0.0739  1.1000
 1892TIP3   OH227166   3.786   3.818   0.071  0.2786 -0.2419  0.3699
 1892TIP3    H127167   3.874   3.849   0.052  0.2619 -0.7470 -0.6598
 1892TIP3    H227168   3.778   3.821   0.166  1.6149 -0.7323  0.5164
 1893TIP3   OH227169   6.113   1.823  10.216  0.8853 -0.3749  0.5686
 1893TIP3    H127170   6.026   1.851  10.244  0.9325  1.3280 -0.8119
 1893TIP3    H227171   6.128   1.740  10.261 -1.2067 -0.4080  1.2739
 1894TIP3   OH227172   5.399   0.594   4.109  0.5236 -0.0080 -0.2665
 1894TIP3    H127173   5.323   0.536   4.117  0.3024  0.4427  1.2499
 1894TIP3    H227174   5.404   0.614   4.015 -0.9560 -0.4239 -0.4651
 1895TIP3   OH227175   1.596   5.611   4.784  0.3282 -0.0707 -0.4802
 1895TIP3    H127176   1.597   5.660   4.701  0.9970 -0.1097 -0.5022
 1895TIP3    H227177   1.685   5.575   4.791  0.3836  0.2383  0.4424
 1896TIP3   OH227178   4.224   4.207   1.337  0.4154 -0.4592 -0.9591
 1896TIP3    H127179   4.243   4.113   1.329 -0.1763 -0.5515 -1.3691
 1896TIP3    H227180   4.140   4.218   1.292  0.2200  0.1772 -0.4513
 1897TIP3   OH227181   4.125   5.327  16.498 -0.0083  0.2877 -0.1190
 1897TIP3    H127182   4.165   5.337  16.412 -2.0001  2.0761 -0.9526
 1897TIP3    H227183   4.107   5.417  16.526  0.3590 -0.2696  2.0748
 1898TIP3   OH227184   1.685   4.488  11.752 -0.0901 -0.2156 -0.3374
 1898TIP3    H127185   1.620   4.430  11.713 -1.2398  0.2438  0.8377
 1898TIP3    H227186   1.743   4.429  11.801  0.1544 -0.5913 -1.0676
 1899TIP3   OH227187   1.359   5.831   0.933 -0.3436  0.1555 -0.4173
 1899TIP3    H127188   1.290   5.815   0.997 -1.5611 -0.6435 -1.8513
 1899TIP3    H227189   1.323   5.797   0.851  1.6830 -0.1094 -1.2577
 1900TIP3   OH227190   1.797   5.720  11.889  0.4372 -0.0302  0.2227
 1900TIP3    H127191   1.800   5.629  11.860  0.9532  0.3700 -1.0488
 1900TIP3    H227192   1.880   5.758  11.858  0.6796  0.6394  1.5754
 1901TIP3   OH227193   0.758   2.389  16.698 -0.2759 -0.5573 -0.4091
 1901TIP3    H127194   0.699   2.464  16.693 -0.0598 -0.4373 -1.5468
 1901TIP3    H227195   0.811   2.405  16.776 -1.8541 -0.7713  0.7746
 1902TIP3   OH227196   3.141   5.140  16.702 -0.0144  0.1934 -0.3582
 1902TIP3    H127197   3.177   5.073  16.643 -1.0760  0.2338 -1.0722
 1902TIP3    H227198   3.141   5.098  16.788 -0.0733 -0.4925 -0.6834
 1903TIP3   OH227199   5.498   3.404   4.692  0.0813  0.4187  0.3989
 1903TIP3    H127200   5.538   3.347   4.758 -0.0124 -1.1292 -0.8388
 1903TIP3    H227201   5.528   3.369   4.608 -1.2185  1.2644 -0.4467
 1904TIP3   OH227202   5.606   4.848  12.524 -0.2200 -0.3602 -0.2850
 1904TIP3    H127203   5.622   4.777  12.462  2.2547 -0.5353  0.4506
 1904TIP3    H227204   5.534   4.815  12.579 -2.1479 -0.3848 -2.6419
 1905TIP3   OH227205   5.236   4.817  14.610 -0.4120  0.2025 -0.2326
 1905TIP3    H127206   5.168   4.860  14.559 -0.7132  0.7819  0.6410
 1905TIP3    H227207   5.231   4.858  14.696  0.2470 -0.5916  0.1952
 1906TIP3   OH227208   4.900   6.641  15.691 -0.3098  0.0766 -0.4641
 1906TIP3    H127209   4.893   6.583  15.615 -3.6863 -0.0841 -0.1723
 1906TIP3    H227210   4.869   6.726  15.659 -2.6058 -0.1954  0.8133
 1907TIP3   OH227211   1.700   6.526   4.377  0.1497  0.2569  0.6392
 1907TIP3    H127212   1.771   6.549   4.316  0.8917 -1.8903  0.6161
 1907TIP3    H227213   1.625   6.507   4.321  0.4599 -0.4732  0.4664
 1908TIP3   OH227214   6.582   3.648  11.389  0.4428 -0.3993  0.6017
 1908TIP3    H127215   6.570   3.743  11.382 -0.7430 -0.4883  1.2721
 1908TIP3    H227216   6.677   3.636  11.382  0.5706  0.7943  0.0700
 1909TIP3   OH227217   0.632   3.095  13.090  0.1244 -0.2035  0.1846
 1909TIP3    H127218   0.619   3.148  13.011 -0.0391 -1.9328 -1.0095
 1909TIP3    H227219   0.724   3.068  13.087  0.6199  1.1470  1.5765
 1910TIP3   OH227220   5.984   5.780   6.283  0.1010 -0.0618 -0.2727
 1910TIP3    H127221   5.954   5.871   6.291 -0.5177 -0.2321 -0.5493
 1910TIP3    H227222   6.077   5.787   6.263  0.0677  0.5091 -0.2520
 1911TIP3   OH227223   0.328   2.569  13.937 -0.1426 -0.4005 -0.5475
 1911TIP3    H127224   0.360   2.484  13.967  1.3848 -0.1351 -1.3205
 1911TIP3    H227225   0.404   2.627  13.946 -1.1676  0.9009  0.0122
 1912TIP3   OH227226   5.949   0.273  15.394 -0.3192  0.1252 -0.2184
 1912TIP3    H127227   6.025   0.276  15.453 -0.0053  1.5538 -0.6615
 1912TIP3    H227228   5.987   0.274  15.306 -0.8415 -0.1240 -0.4466
 1913TIP3   OH227229   4.443   1.077  12.463  0.1322 -0.1434  0.3536
 1913TIP3    H127230   4.410   1.025  12.390  1.8572  1.5074 -1.7528
 1913TIP3    H227231   4.538   1.079  12.449  0.4158  0.9891  2.1389
 1914TIP3   OH227232   2.320   0.752  12.688 -0.0241  0.2632 -0.5500
 1914TIP3    H127233   2.300   0.759  12.781 -0.6810 -0.1255 -0.6562
 1914TIP3    H227234   2.299   0.661  12.666  1.1207  0.0529 -0.8509
 1915TIP3   OH227235   0.816   0.052  16.597  0.0476  0.1529  0.6144
 1915TIP3    H127236   0.785   0.131  16.641 -0.7003  0.8590 -1.1091
 1915TIP3    H227237   0.806   0.071  16.504  0.8508 -1.5842  0.1422
 1916TIP3   OH227238   1.968   4.381  10.831  0.2222  0.0906  0.0504
 1916TIP3    H127239   1.876   4.357  10.828  0.1626  0.3660 -0.4359
 1916TIP3    H227240   2.010   4.325  10.765  0.6907 -1.1952  1.3833
 1917TIP3   OH227241   4.829   1.064  13.786  0.0229  0.0064  0.3496
 1917TIP3    H127242   4.796   1.138  13.735 -0.4181 -1.1125 -1.0448
 1917TIP3    H227243   4.769   1.059  13.861 -1.6816 -0.6183 -0.9936
 1918TIP3   OH227244   2.752   3.728   2.175  0.0719  0.1100  0.3745
 1918TIP3    H127245   2.805   3.804   2.198  0.7760  0.0270 -0.8713
 1918TIP3    H227246   2.764   3.667   2.248  1.9805 -0.0359 -0.0037
 1919TIP3   OH227247   3.232   3.003   4.480 -0.4647 -0.5737  0.2365
 1919TIP3    H127248   3.284   3.013   4.560  0.7500 -0.2802 -0.5532
 1919TIP3    H227249   3.223   3.092   4.446  1.6835 -0.9357 -1.5241
 1920TIP3   OH227250   0.221   3.217  11.058 -0.3762  0.0840 -0.5326
 1920TIP3    H127251   0.264   3.166  11.127 -1.4305  0.8978  0.7896
 1920TIP3    H227252   0.256   3.306  11.069 -1.3076  0.4424 -0.3531
 1921TIP3   OH227253   6.218   2.985  13.669  0.2864  0.4404 -0.0017
 1921TIP3    H127254   6.215   2.943  13.755  1.2060 -1.1329 -0.7067
 1921TIP3    H227255   6.126   3.000  13.646 -0.0076 -0.1391  0.7738
 1922TIP3   OH227256   5.898   2.333  11.414 -0.1217  0.1835 -0.3709
 1922TIP3    H127257   5.944   2.250  11.424  0.6336  0.4437 -1.5162
 1922TIP3    H227258   5.851   2.345  11.497  0.2353 -1.0850  0.0265
 1923TIP3   OH227259   0.789   6.067  11.232 -0.3570  0.3376  0.1562
 1923TIP3    H127260   0.776   5.972  11.240 -0.1857  0.3387  0.5029
 1923TIP3    H227261   0.746   6.091  11.150  0.1867 -0.1517 -0.2813
 1924TIP3   OH227262   4.389   1.419  11.798 -0.2346 -0.1155  0.0448
 1924TIP3    H127263   4.296   1.400  11.792 -0.2154 -0.2545  0.2033
 1924TIP3    H227264   4.429   1.371  11.725  0.0178 -1.9348  1.3180
 1925TIP3   OH227265   3.602   3.933   5.518 -0.1659 -0.5865 -0.4678
 1925TIP3    H127266   3.555   3.918   5.436 -1.5983 -1.5568  0.4915
 1925TIP3    H227267   3.606   4.028   5.526 -1.6069 -0.4739 -0.8023
 1926TIP3   OH227268   5.240   3.888  14.303  0.1105 -0.6257 -0.5217
 1926TIP3    H127269   5.208   3.833  14.375 -1.7686  0.8619 -0.1417
 1926TIP3    H227270   5.221   3.977  14.330  2.4089  0.2297 -1.4562
 1927TIP3   OH227271   4.401   0.476  13.415  0.6397  0.1535  0.3402
 1927TIP3    H127272   4.446   0.531  13.479  1.1677 -2.5345  2.4384
 1927TIP3    H227273   4.412   0.387  13.447 -3.0668 -0.9751 -1.0347
 1928TIP3   OH227274   0.800   2.334  11.942  0.2423 -0.3114 -0.0600
 1928TIP3    H127275   0.869   2.287  11.896  0.9518  1.0414 -0.4474
 1928TIP3    H227276   0.847   2.388  12.006 -0.5681 -0.3758  0.6145
 1929TIP3   OH227277   4.534   6.327  12.836  0.5605 -0.1747  0.6707
 1929TIP3    H127278   4.484   6.354  12.913  1.3872 -0.0029  1.1598
 1929TIP3    H227279   4.478   6.264  12.792 -0.8803  1.3967  0.1919
 1930TIP3   OH227280   2.557   5.387   1.185 -0.3859 -0.2681  0.1612
 1930TIP3    H127281   2.591   5.368   1.272  1.9586  0.8263 -0.4372
 1930TIP3    H227282   2.571   5.307   1.135 -1.0573 -0.6484  0.5552
 1931TIP3   OH227283   2.099   6.332  12.861 -0.2959 -0.2481 -0.6163
 1931TIP3    H127284   2.194   6.343  12.858 -0.1025 -1.1400  1.1873
 1931TIP3    H227285   2.072   6.376  12.941 -1.3843 -0.2699 -0.9551
 1932TIP3   OH227286   1.231   2.254  15.072 -0.2060  0.0279  0.9422
 1932TIP3    H127287   1.190   2.235  14.988  0.5759 -0.0067  0.5596
 1932TIP3    H227288   1.300   2.317  15.051 -0.4711  0.5802  1.6711
 1933TIP3   OH227289   3.381   5.474   4.007 -0.6681  0.6001 -0.1423
 1933TIP3    H127290   3.464   5.511   3.977  0.2226 -1.8167 -0.8752
 1933TIP3    H227291   3.379   5.492   4.101  1.1061  0.0048  0.0437
 1934TIP3   OH227292   4.771   3.598  17.119 -0.8782 -0.5150 -0.0341
 1934TIP3    H127293   4.781   3.689  17.147  0.9565 -0.8494  0.5158
 1934TIP3    H227294   4.693   3.599  17.064  0.8511  2.0663 -2.8139
 1935TIP3   OH227295   4.288   1.698   1.017  0.1092 -0.1400 -0.5908
 1935TIP3    H127296   4.368   1.734   1.055 -0.2284 -0.0976  0.1061
 1935TIP3    H227297   4.284   1.608   1.051 -1.3351  0.5767  1.3571
 1936TIP3   OH227298   3.187   4.535   2.610 -0.7421 -0.2269  0.2824
 1936TIP3    H127299   3.196   4.463   2.547 -0.9056  0.1410 -0.1627
 1936TIP3    H227300   3.199   4.493   2.695 -0.0699 -0.6475 -0.0117
 1937TIP3   OH227301   4.435   5.456  16.554  0.2109 -0.3233 -0.2794
 1937TIP3    H127302   4.528   5.438  16.540  0.2374  0.3552 -1.0582
 1937TIP3    H227303   4.426   5.463  16.649  1.2265  0.9035 -0.2459
 1938TIP3   OH227304   0.421   6.371   1.181 -0.2880 -0.0153  0.7490
 1938TIP3    H127305   0.472   6.400   1.257  1.2883 -1.7759  0.4374
 1938TIP3    H227306   0.483   6.320   1.129 -1.5968  0.3399 -1.2474
 1939TIP3   OH227307   5.779   1.155  13.432 -0.5888 -0.1480 -0.1558
 1939TIP3    H127308   5.841   1.088  13.462 -1.2225 -0.6843 -0.0152
 1939TIP3    H227309   5.810   1.178  13.345  0.7527  0.7697  0.5223
 1940TIP3   OH227310   0.418   5.932  11.993 -0.5780  0.2713 -0.3667
 1940TIP3    H127311   0.450   6.018  12.019 -1.1975  0.4441 -0.1624
 1940TIP3    H227312   0.354   5.950  11.925 -0.5731 -0.0406 -0.4545
 1941TIP3   OH227313   3.815   2.259  10.131 -0.1819  0.4876 -0.9236
 1941TIP3    H127314   3.748   2.212  10.180  0.3373  0.4382 -0.2388
 1941TIP3    H227315   3.785   2.258  10.041 -0.5532 -0.5000 -0.8007
 1942TIP3   OH227316   1.290   0.643  16.645 -0.0162 -0.6427  0.0051
 1942TIP3    H127317   1.248   0.557  16.635 -0.6954 -0.6574  2.3650
 1942TIP3    H227318   1.294   0.678  16.556 -1.0714 -2.4941 -0.8339
 1943TIP3   OH227319   0.551   0.139  16.749  0.0584  0.3349  0.5441
 1943TIP3    H127320   0.495   0.091  16.810  0.2488 -0.1481  0.3496
 1943TIP3    H227321   0.520   0.229  16.752 -1.3489 -0.1007 -0.2532
 1944TIP3   OH227322   2.298   2.236   2.325  0.2431 -0.9004 -0.2909
 1944TIP3    H127323   2.362   2.189   2.270  0.3621 -2.7859  1.3190
 1944TIP3    H227324   2.265   2.306   2.269  0.5583 -2.5083 -2.6585
 1945TIP3   OH227325   2.769   3.902   4.847 -0.5013  0.8248  0.1270
 1945TIP3    H127326   2.821   3.979   4.869  0.9562  0.1384 -0.7413
 1945TIP3    H227327   2.691   3.909   4.901  1.3186  0.9512  2.9054
 1946TIP3   OH227328   5.385   0.040   4.316  0.2338 -0.1354  0.4065
 1946TIP3    H127329   5.335   0.044   4.235 -0.6804  1.0319  0.9997
 1946TIP3    H227330   5.344  -0.031   4.367  0.8584 -0.9217 -0.1518
 1947TIP3   OH227331   2.663   0.659   4.423  0.4351  0.5540 -0.6028
 1947TIP3    H127332   2.697   0.730   4.477 -2.3112  0.7300  1.0737
 1947TIP3    H227333   2.572   0.682   4.408  0.0418 -1.5800 -1.8668
 1948TIP3   OH227334   2.982   6.000  10.684 -0.2459  0.0773  0.2611
 1948TIP3    H127335   2.961   5.967  10.597  1.1516 -0.0408 -0.0646
 1948TIP3    H227336   3.006   5.922  10.734 -2.2798 -0.0248  1.1808
 1949TIP3   OH227337   1.942   4.381   0.409  0.1156  0.0443  0.2337
 1949TIP3    H127338   1.900   4.415   0.489  0.6154  0.2816  0.3969
 1949TIP3    H227339   1.879   4.318   0.375 -1.2153  1.6801 -0.5182
 1950TIP3   OH227340   5.298   2.774  10.391 -0.1437 -0.1378  0.1684
 1950TIP3    H127341   5.284   2.680  10.393 -2.8054  0.1920  0.9182
 1950TIP3    H227342   5.210   2.812  10.393  0.8379  2.3816  0.0886
 1951TIP3   OH227343   1.200   3.733   5.970  0.1322  0.1243  0.6272
 1951TIP3    H127344   1.190   3.763   6.061 -1.1715 -1.1113  0.9374
 1951TIP3    H227345   1.125   3.771   5.924 -0.7385 -1.4154  0.7128
 1952TIP3   OH227346   0.029   3.670   0.709  0.2758 -0.6004 -0.3368
 1952TIP3    H127347   0.089   3.597   0.726 -1.3196 -2.0210 -0.5208
 1952TIP3    H227348  -0.000   3.657   0.619  0.9511  1.0570 -0.8360
 1953TIP3   OH227349   0.193   0.218  12.859 -0.5713 -0.0250  0.5413
 1953TIP3    H127350   0.206   0.239  12.767 -0.9451  0.9728  0.7074
 1953TIP3    H227351   0.147   0.294  12.895 -4.5297 -2.1667  0.5713
 1954TIP3   OH227352   1.236   0.217   3.658  0.4512 -0.6681 -0.1569
 1954TIP3    H127353   1.164   0.241   3.717  1.3096  0.0762  0.6225
 1954TIP3    H227354   1.315   0.244   3.704  1.0969  2.0567 -2.5637
 1955TIP3   OH227355   1.388   6.343   2.011  0.3919 -0.4580 -0.5315
 1955TIP3    H127356   1.297   6.323   1.993 -0.4032  0.7590  1.7315
 1955TIP3    H227357   1.401   6.318   2.103  2.7216 -1.8284 -1.1491
 1956TIP3   OH227358   0.119   0.463  13.005  0.5304 -0.6756  0.2609
 1956TIP3    H127359   0.181   0.459  13.078  1.9385  0.0856 -0.8457
 1956TIP3    H227360   0.105   0.556  12.990  0.4766 -0.8178 -0.6193
 1957TIP3   OH227361   5.634   5.094  16.803 -0.1878  0.1364 -0.1654
 1957TIP3    H127362   5.540   5.090  16.824 -0.0132 -0.4492  0.5702
 1957TIP3    H227363   5.649   5.184  16.777 -1.0489  0.1326 -0.7153
 1958TIP3   OH227364   6.175   4.609   5.807  0.7345 -0.5609 -0.0156
 1958TIP3    H127365   6.157   4.665   5.882 -0.0033 -1.3744  0.4406
 1958TIP3    H227366   6.094   4.610   5.756 -0.0565 -2.7586  1.0572
 1959TIP3   OH227367   0.957   4.197   1.735  0.4237  0.0451 -0.2607
 1959TIP3    H127368   0.981   4.108   1.760  0.6319  0.1903  0.0620
 1959TIP3    H227369   0.967   4.248   1.815 -1.4374  0.0290  0.0112
 1960TIP3   OH227370   2.630   1.133  10.581 -0.1384 -0.1093  0.5312
 1960TIP3    H127371   2.541   1.120  10.614  0.1594  0.5111  1.6154
 1960TIP3    H227372   2.638   1.228  10.571  0.4247 -0.1616  0.4877
 1961TIP3   OH227373   4.895   0.027  15.444 -0.4481 -0.0599 -0.3623
 1961TIP3    H127374   4.832   0.056  15.509 -2.0941 -0.5641 -1.6715
 1961TIP3    H227375   4.879   0.082  15.368  2.8494  1.9578  0.1917
 1962TIP3   OH227376   2.240   5.251  14.933  0.1533 -0.0261  0.0688
 1962TIP3    H127377   2.220   5.196  15.009  1.5039  0.5261  0.8608
 1962TIP3    H227378   2.195   5.334  14.953  0.0926 -0.0456  0.0155
 1963TIP3   OH227379   6.224   4.213   2.163 -0.0275 -0.6825 -0.0619
 1963TIP3    H127380   6.297   4.201   2.103  0.2942 -0.0058  0.1767
 1963TIP3    H227381   6.146   4.200   2.109  0.2391  0.7047 -0.8456
 1964TIP3   OH227382   3.123   3.938   2.867  0.5370  0.8825  0.8756
 1964TIP3    H127383   3.152   3.889   2.944 -0.7256  0.7878  1.3102
 1964TIP3    H227384   3.030   3.954   2.882 -0.0015 -0.0653 -1.1224
 1965TIP3   OH227385   3.199   4.618  12.445  0.5432 -0.4490  0.4190
 1965TIP3    H127386   3.152   4.577  12.372 -0.1870 -0.8198  1.0822
 1965TIP3    H227387   3.264   4.552  12.471  1.2311 -0.0708 -0.2770
 1966TIP3   OH227388   3.185   6.441  12.325 -0.1673  0.3311 -0.4538
 1966TIP3    H127389   3.129   6.473  12.254 -0.7598  0.9057  0.2678
 1966TIP3    H227390   3.273   6.466  12.298 -0.3679  0.4229 -1.0497
 1967TIP3   OH227391   6.525   4.056   5.275 -0.1828  0.1213 -0.0535
 1967TIP3    H127392   6.449   4.054   5.218 -0.9621  0.2445  0.9384
 1967TIP3    H227393   6.529   3.968   5.313  0.3850  0.0099 -0.3590
 1968TIP3   OH227394   5.481   1.184  15.818  0.1584  0.5388 -0.2464
 1968TIP3    H127395   5.569   1.148  15.810 -0.8511 -1.8830 -1.6322
 1968TIP3    H227396   5.458   1.212  15.729 -1.0503 -0.4063 -0.2592
 1969TIP3   OH227397   3.487   3.138  13.524 -0.2772  0.0408 -0.3767
 1969TIP3    H127398   3.526   3.050  13.524  0.0092  0.1646 -0.4836
 1969TIP3    H227399   3.431   3.140  13.602 -0.9604 -0.5302 -0.8364
 1970TIP3   OH227400   4.952   2.478   4.080  0.5918  0.2182 -0.2346
 1970TIP3    H127401   5.004   2.526   4.145  2.7944 -0.4205 -1.4373
 1970TIP3    H227402   5.004   2.401   4.060 -0.8102 -0.4234 -1.6041
 1971TIP3   OH227403   1.338   2.282  14.090 -0.0250 -0.3736 -0.0137
 1971TIP3    H127404   1.310   2.307  14.178  1.4112 -1.9202  0.9369
 1971TIP3    H227405   1.434   2.284  14.093  0.0775  0.8638 -1.9710
 1972TIP3   OH227406   0.454   0.628  17.064 -0.5129  0.0118  0.1188
 1972TIP3    H127407   0.389   0.565  17.094  0.4835 -0.4367  1.4653
 1972TIP3    H227408   0.534   0.602  17.109  0.7329  0.2689 -1.8102
 1973TIP3   OH227409   1.319   4.423   5.028  0.0578 -0.0959 -0.2110
 1973TIP3    H127410   1.393   4.480   5.008 -0.0690 -0.1156 -0.7783
 1973TIP3    H227411   1.334   4.393   5.117  0.8618 -0.2915 -0.4053
 1974TIP3   OH227412   1.510   0.134  13.051  0.2035 -0.2513 -0.7523
 1974TIP3    H127413   1.533   0.222  13.021 -0.1754 -0.5337 -1.9351
 1974TIP3    H227414   1.488   0.146  13.144 -1.7061  1.2757 -1.3277
 1975TIP3   OH227415   6.066   0.417  13.664  0.3690  0.1904 -0.0568
 1975TIP3    H127416   5.990   0.474  13.673  0.7810  0.6198  0.8544
 1975TIP3    H227417   6.114   0.454  13.590  0.5163  0.9093  0.3824
 1976TIP3   OH227418   3.742   1.828   2.132 -0.7116 -0.1576 -0.0177
 1976TIP3    H127419   3.667   1.800   2.080 -0.3335  2.0830 -1.9111
 1976TIP3    H227420   3.780   1.901   2.083  1.6514 -0.0530  1.7895
 1977TIP3   OH227421   1.867   2.220   1.220 -0.0416  0.6360 -0.2829
 1977TIP3    H127422   1.893   2.172   1.141 -0.0480  0.8736 -0.4308
 1977TIP3    H227423   1.931   2.292   1.226 -0.3920  0.9627 -0.4008
 1978TIP3   OH227424   4.043   5.358  13.160  0.2789  0.1479 -0.0865
 1978TIP3    H127425   4.052   5.308  13.079  1.8860 -0.1686  0.2491
 1978TIP3    H227426   3.998   5.438  13.134 -1.1274 -0.8469 -0.8809
 1979TIP3   OH227427   3.987   0.213  16.011 -0.4031  0.4153 -0.1543
 1979TIP3    H127428   3.925   0.242  16.077  0.5520 -1.1192  1.5013
 1979TIP3    H227429   4.065   0.187  16.060 -0.3792 -2.7747 -1.5829
 1980TIP3   OH227430   1.900   0.583   6.406 -0.5290 -0.1238 -0.3629
 1980TIP3    H127431   1.865   0.498   6.434  0.3217 -0.1320  0.7073
 1980TIP3    H227432   1.978   0.561   6.355  0.5697  0.0428  1.1966
 1981TIP3   OH227433   4.925   5.425   5.079 -0.3110 -0.5620 -0.1014
 1981TIP3    H127434   4.939   5.333   5.060  0.6732 -0.3875 -0.2380
 1981TIP3    H227435   4.914   5.429   5.174  0.3546 -0.7330 -0.0158
 1982TIP3   OH227436   0.454   3.429   5.435  0.0699  0.5307 -0.4290
 1982TIP3    H127437   0.546   3.408   5.450 -0.0083  1.0291  0.9231
 1982TIP3    H227438   0.431   3.489   5.506 -2.0617 -1.8630  1.0912
 1983TIP3   OH227439   5.747   2.100  13.741  0.0297  0.1273 -0.1085
 1983TIP3    H127440   5.695   2.178  13.760 -0.1656 -0.2306  0.8909
 1983TIP3    H227441   5.834   2.134  13.721  0.4247  0.5548  2.0222
 1984TIP3   OH227442   0.087   2.727   2.861 -0.4815 -0.3117 -0.2336
 1984TIP3    H127443   0.010   2.703   2.912 -0.6644 -0.5783 -0.6298
 1984TIP3    H227444   0.161   2.715   2.921 -0.8466  1.3634  0.6467
 1985TIP3   OH227445   5.943   4.898   5.590  0.2341 -0.2787 -0.5338
 1985TIP3    H127446   6.018   4.842   5.565  1.0766 -0.4519  2.0688
 1985TIP3    H227447   5.964   4.926   5.679 -1.0472  2.7785 -1.1042
 1986TIP3   OH227448   6.430   2.449  13.734  0.0951 -0.4443 -0.3307
 1986TIP3    H127449   6.453   2.430  13.643  0.5727  1.7268 -0.7194
 1986TIP3    H227450   6.487   2.522  13.758  1.2019 -2.0079  2.2996
 1987TIP3   OH227451   0.075   5.178  14.386  0.2459 -0.5313 -0.0549
 1987TIP3    H127452   0.016   5.246  14.418  0.3039 -0.6359  0.2679
 1987TIP3    H227453   0.033   5.096  14.410 -0.3648 -0.6395 -1.3796
 1988TIP3   OH227454   3.992   2.905  10.378 -0.1629  0.2522  0.1468
 1988TIP3    H127455   4.064   2.842  10.379  0.9138  1.4494  0.2636
 1988TIP3    H227456   3.956   2.902  10.467  1.2351  1.2578  0.7941
 1989TIP3   OH227457   6.627   0.937   2.878 -0.2787 -0.1731  0.1014
 1989TIP3    H127458   6.606   1.028   2.898 -3.1441 -0.4140 -1.2724
 1989TIP3    H227459   6.609   0.890   2.960 -2.5237  0.0737 -0.1879
 1990TIP3   OH227460   2.891   4.016  11.672 -0.5282 -0.2931 -0.8666
 1990TIP3    H127461   2.866   4.094  11.623  0.0472  1.0769  0.9426
 1990TIP3    H227462   2.807   3.977  11.698 -0.8505  0.9941  0.1228
 1991TIP3   OH227463   3.587   5.037  15.531 -0.2397  1.2956  0.5134
 1991TIP3    H127464   3.499   5.008  15.504  0.3402 -0.7927  0.6445
 1991TIP3    H227465   3.579   5.052  15.625 -0.2232  0.0442  0.7286
 1992TIP3   OH227466   3.241   3.554  12.537 -0.3133 -0.5925  0.3082
 1992TIP3    H127467   3.310   3.487  12.545 -0.3836 -0.6852  0.1577
 1992TIP3    H227468   3.256   3.592  12.450  0.3508  0.2911  0.7960
 1993TIP3   OH227469   6.550   5.242   5.645 -0.1979  0.5012 -0.7431
 1993TIP3    H127470   6.583   5.321   5.688 -1.0609  0.3855  0.1739
 1993TIP3    H227471   6.514   5.189   5.716  0.3524 -0.7212 -1.3506
 1994TIP3   OH227472   4.255   2.081   0.279 -0.3242 -0.1214 -0.8042
 1994TIP3    H127473   4.190   2.149   0.264 -0.1732 -0.2402 -2.0646
 1994TIP3    H227474   4.244   2.019   0.206  1.2259 -0.1078 -1.0851
 1995TIP3   OH227475   5.759   6.538  15.341 -0.0839 -0.5317 -0.1017
 1995TIP3    H127476   5.850   6.516  15.360  0.2658 -1.3054 -2.3331
 1995TIP3    H227477   5.708   6.469  15.384  0.6116 -1.8947 -1.3616
 1996TIP3   OH227478   5.820   6.671   5.546  1.0182 -0.3027 -0.2959
 1996TIP3    H127479   5.837   6.754   5.502  0.1055 -0.2964 -0.6593
 1996TIP3    H227480   5.878   6.671   5.622 -0.1309  1.4161  0.6452
 1997TIP3   OH227481   2.219   2.854   5.722 -0.5408  0.0383  0.2736
 1997TIP3    H127482   2.133   2.859   5.764 -1.0761  1.4040 -0.9022
 1997TIP3    H227483   2.202   2.811   5.639  0.0809 -0.4449  0.3903
 1998TIP3   OH227484   2.948   6.560  13.453 -0.5757 -0.4006  0.1315
 1998TIP3    H127485   2.914   6.557  13.543  0.8232  0.4304  0.7056
 1998TIP3    H227486   3.040   6.583  13.462 -0.1328 -1.3662 -1.4703
 1999TIP3   OH227487   5.381   1.918  14.456  0.5355 -0.7856  0.5329
 1999TIP3    H127488   5.464   1.953  14.489 -0.1334 -1.1157  2.7572
 1999TIP3    H227489   5.406   1.837  14.412  1.6094  0.2343 -0.8397
 2000TIP3   OH227490   5.840   0.580  17.160 -0.3330  0.8842  0.0513
 2000TIP3    H127491   5.817   0.581  17.253 -2.2149  1.6135 -0.3753
 2000TIP3    H227492   5.800   0.659  17.124  2.7243  2.1738 -0.9158
 2001TIP3   OH227493   1.038   5.970   1.288 -0.4482  0.2196 -0.0349
 2001TIP3    H127494   0.944   5.989   1.277 -0.0326  1.5605 -1.8350
 2001TIP3    H227495   1.043   5.875   1.286 -1.6856  0.1433 -0.9997
 2002TIP3   OH227496   6.802   3.191   3.433  0.2005 -0.2224 -0.0220
 2002TIP3    H127497   6.746   3.249   3.381  0.3862  0.6425  0.7332
 2002TIP3    H227498   6.742   3.126   3.469 -0.8581  2.1778  2.9240
 2003TIP3   OH227499   0.482   4.649   0.303 -0.2229  0.1014 -0.1047
 2003TIP3    H127500   0.425   4.701   0.246  0.2291  0.7520  0.0213
 2003TIP3    H227501   0.445   4.661   0.391 -0.0445  0.3153 -0.0581
 2004TIP3   OH227502   1.460   1.048   2.130  0.9280  0.4442 -0.1589
 2004TIP3    H127503   1.505   1.132   2.129  1.7485  0.0175 -0.7815
 2004TIP3    H227504   1.382   1.062   2.077  0.8536  0.9241  0.0798
 2005TIP3   OH227505   3.052   3.935  15.023 -0.3645 -0.1241  0.2652
 2005TIP3    H127506   3.068   3.881  15.100 -0.3692 -0.0293  0.3338
 2005TIP3    H227507   3.120   4.002  15.026  0.1521 -0.6139 -0.2786
 2006TIP3   OH227508   5.098   2.130   2.208  0.7535 -0.2538 -0.0998
 2006TIP3    H127509   5.137   2.046   2.185  3.2892  0.8262 -0.0720
 2006TIP3    H227510   5.152   2.163   2.279  0.9613  2.1992 -1.2942
 2007TIP3   OH227511   5.183   0.780  11.782 -0.2673 -0.3274  0.5550
 2007TIP3    H127512   5.136   0.810  11.704 -1.3659 -2.8475  0.1418
 2007TIP3    H227513   5.116   0.778  11.851 -0.7164 -3.1101  0.1745
 2008TIP3   OH227514   2.090   4.940  10.985  0.2168  0.4027  0.2018
 2008TIP3    H127515   2.017   4.997  10.958  0.3015  0.1827 -0.5316
 2008TIP3    H227516   2.110   4.889  10.906  0.9481  0.2276  0.4933
 2009TIP3   OH227517   5.122   3.807  15.969 -0.4824  0.5729  0.0260
 2009TIP3    H127518   5.176   3.764  16.035 -0.4901  2.6775  1.5267
 2009TIP3    H227519   5.179   3.872  15.928 -1.1943  1.1570 -0.0860
 2010TIP3   OH227520   5.824   0.016   2.769  0.2482  0.2556 -0.1682
 2010TIP3    H127521   5.911   0.039   2.801 -0.0418 -1.1383  1.8162
 2010TIP3    H227522   5.837  -0.065   2.719  0.1550  0.2885 -0.2452
 2011TIP3   OH227523   0.429   2.640  16.082  0.0629  0.1337  0.0652
 2011TIP3    H127524   0.468   2.677  16.003  0.3327  1.7242  0.9053
 2011TIP3    H227525   0.411   2.716  16.137 -1.6811 -0.7957  0.8430
 2012TIP3   OH227526   2.861   3.329   5.832 -0.8704 -0.4048  0.5040
 2012TIP3    H127527   2.850   3.416   5.871 -0.3616  0.3694 -1.0103
 2012TIP3    H227528   2.783   3.281   5.858 -0.7516  0.1902  2.1119
 2013TIP3   OH227529   0.378   0.404   2.523  0.9495  0.5160 -0.2625
 2013TIP3    H127530   0.331   0.413   2.440  1.1541  0.4775 -0.3824
 2013TIP3    H227531   0.403   0.311   2.526  0.7505  0.4671 -0.0538
 2014TIP3   OH227532   3.846   2.909  11.320  0.1562 -0.3805 -0.4041
 2014TIP3    H127533   3.905   2.840  11.291 -0.1729 -0.6021 -0.5557
 2014TIP3    H227534   3.776   2.862  11.367 -1.2286 -0.3726 -2.3693
 2015TIP3   OH227535   2.666   5.584   5.033  0.5340  0.2169 -0.2493
 2015TIP3    H127536   2.657   5.561   4.941 -0.0710  1.1807 -0.4503
 2015TIP3    H227537   2.580   5.566   5.071  0.7898 -0.2080  0.1337
 2016TIP3   OH227538   5.910   4.227  12.050  0.0450 -0.3944  0.3279
 2016TIP3    H127539   5.982   4.279  12.016 -0.5524  0.8102  0.8537
 2016TIP3    H227540   5.899   4.257  12.141 -0.6140 -1.1066  0.4926
 2017TIP3   OH227541   6.663   3.105  15.463  0.5215  0.3180 -0.6351
 2017TIP3    H127542   6.729   3.141  15.522  0.1597  0.0003 -0.0300
 2017TIP3    H227543   6.596   3.173  15.458  1.5963  1.3363 -2.5094
 2018TIP3   OH227544   3.895   4.638   3.676  0.1277  0.2371  0.1016
 2018TIP3    H127545   3.954   4.705   3.710  0.5360 -0.5465  0.9889
 2018TIP3    H227546   3.808   4.671   3.695  0.3404 -0.5212  2.7166
 2019TIP3   OH227547   0.923   5.142   3.876 -0.4571 -0.4387  0.0408
 2019TIP3    H127548   0.846   5.144   3.933 -0.2606 -1.8415  0.4059
 2019TIP3    H227549   0.992   5.106   3.931 -0.1776 -1.5320 -0.9883
 2020TIP3   OH227550   5.904   1.637  16.716  0.6755  0.4139  0.1273
 2020TIP3    H127551   5.881   1.720  16.673 -1.3743 -0.2422 -0.1785
 2020TIP3    H227552   5.838   1.628  16.785  3.5833  1.2109  3.2595
 2021TIP3   OH227553   5.422   3.720  15.473  0.3892 -0.3218  0.0107
 2021TIP3    H127554   5.384   3.632  15.461 -0.3476  0.1152 -1.1326
 2021TIP3    H227555   5.458   3.741  15.387 -2.0596  1.6579 -0.6417
 2022TIP3   OH227556   2.209   4.576   4.878  0.7157  0.0436  0.4890
 2022TIP3    H127557   2.163   4.570   4.794  0.5406 -0.6140  0.6270
 2022TIP3    H227558   2.195   4.491   4.919  0.7917  0.3615  1.1929
 2023TIP3   OH227559   3.942   1.044  15.639  0.0377  0.3676  0.2117
 2023TIP3    H127560   3.848   1.060  15.634 -0.2614 -1.5300 -1.8929
 2023TIP3    H227561   3.972   1.052  15.549  1.2674 -2.2861  0.3025
 2024TIP3   OH227562   6.670   0.347  15.043  0.8269 -0.2876 -0.2011
 2024TIP3    H127563   6.718   0.427  15.020  1.0451 -0.9742 -2.3306
 2024TIP3    H227564   6.579   0.368  15.026  0.2723  0.7890  3.2086
 2025TIP3   OH227565   3.614   2.134   5.239  0.6581  0.0408  0.1037
 2025TIP3    H127566   3.682   2.193   5.206 -1.0049  2.3459  0.5603
 2025TIP3    H227567   3.573   2.182   5.310 -0.3876 -1.9824  0.9403
 2026TIP3   OH227568   6.311   0.996   1.680 -0.0504  0.0928  0.4132
 2026TIP3    H127569   6.260   0.925   1.718  0.7573 -0.3470  0.7036
 2026TIP3    H227570   6.252   1.072   1.680 -0.3490 -0.1277  1.7295
 2027TIP3   OH227571   5.194   2.723   2.377 -0.2503  0.7749 -0.4812
 2027TIP3    H127572   5.181   2.646   2.322 -0.1911  0.6054 -0.2593
 2027TIP3    H227573   5.105   2.749   2.403 -0.2405  0.4591 -0.1184
 2028TIP3   OH227574   1.626   2.826  13.784  0.2748  0.3526  0.5936
 2028TIP3    H127575   1.687   2.833  13.710  0.1052 -0.1212  0.4029
 2028TIP3    H227576   1.557   2.889  13.764 -1.3302 -1.8234 -1.1859
 2029TIP3   OH227577   1.915   5.370   0.406 -0.3532  0.7051 -0.6185
 2029TIP3    H127578   1.862   5.299   0.372 -0.2027  0.3367 -0.0955
 2029TIP3    H227579   1.971   5.396   0.333  0.5877 -0.6666 -0.4150
 2030TIP3   OH227580   4.565   4.386  16.532  0.3005 -0.1656 -0.4172
 2030TIP3    H127581   4.602   4.300  16.514 -0.8869 -0.5959 -0.9598
 2030TIP3    H227582   4.570   4.395  16.628  0.1881 -0.9600 -0.3329
 2031TIP3   OH227583   5.357   2.856  16.211 -0.0996  0.2211  0.0409
 2031TIP3    H127584   5.294   2.921  16.183 -0.4626 -0.0096  0.3164
 2031TIP3    H227585   5.412   2.901  16.275  1.2439  0.9900 -1.5950
 2032TIP3   OH227586   6.152   5.915   2.940  0.0421 -0.0961 -0.0012
 2032TIP3    H127587   6.071   5.863   2.944  0.5218 -0.8373  0.4786
 2032TIP3    H227588   6.180   5.910   2.849  0.0120 -0.5853  0.0144
 2033TIP3   OH227589   2.014   1.112  17.009 -0.1045 -0.1498 -0.2183
 2033TIP3    H127590   2.007   1.207  17.004  2.0417 -0.0051 -2.2194
 2033TIP3    H227591   2.102   1.096  17.042  0.4277 -1.3971 -2.1046
 2034TIP3   OH227592   4.599   4.331  16.159 -0.1993  0.0520  0.0942
 2034TIP3    H127593   4.637   4.413  16.129 -0.3978 -0.1389 -0.6976
 2034TIP3    H227594   4.506   4.349  16.170 -0.3440 -0.2126 -0.6404
 2035TIP3   OH227595   6.800   3.243   5.557  0.1698 -0.5615  0.2179
 2035TIP3    H127596   6.836   3.294   5.484  0.2614 -2.7683 -1.3883
 2035TIP3    H227597   6.877   3.204   5.600  0.0198 -0.7768  0.2970
 2036TIP3   OH227598   3.246   3.345   0.691 -0.3472 -0.1487 -0.6336
 2036TIP3    H127599   3.325   3.380   0.732 -0.4250  1.6926 -1.9183
 2036TIP3    H227600   3.176   3.361   0.755  0.0154 -0.0205 -0.2695
 2037TIP3   OH227601   1.907   5.111   3.014  0.5126  0.2058 -0.4296
 2037TIP3    H127602   1.915   5.129   2.920 -3.0585  1.3763 -0.6361
 2037TIP3    H227603   1.839   5.044   3.020  1.1020 -0.2745  1.3166
 2038TIP3   OH227604   5.514   6.421   4.992  0.0639 -0.8469  0.1675
 2038TIP3    H127605   5.560   6.397   5.073 -0.5521  0.4515  0.9404
 2038TIP3    H227606   5.446   6.482   5.021  1.1901  1.3746 -1.5570
 2039TIP3   OH227607   3.925   0.417  17.030  0.5982 -0.0805 -0.2012
 2039TIP3    H127608   3.858   0.354  17.003 -0.7775  1.4744 -0.5778
 2039TIP3    H227609   3.990   0.415  16.960  0.3459 -0.7346 -0.4216
 2040TIP3   OH227610   1.588   6.272   4.112  0.2767 -0.4722 -0.1808
 2040TIP3    H127611   1.579   6.366   4.123  0.8454 -0.2746 -1.2065
 2040TIP3    H227612   1.545   6.234   4.188  3.6541  0.6804  2.5585
 2041TIP3   OH227613   5.405   5.758  11.893 -0.9059  0.2907 -0.0884
 2041TIP3    H127614   5.489   5.740  11.851 -0.3935 -1.8966  1.6617
 2041TIP3    H227615   5.391   5.683  11.951 -3.6440  1.0497  0.3623
 2042TIP3   OH227616   5.792   5.670  15.530 -0.0465 -0.3584  0.6049
 2042TIP3    H127617   5.870   5.702  15.575  0.1251 -0.7596  0.5991
 2042TIP3    H227618   5.784   5.579  15.559 -0.3627 -0.3937  0.4033
 2043TIP3   OH227619   5.252   1.639  11.156 -0.6396 -0.5799  0.4063
 2043TIP3    H127620   5.307   1.597  11.090 -0.3009 -0.8459  0.8577
 2043TIP3    H227621   5.175   1.581  11.163 -0.7432 -0.4750  0.1447
 2044TIP3   OH227622   1.575   1.519  15.979 -0.1103 -0.1366 -0.2979
 2044TIP3    H127623   1.665   1.488  15.991  0.6520  1.2844 -1.9521
 2044TIP3    H227624   1.521   1.441  15.992  1.4226 -1.2524 -0.3309
 2045TIP3   OH227625   0.058   3.009  15.884  0.2575  0.1548  0.6232
 2045TIP3    H127626   0.034   2.977  15.797 -1.2219 -1.8784  1.7070
 2045TIP3    H227627   0.149   2.982  15.895  0.2352 -0.2084 -0.0121
 2046TIP3   OH227628   3.422   0.123  12.559 -0.1525 -0.5686  0.2419
 2046TIP3    H127629   3.354   0.091  12.499  1.2158 -0.1830 -1.6294
 2046TIP3    H227630   3.482   0.049  12.568 -0.6373 -0.8083  1.6467
 2047TIP3   OH227631   6.724   1.597   5.579  0.3184 -0.0750  0.3586
 2047TIP3    H127632   6.750   1.510   5.548 -0.0382 -0.0504 -0.0139
 2047TIP3    H227633   6.804   1.633   5.618  1.0695  0.3122 -1.4404
 2048TIP3   OH227634   0.347   1.966   3.337 -0.0688 -0.2889 -0.2370
 2048TIP3    H127635   0.290   1.972   3.260  0.1147 -0.5762 -0.3965
 2048TIP3    H227636   0.355   2.056   3.368  0.9409  0.0324 -1.3408
 2049TIP3   OH227637   1.470   3.244   1.255  0.0303 -0.2387  0.0149
 2049TIP3    H127638   1.455   3.313   1.320 -0.6611 -0.3474 -0.0225
 2049TIP3    H227639   1.560   3.259   1.225 -0.2201  0.8711 -0.2428
 2050TIP3   OH227640   4.425   2.750  11.516  0.4830 -0.2435 -0.5814
 2050TIP3    H127641   4.345   2.773  11.468  0.0033 -2.5178 -1.0266
 2050TIP3    H227642   4.495   2.756  11.451  0.0082 -2.1553 -1.3589
 2051TIP3   OH227643   4.585   2.486  14.063 -0.4320 -0.1009  0.1250
 2051TIP3    H127644   4.598   2.573  14.024 -0.2415 -1.6199 -3.6599
 2051TIP3    H227645   4.659   2.434  14.032 -1.0353 -1.8977  1.4942
 2052TIP3   OH227646   2.562   4.350   0.498 -0.6128  0.3233 -0.1409
 2052TIP3    H127647   2.646   4.308   0.482 -0.7303 -0.4017  0.9993
 2052TIP3    H227648   2.500   4.302   0.442 -0.5030 -0.1224  0.1103
 2053TIP3   OH227649   6.704   4.412   2.013 -0.3145  0.1168 -0.6384
 2053TIP3    H127650   6.657   4.453   2.086 -1.7657  0.6644 -1.8345
 2053TIP3    H227651   6.692   4.318   2.027 -1.2994  0.2386 -0.6211
 2054TIP3   OH227652   1.454   2.747  14.193  0.0224  0.1544 -0.7624
 2054TIP3    H127653   1.445   2.835  14.156 -0.2761 -0.1096 -1.3261
 2054TIP3    H227654   1.368   2.707  14.180  0.7895 -1.0261 -2.6199
 2055TIP3   OH227655   2.690   5.321   3.165 -0.0850  0.3688  0.0524
 2055TIP3    H127656   2.648   5.236   3.161 -1.7583  1.2199 -2.0247
 2055TIP3    H227657   2.647   5.366   3.238  0.5521 -0.4033  0.9198
 2056TIP3   OH227658   4.599   6.113   4.987 -0.1741 -0.2776 -0.0315
 2056TIP3    H127659   4.609   6.064   4.906 -0.0096 -1.7041  0.8155
 2056TIP3    H227660   4.508   6.100   5.012 -0.2480  0.2322 -0.0279
 2057TIP3   OH227661   2.875   6.704  14.211 -0.1476 -0.4147  0.1808
 2057TIP3    H127662   2.780   6.708  14.197 -0.1049 -0.0213 -0.0089
 2057TIP3    H227663   2.886   6.645  14.285 -0.6820  1.2646  1.6544
 2058TIP3   OH227664   3.626   3.648   5.567 -0.4803  0.5477 -0.5880
 2058TIP3    H127665   3.560   3.638   5.499  0.6566 -1.4992 -1.4834
 2058TIP3    H227666   3.663   3.735   5.553 -1.2609  0.7292 -1.6336
 2059TIP3   OH227667   1.550   0.158  13.754 -0.4617 -0.0435 -0.4964
 2059TIP3    H127668   1.628   0.160  13.699 -0.9170  0.3435 -1.1556
 2059TIP3    H227669   1.577   0.199  13.836  0.2510 -0.6939 -0.3999
 2060TIP3   OH227670   5.746   6.163  10.775  0.0300  0.2725  0.9115
 2060TIP3    H127671   5.755   6.231  10.841  2.2475  2.3677 -1.3141
 2060TIP3    H227672   5.833   6.123  10.769 -0.3324 -0.4101 -0.1627
 2061TIP3   OH227673   6.148   0.427  13.334  0.5652  0.6601  0.2289
 2061TIP3    H127674   6.196   0.414  13.252  0.3420  0.4274  0.1337
 2061TIP3    H227675   6.124   0.338  13.362 -1.9346  0.8599 -0.9916
 2062TIP3   OH227676   0.328   1.531   0.833  0.2951 -0.1837 -0.1969
 2062TIP3    H127677   0.266   1.568   0.896 -0.2161 -0.2725 -0.6352
 2062TIP3    H227678   0.414   1.561   0.862  0.2798 -1.7043  1.6265
 2063TIP3   OH227679   2.642   5.246  15.947  0.6223  0.2718  0.1165
 2063TIP3    H127680   2.666   5.172  15.892 -0.4560  0.4027 -0.5511
 2063TIP3    H227681   2.643   5.321  15.887 -1.7856  0.2253 -0.0663
 2064TIP3   OH227682   2.541   1.698   4.724 -0.2719 -0.6958 -0.2465
 2064TIP3    H127683   2.636   1.709   4.729 -0.4584  1.2703 -0.3270
 2064TIP3    H227684   2.511   1.700   4.815 -0.3279 -0.4310 -0.2720
 2065TIP3   OH227685   5.600   3.064  12.292 -0.2720 -0.2842  0.2922
 2065TIP3    H127686   5.578   3.010  12.216 -1.3253  0.8276 -0.2301
 2065TIP3    H227687   5.544   3.142  12.283  0.2579  0.2919  1.7123
 2066TIP3   OH227688   1.386   1.015   4.767  0.8380 -0.3643  0.3131
 2066TIP3    H127689   1.474   1.027   4.731  0.7865 -0.2826  0.2146
 2066TIP3    H227690   1.328   1.060   4.705  0.8333  0.5357  0.9508
 2067TIP3   OH227691   2.917   1.749  13.591  0.1903  0.0304 -0.2645
 2067TIP3    H127692   2.968   1.684  13.543 -0.1980 -1.6330  1.4406
 2067TIP3    H227693   2.849   1.698  13.636 -0.8881  1.7761  0.1850
 2068TIP3   OH227694   3.286   6.563  13.784  0.3675 -0.1173  0.6372
 2068TIP3    H127695   3.374   6.565  13.747 -0.1756  1.4290 -0.6971
 2068TIP3    H227696   3.229   6.594  13.713 -1.1082 -0.0446  1.8013
 2069TIP3   OH227697   6.240   0.131   2.156  0.6016 -0.2024 -0.1032
 2069TIP3    H127698   6.291   0.071   2.102  1.8585 -0.6146  1.4740
 2069TIP3    H227699   6.176   0.075   2.200 -1.1801  0.2829 -1.9143
 2070TIP3   OH227700   6.750   4.802   0.366 -0.7210 -0.1013 -0.5060
 2070TIP3    H127701   6.657   4.819   0.381 -0.5099  0.4072  0.2679
 2070TIP3    H227702   6.765   4.716   0.405 -0.8469 -0.1504 -0.5633
 2071TIP3   OH227703   1.582   1.593   3.006  0.0112 -0.3402 -0.3636
 2071TIP3    H127704   1.636   1.542   3.066  1.5074  1.9358  0.3700
 2071TIP3    H227705   1.608   1.562   2.919 -0.2321 -1.8163  0.0641
 2072TIP3   OH227706   4.838   1.757  14.061  0.1312  0.3612  0.4471
 2072TIP3    H127707   4.834   1.777  14.155  1.0314 -0.5566  0.6943
 2072TIP3    H227708   4.927   1.726  14.047 -0.0153  0.4329 -0.7094
 2073TIP3   OH227709   6.809   2.697  14.797  0.8208 -0.2747  0.1303
 2073TIP3    H127710   6.816   2.729  14.887 -0.3411 -1.2281  0.5854
 2073TIP3    H227711   6.863   2.758  14.746 -1.6377  2.7931  0.8503
 2074TIP3   OH227712   1.943   2.337   5.243  0.1257  0.2805 -0.0475
 2074TIP3    H127713   1.914   2.259   5.196  1.7667  0.3131 -1.1936
 2074TIP3    H227714   1.862   2.382   5.267 -0.8120 -1.0286 -0.6297
 2075TIP3   OH227715   5.864   0.920   4.748  0.0743  0.1045  0.2370
 2075TIP3    H127716   5.834   0.978   4.679 -2.1867 -0.5325  0.6082
 2075TIP3    H227717   5.959   0.917   4.738  0.0115  1.9017 -1.3033
 2076TIP3   OH227718   2.094   3.865  11.670  0.2909 -0.0286  0.3435
 2076TIP3    H127719   2.166   3.905  11.621  1.0454 -1.7438 -0.0249
 2076TIP3    H227720   2.084   3.778  11.631 -1.3078 -0.2021  1.0781
 2077TIP3   OH227721   3.865   1.544   0.519 -0.3029 -0.3058 -0.4438
 2077TIP3    H127722   3.877   1.506   0.432  2.5712  0.5088 -0.5008
 2077TIP3    H227723   3.817   1.625   0.502  0.2146 -0.1596 -1.3014
 2078TIP3   OH227724   2.519   3.056  17.244 -0.1819  0.4757 -0.3939
 2078TIP3    H127725   2.453   3.041  17.312  1.1629 -1.8463  0.4901
 2078TIP3    H227726   2.587   3.107  17.288 -0.6539  1.5750 -0.8936
 2079TIP3   OH227727   1.699   2.122   2.166  0.3713 -0.9426  0.0419
 2079TIP3    H127728   1.621   2.154   2.120 -0.4365 -1.6455  0.8940
 2079TIP3    H227729   1.686   2.147   2.257  0.7241 -1.8481  0.3518
 2080TIP3   OH227730   4.711   1.276  13.635 -0.7187 -0.2030 -0.4445
 2080TIP3    H127731   4.692   1.361  13.675  0.0821 -0.4011  0.3963
 2080TIP3    H227732   4.663   1.277  13.553 -1.4588  0.7022 -0.0254
 2081TIP3   OH227733   2.113   3.723  10.778  0.2135 -0.3173 -0.2812
 2081TIP3    H127734   2.154   3.760  10.856 -0.7652  0.1935  0.0040
 2081TIP3    H227735   2.173   3.744  10.706  0.3507  0.6150  0.0960
 2082TIP3   OH227736   4.156   6.624   5.318 -0.2515  0.3047 -0.3166
 2082TIP3    H127737   4.079   6.609   5.263  0.6114 -0.0718 -1.4583
 2082TIP3    H227738   4.231   6.617   5.258  0.7371 -0.2736  0.9312
 2083TIP3   OH227739   5.938   4.984   0.958  0.2087  0.0708 -0.3436
 2083TIP3    H127740   5.909   4.963   1.047 -2.0427 -0.9413 -1.2228
 2083TIP3    H227741   5.909   4.909   0.906  2.9478 -0.1561 -1.7206
 2084TIP3   OH227742   3.400   4.688  16.126 -0.6119  0.1228 -0.3250
 2084TIP3    H127743   3.402   4.598  16.160 -0.3986  0.1276 -0.3263
 2084TIP3    H227744   3.432   4.681  16.036 -0.7654  0.1751 -0.3865
 2085TIP3   OH227745   3.007   3.550   4.502  0.0565  0.0034 -0.2937
 2085TIP3    H127746   3.095   3.534   4.537 -1.1829 -1.4539  2.4901
 2085TIP3    H227747   3.016   3.535   4.408  2.4218 -2.0466  0.1327
 2086TIP3   OH227748   5.296   2.584   4.054 -0.4655  0.2468  0.1296
 2086TIP3    H127749   5.268   2.493   4.048 -0.7074  0.3363 -0.1036
 2086TIP3    H227750   5.349   2.599   3.976  0.5654 -0.0329  0.7650
 2087TIP3   OH227751   2.258   5.026  13.515 -0.5755  0.0529 -0.4098
 2087TIP3    H127752   2.191   5.074  13.562 -1.8958 -2.2916  0.2436
 2087TIP3    H227753   2.272   5.076  13.434  1.1762  3.7333  1.9185
 2088TIP3   OH227754   5.478   1.077   5.705  0.2129 -0.2372 -0.0616
 2088TIP3    H127755   5.572   1.073   5.687  0.2969 -1.6573  0.5896
 2088TIP3    H227756   5.473   1.089   5.800 -0.2607 -0.0048 -0.1180
 2089TIP3   OH227757   0.588   1.281   4.856 -0.0833 -0.2586  0.4120
 2089TIP3    H127758   0.653   1.216   4.881  1.4812  0.8831 -0.4757
 2089TIP3    H227759   0.638   1.348   4.808 -1.9038  0.7172 -0.2356
 2090TIP3   OH227760   4.662   2.977  12.249  0.4531 -0.0884  0.3116
 2090TIP3    H127761   4.578   2.998  12.289  1.0891 -0.2194  1.8161
 2090TIP3    H227762   4.693   3.060  12.213 -0.9380 -0.3234 -1.5909
 2091TIP3   OH227763   4.840   6.757   2.834 -0.4487 -0.2244  0.4525
 2091TIP3    H127764   4.759   6.716   2.867 -1.0382  0.5986  0.0530
 2091TIP3    H227765   4.873   6.695   2.769 -1.8977  0.3403 -0.9177
 2092TIP3   OH227766   5.284   4.596   3.719  0.2554 -0.9762 -0.2945
 2092TIP3    H127767   5.314   4.604   3.810 -0.5232 -1.3584 -0.0013
 2092TIP3    H227768   5.218   4.665   3.710  0.0839 -1.1647 -0.4698
 2093TIP3   OH227769   6.579   5.388   2.948  0.8765 -0.2971  0.0618
 2093TIP3    H127770   6.504   5.374   3.006  1.1000  1.1329  0.7486
 2093TIP3    H227771   6.543   5.374   2.860 -0.6869  1.9569  0.2400
 2094TIP3   OH227772   1.325   4.141  12.455  0.7685 -0.5158  0.4847
 2094TIP3    H127773   1.339   4.070  12.393  1.7558 -1.3057  1.5659
 2094TIP3    H227774   1.371   4.113  12.534  0.7611  1.1074  1.0984
 2095TIP3   OH227775   2.093   2.143   2.893  0.0055 -0.8613  0.2186
 2095TIP3    H127776   2.189   2.139   2.902 -0.1171 -4.0183  1.3944
 2095TIP3    H227777   2.060   2.121   2.981 -1.8299  0.1624 -0.1656
 2096TIP3   OH227778   0.899   4.546   3.454  0.1486  0.0272  0.2754
 2096TIP3    H127779   0.952   4.520   3.529 -0.4902  0.8810  1.0420
 2096TIP3    H227780   0.809   4.528   3.481 -0.0426 -0.4804 -0.6342
 2097TIP3   OH227781   5.219   4.534   5.320 -0.5484 -0.6632  0.3269
 2097TIP3    H127782   5.215   4.456   5.265 -0.4099 -0.4127 -0.0463
 2097TIP3    H227783   5.211   4.501   5.409 -2.2237 -0.9557  0.1011
 2098TIP3   OH227784   0.022   3.084  11.979  0.0682  0.1916  0.4003
 2098TIP3    H127785  -0.046   3.025  11.946 -0.8515  1.1062  0.6015
 2098TIP3    H227786   0.072   3.110  11.902 -0.2788  0.0874  0.1409
 2099TIP3   OH227787   5.168   0.119   2.305 -0.6661  0.0683  0.7946
 2099TIP3    H127788   5.177   0.129   2.400 -1.3631  1.2009  0.7564
 2099TIP3    H227789   5.097   0.056   2.294 -2.5410  2.0198  1.0614
 2100TIP3   OH227790   5.259   5.238  13.319  0.2107 -0.6771  0.0914
 2100TIP3    H127791   5.265   5.282  13.234  1.4190  0.6515  0.8151
 2100TIP3    H227792   5.184   5.179  13.311 -1.0221  0.9853 -1.1901
 2101TIP3   OH227793   2.184   1.692  12.948  0.1990 -0.3294 -0.5662
 2101TIP3    H127794   2.107   1.688  13.004  0.2024 -1.6328 -0.6138
 2101TIP3    H227795   2.259   1.687  13.008  0.2170 -0.5130 -0.6017
 2102TIP3   OH227796   2.940   4.020   3.866 -1.1232  0.0171  0.9343
 2102TIP3    H127797   2.855   4.055   3.893 -1.9166 -0.6222 -0.5831
 2102TIP3    H227798   2.918   3.943   3.813  0.4515 -0.7778  1.3576
 2103TIP3   OH227799   2.249   0.404  14.143 -0.2170 -0.4053 -0.0684
 2103TIP3    H127800   2.262   0.322  14.191 -0.9053 -0.3295  0.2593
 2103TIP3    H227801   2.160   0.431  14.166 -0.0569  0.3444 -0.3099
 2104TIP3   OH227802   2.990   5.804  15.293  0.1752 -0.3560  0.4735
 2104TIP3    H127803   2.987   5.718  15.251 -0.9769  0.4820 -1.3100
 2104TIP3    H227804   3.060   5.798  15.357  0.6740 -2.3572 -0.2071
 2105TIP3   OH227805   3.519   3.660   3.329  0.4023  0.2996  0.1360
 2105TIP3    H127806   3.486   3.749   3.342 -2.3010 -0.2317 -2.2053
 2105TIP3    H227807   3.535   3.653   3.235  1.4513 -1.4235  0.3951
 2106TIP3   OH227808   5.807   5.659   2.096  0.2566 -0.2176 -0.1061
 2106TIP3    H127809   5.804   5.564   2.088  0.0996 -0.4505  2.0449
 2106TIP3    H227810   5.762   5.692   2.018  0.3180 -1.8864 -0.8764
 2107TIP3   OH227811   4.745   2.316  12.292  0.1203 -0.2691  0.0123
 2107TIP3    H127812   4.741   2.223  12.312 -0.6862  0.2656  2.7253
 2107TIP3    H227813   4.836   2.341  12.309  0.0561 -0.3314  0.4413
 2108TIP3   OH227814   0.740   4.836  11.483 -0.3712  0.2076 -0.2825
 2108TIP3    H127815   0.743   4.932  11.490 -0.2196  0.3200 -1.5969
 2108TIP3    H227816   0.832   4.810  11.476 -0.4707  0.0952 -1.2479
 2109TIP3   OH227817   1.630   1.406   5.089 -0.3551  0.3222  0.2240
 2109TIP3    H127818   1.634   1.500   5.109 -0.5289  0.0730  1.4965
 2109TIP3    H227819   1.722   1.378   5.088 -0.3652  0.1286  1.8471
 2110TIP3   OH227820   2.550   2.023   6.025 -0.1580  0.0587  0.0852
 2110TIP3    H127821   2.564   2.118   6.027  2.4979 -0.2064 -1.6114
 2110TIP3    H227822   2.489   2.009   5.953 -2.8821  0.5584  2.0891
 2111TIP3   OH227823   1.776   0.802   4.773  0.2804 -0.3551  0.3146
 2111TIP3    H127824   1.779   0.734   4.706 -2.1517 -1.5412  1.2899
 2111TIP3    H227825   1.685   0.803   4.803  0.3467  2.8940  0.8457
 2112TIP3   OH227826   6.092   5.433   1.248 -0.6542  0.2192 -1.0720
 2112TIP3    H127827   6.174   5.394   1.218  0.1046 -0.0288  1.1650
 2112TIP3    H227828   6.099   5.526   1.224  0.9150  0.4865  0.2977
 2113TIP3   OH227829   2.506   1.500  13.852  0.1623 -0.2133 -0.4374
 2113TIP3    H127830   2.462   1.488  13.936  1.0587 -0.7746 -0.0235
 2113TIP3    H227831   2.578   1.561  13.871 -0.1788  0.3845 -1.0078
 2114TIP3   OH227832   3.453   4.260   4.753  0.1218  0.0724 -0.1281
 2114TIP3    H127833   3.374   4.206   4.746 -0.2359  0.7113 -1.2331
 2114TIP3    H227834   3.423   4.342   4.791  0.0858  0.6190 -1.2998
 2115TIP3   OH227835   1.427   3.046  14.069 -0.0709 -0.4016 -0.7463
 2115TIP3    H127836   1.466   3.048  13.982  0.0787  1.7421 -0.6741
 2115TIP3    H227837   1.497   3.077  14.127 -0.6796 -0.2336 -0.0893
 2116TIP3   OH227838   0.811   0.447   3.879  0.5534 -0.2358 -0.0692
 2116TIP3    H127839   0.738   0.506   3.898  0.4092 -0.3486 -0.2608
 2116TIP3    H227840   0.882   0.476   3.936  1.1256  1.3208 -1.5209
 2117TIP3   OH227841   4.172   0.193  13.355 -0.3254 -0.7967 -0.0013
 2117TIP3    H127842   4.180   0.279  13.314 -0.6357 -1.3361 -1.2297
 2117TIP3    H227843   4.261   0.168  13.377  0.0344 -1.1422 -1.7405
 2118TIP3   OH227844   2.797   1.851   5.017 -0.0851  0.1371  0.1545
 2118TIP3    H127845   2.831   1.803   5.091  1.6403  1.0910  0.0339
 2118TIP3    H227846   2.753   1.927   5.055  1.0548  0.7823  0.2272
 2119TIP3   OH227847   6.510   2.022  14.870  0.2778  0.3531  0.2918
 2119TIP3    H127848   6.444   1.953  14.880  0.3127  0.3738  0.6552
 2119TIP3    H227849   6.574   1.985  14.810 -1.3167  1.2180 -2.1149
 2120TIP3   OH227850   5.450   5.662  17.057  0.3048 -0.5923  0.0257
 2120TIP3    H127851   5.407   5.719  17.121 -0.3433  0.0302 -0.9401
 2120TIP3    H227852   5.505   5.721  17.006  2.5624 -1.4160  1.3992
 2121TIP3   OH227853   1.498   3.601  12.884 -1.0752 -0.2266  0.0106
 2121TIP3    H127854   1.508   3.566  12.973 -1.7670  0.6765  0.4638
 2121TIP3    H227855   1.427   3.549  12.846 -0.9055 -0.4909  0.0560
 2122TIP3   OH227856   2.964   2.049   4.207 -0.1470 -0.4491 -0.4624
 2122TIP3    H127857   3.058   2.049   4.224 -0.4386  1.0535  1.4893
 2122TIP3    H227858   2.943   1.958   4.188  1.3937 -1.1558  0.9811
 2123TIP3   OH227859   0.550   6.256  12.403 -0.8585  0.1370  0.2000
 2123TIP3    H127860   0.553   6.344  12.441 -2.0763  0.4924 -0.4679
 2123TIP3    H227861   0.640   6.235  12.381 -0.6482  1.5183 -0.2924
 2124TIP3   OH227862   6.212   2.485  11.741  0.2918  0.0996 -0.2895
 2124TIP3    H127863   6.236   2.547  11.673 -0.7430  1.5405  0.5921
 2124TIP3    H227864   6.279   2.496  11.808  1.0673 -1.0069 -0.8542
 2125TIP3   OH227865   4.918   4.392  11.415  0.1136 -0.3021 -0.3061
 2125TIP3    H127866   4.898   4.486  11.417  1.9373  0.1495 -0.6808
 2125TIP3    H227867   5.012   4.388  11.434  0.2885 -1.9860 -1.3130
 2126TIP3   OH227868   2.865   3.829   0.034  0.1486  0.4789  0.3024
 2126TIP3    H127869   2.946   3.797  -0.006  0.2376  0.8923  0.1488
 2126TIP3    H227870   2.836   3.900  -0.024 -2.5470 -2.2722 -2.0613
 2127TIP3   OH227871   2.542   5.417   1.742 -0.4874  0.4386 -0.2543
 2127TIP3    H127872   2.537   5.494   1.686 -1.2302  0.3891 -0.2690
 2127TIP3    H227873   2.538   5.451   1.831  0.1520  0.4793 -0.2372
 2128TIP3   OH227874   2.814   3.112   0.139 -0.2907  0.7562 -0.1945
 2128TIP3    H127875   2.824   3.131   0.045 -0.0514 -0.4497 -0.4221
 2128TIP3    H227876   2.890   3.058   0.161 -0.6621  0.5337  0.5645
 2129TIP3   OH227877   6.605   6.292  10.807  0.2144 -0.6150  0.3643
 2129TIP3    H127878   6.515   6.301  10.837  0.0159  0.1392 -0.4377
 2129TIP3    H227879   6.637   6.213  10.851 -1.0373 -1.2559  0.1775
 2130TIP3   OH227880   5.691   3.458   2.764  0.2123  0.5792  0.1405
 2130TIP3    H127881   5.702   3.391   2.831 -1.3381  0.5311  0.3853
 2130TIP3    H227882   5.672   3.538   2.812 -1.6060  0.4006 -0.2219
 2131TIP3   OH227883   1.261   6.358   1.375  0.1151 -0.2725 -0.3983
 2131TIP3    H127884   1.314   6.278   1.376 -0.9634 -1.0106 -0.6142
 2131TIP3    H227885   1.171   6.327   1.365 -0.4944  0.8699  1.0945
 2132TIP3   OH227886   6.164   5.444   3.057  0.2202 -0.4813  0.0438
 2132TIP3    H127887   6.146   5.374   3.120 -0.6113 -0.1697  0.1651
 2132TIP3    H227888   6.174   5.399   2.973 -1.9053 -0.6412 -0.1729
 2133TIP3   OH227889   3.121   2.283   4.962 -0.1378 -0.3725 -0.1395
 2133TIP3    H127890   3.126   2.371   4.999  3.3107 -0.3455 -0.3164
 2133TIP3    H227891   3.030   2.256   4.976 -0.4429  1.7851  3.2130
 2134TIP3   OH227892   2.970   5.083   5.329 -0.3754  0.0124  0.2595
 2134TIP3    H127893   2.930   4.996   5.322  2.0581 -1.3221  1.3804
 2134TIP3    H227894   3.030   5.088   5.255 -0.6304  0.8241  0.1050
 2135TIP3   OH227895   1.368   5.369   1.918  0.2496  0.6905  0.4861
 2135TIP3    H127896   1.368   5.454   1.963 -1.5748  2.1520 -2.0669
 2135TIP3    H227897   1.283   5.331   1.939  0.6549 -0.0715  0.7772
 2136TIP3   OH227898   4.949   6.465  16.072  0.1659  0.0836 -0.0500
 2136TIP3    H127899   4.989   6.542  16.032  0.4719 -0.3558 -0.6032
 2136TIP3    H227900   5.016   6.397  16.067 -0.3247 -0.4026 -0.1737
 2137TIP3   OH227901   5.619   3.941   5.814 -0.4076 -0.3995  0.5345
 2137TIP3    H127902   5.557   3.977   5.877 -0.7830 -0.5414  0.2490
 2137TIP3    H227903   5.705   3.969   5.847 -0.5857 -0.6009  1.1887
 2138TIP3   OH227904   4.829   6.647   5.400 -0.5371 -0.3015 -0.7135
 2138TIP3    H127905   4.849   6.635   5.307 -0.7470 -0.4303 -0.7418
 2138TIP3    H227906   4.737   6.672   5.402 -0.4722 -0.0638 -0.5561
 2139TIP3   OH227907   0.154   5.978   0.095  0.2343  0.1876  0.0328
 2139TIP3    H127908   0.107   5.932   0.165  0.8381 -0.9512 -0.2843
 2139TIP3    H227909   0.117   6.066   0.095 -1.2899 -0.4247  0.3546
 2140TIP3   OH227910   1.976   4.329   4.298 -0.1213  0.5585 -0.1152
 2140TIP3    H127911   1.973   4.287   4.212 -1.8590  1.2040 -0.4182
 2140TIP3    H227912   1.920   4.406   4.288  3.3872  3.4097  0.2104
 2141TIP3   OH227913   2.538   6.172  16.955 -0.0583 -0.6183  0.0182
 2141TIP3    H127914   2.617   6.145  16.908  0.7357 -0.2650  1.1035
 2141TIP3    H227915   2.564   6.173  17.047 -1.1023  0.2948  0.3251
 2142TIP3   OH227916   2.742   4.077   1.786 -0.4619 -0.2088 -0.4484
 2142TIP3    H127917   2.790   3.996   1.772 -0.5122 -0.7686  2.1028
 2142TIP3    H227918   2.706   4.069   1.875 -1.8604  1.9061 -0.7389
 2143TIP3   OH227919   0.795   5.557   2.908  0.4529  0.2768 -0.5932
 2143TIP3    H127920   0.882   5.577   2.943  0.5875  0.0734 -0.8038
 2143TIP3    H227921   0.798   5.591   2.818  1.6889 -3.0838 -2.0060
 2144TIP3   OH227922   1.567   3.329  13.440  0.2282 -0.4880 -0.2911
 2144TIP3    H127923   1.519   3.278  13.375 -0.4444  1.2924 -1.2464
 2144TIP3    H227924   1.533   3.299  13.524 -1.5159 -0.2947 -0.8973
 2145TIP3   OH227925   4.147   1.890   5.106 -0.4887  0.0612 -0.2569
 2145TIP3    H127926   4.063   1.845   5.103 -0.1990 -0.5198  0.1581
 2145TIP3    H227927   4.198   1.842   5.171  0.2198  0.3170 -0.6112
 2146TIP3   OH227928   3.782   2.867  10.193  0.4227  0.5400 -0.0654
 2146TIP3    H127929   3.849   2.912  10.244  0.1942  0.3842  0.3782
 2146TIP3    H227930   3.815   2.778  10.184  1.2638  0.9726 -1.6388
 2147TIP3   OH227931   1.950   6.291   2.648  0.8477 -0.6807 -0.6464
 2147TIP3    H127932   1.995   6.228   2.704  0.2003 -0.2381  0.3935
 2147TIP3    H227933   1.927   6.241   2.569 -0.4878 -2.0255  0.5457
 2148TIP3   OH227934   3.533   0.846   5.356  0.2484 -0.1508 -0.8090
 2148TIP3    H127935   3.569   0.765   5.319 -0.1141 -0.4948 -0.4161
 2148TIP3    H227936   3.603   0.880   5.412  0.1397 -0.5902 -0.3920
 2149TIP3   OH227937   2.275   2.306   1.683  0.0356 -0.6240  0.0464
 2149TIP3    H127938   2.354   2.325   1.733 -1.0972 -0.0392  1.7283
 2149TIP3    H227939   2.304   2.248   1.613  2.0901  0.3052  0.0556
 2150TIP3   OH227940   1.152   2.463  14.777  0.1087 -0.4197 -0.3494
 2150TIP3    H127941   1.236   2.483  14.736 -0.2730  0.1643 -0.8666
 2150TIP3    H227942   1.125   2.380  14.740  0.5418 -0.7042 -0.0401
 2151TIP3   OH227943   6.130   5.364  12.607  0.1891  0.2640  0.1838
 2151TIP3    H127944   6.182   5.322  12.538  0.1691 -0.8706  0.8371
 2151TIP3    H227945   6.076   5.293  12.642  1.1371  0.4954  2.2300
 2152TIP3   OH227946   5.427   4.793   5.478  0.0691  0.0311  0.3996
 2152TIP3    H127947   5.382   4.728   5.531 -1.0740 -0.1881 -0.7983
 2152TIP3    H227948   5.399   4.877   5.513 -0.7922 -0.1105  0.0741
 2153TIP3   OH227949   1.488   2.376  14.934 -0.1848  0.2303 -0.3284
 2153TIP3    H127950   1.439   2.315  14.879 -0.3371 -0.5294  0.6304
 2153TIP3    H227951   1.560   2.406  14.878 -0.6891 -0.0406 -1.1424
 2154TIP3   OH227952   6.022   4.008   3.496 -0.6003 -0.1881 -0.1068
 2154TIP3    H127953   6.109   4.030   3.529 -1.7713  1.5076  2.1282
 2154TIP3    H227954   5.963   4.034   3.567 -2.9857 -0.5341 -1.8735
 2155TIP3   OH227955   1.168   3.331  11.268 -0.0457  0.3727 -0.9526
 2155TIP3    H127956   1.249   3.300  11.307 -0.9119 -2.0074 -0.8610
 2155TIP3    H227957   1.176   3.426  11.267  1.6053  0.3463  1.5108
 2156TIP3   OH227958   1.083   4.549   0.081 -0.5898  0.4814 -0.8169
 2156TIP3    H127959   1.109   4.460   0.058  0.0826 -0.4668  2.9428
 2156TIP3    H227960   1.132   4.568   0.161 -1.7150  3.7606 -0.7538
 2157TIP3   OH227961   3.079   5.437   0.751 -0.4373  0.0968 -0.2768
 2157TIP3    H127962   3.003   5.452   0.808 -0.9937 -0.5547 -0.8285
 2157TIP3    H227963   3.112   5.351   0.777  0.0859  0.3483 -0.0867
 2158TIP3   OH227964   0.540   0.561   4.015  0.2857 -0.4159 -0.4784
 2158TIP3    H127965   0.513   0.520   3.933 -1.0941  1.2712 -0.9249
 2158TIP3    H227966   0.494   0.512   4.083 -0.2623 -0.4776 -0.8917
 2159TIP3   OH227967   1.217   5.523  12.118  0.1805  0.2157  0.2116
 2159TIP3    H127968   1.250   5.555  12.034 -0.1853 -1.2632 -0.5372
 2159TIP3    H227969   1.255   5.435  12.125 -1.2207 -0.3648  0.7347
 2160TIP3   OH227970   5.094   4.061   1.109 -0.0551  0.1540 -0.7626
 2160TIP3    H127971   5.022   4.076   1.171  0.2531  2.4532 -0.8655
 2160TIP3    H227972   5.051   4.057   1.024 -0.1706  0.7020 -0.7391
 2161TIP3   OH227973   5.250   1.127  11.254 -0.2403 -0.0301  0.3178
 2161TIP3    H127974   5.277   1.166  11.171  1.3034 -1.2728  0.1883
 2161TIP3    H227975   5.271   1.193  11.320  2.4053 -0.5459  0.1149
 2162TIP3   OH227976   6.214   4.654   0.234 -0.0725 -0.2836  0.1452
 2162TIP3    H127977   6.265   4.611   0.303 -0.8243  0.6206  1.3098
 2162TIP3    H227978   6.190   4.584   0.174  1.6536 -0.9011  0.1233
 2163TIP3   OH227979   5.135   2.216   1.936 -0.1504  0.5622  0.3290
 2163TIP3    H127980   5.202   2.148   1.933 -1.0925 -0.3790 -0.2739
 2163TIP3    H227981   5.088   2.200   2.019 -1.4448 -0.6371 -0.5833
 2164TIP3   OH227982   3.212   0.132   5.097 -0.4638  0.4011  0.3553
 2164TIP3    H127983   3.140   0.140   5.160 -0.6912  1.3285 -0.0020
 2164TIP3    H227984   3.171   0.097   5.018 -0.4491  0.5617  0.2768
 2165TIP3   OH227985   0.293   5.216   3.698 -0.0698 -0.5203 -0.8072
 2165TIP3    H127986   0.343   5.138   3.719 -0.2941 -0.6697 -0.8225
 2165TIP3    H227987   0.281   5.212   3.603 -0.8666 -0.9467 -0.6944
 2166TIP3   OH227988   0.863   3.326   0.902 -0.9434 -0.4008 -0.4512
 2166TIP3    H127989   0.931   3.324   0.968 -1.4905 -3.2502  0.1580
 2166TIP3    H227990   0.792   3.376   0.942 -0.1856  0.4228 -0.1034
 2167TIP3   OH227991   4.545   3.272  10.844  0.1859  0.1370 -0.2610
 2167TIP3    H127992   4.537   3.269  10.748 -1.1166 -1.2512 -0.1419
 2167TIP3    H227993   4.508   3.358  10.867 -0.7802 -0.0727 -0.9256
 2168TIP3   OH227994   4.988   6.368   2.673  0.0673 -0.2203  0.1058
 2168TIP3    H127995   4.998   6.301   2.740 -3.2771 -1.6690 -0.6592
 2168TIP3    H227996   5.055   6.346   2.608 -0.8334 -2.8576 -0.0583
 2169TIP3   OH227997   0.491   3.511  13.581 -0.2748  0.0189  0.2615
 2169TIP3    H127998   0.519   3.568  13.509 -1.6514  0.9464  0.4142
 2169TIP3    H227999   0.432   3.566  13.633 -0.0180 -0.9257  1.5956
 2170TIP3   OH228000   4.837   2.069  12.918  0.1972  0.2017  0.1743
 2170TIP3    H128001   4.821   2.137  12.983 -0.8959  1.1248 -1.0201
 2170TIP3    H228002   4.929   2.078  12.895 -0.1973  2.0795 -0.8188
 2171TIP3   OH228003   5.200   0.079   3.455  0.6131  0.0398 -0.3185
 2171TIP3    H128004   5.170   0.078   3.546  1.1640  1.8430 -0.0736
 2171TIP3    H228005   5.149   0.010   3.412 -1.8070  1.0714  0.7137
 2172TIP3   OH228006   5.388   2.237  11.767 -0.3559 -0.2751  0.2290
 2172TIP3    H128007   5.378   2.331  11.780 -0.8509 -0.3368  0.3118
 2172TIP3    H228008   5.351   2.197  11.846 -0.6895 -0.5555 -0.0645
 2173TIP3   OH228009   3.254   3.315   2.789 -0.6415 -0.5710 -1.2807
 2173TIP3    H128010   3.189   3.333   2.722 -0.5091  1.7299 -0.8766
 2173TIP3    H228011   3.205   3.269   2.858 -1.4573 -0.2726 -1.6471
 2174TIP3   OH228012   4.196   1.664  12.549 -0.7481 -0.3399  0.3303
 2174TIP3    H128013   4.231   1.625  12.629 -0.0485  0.9456  0.6770
 2174TIP3    H228014   4.271   1.669  12.489 -0.6020  1.2144  0.6004
 2175TIP3   OH228015   0.900   0.297  16.893  0.8275 -0.3054 -0.0111
 2175TIP3    H128016   0.981   0.298  16.944  0.2458 -2.0811  1.0296
 2175TIP3    H228017   0.847   0.229  16.933 -0.2689 -0.7817 -2.1063
 2176TIP3   OH228018   3.059   1.091  14.703 -0.2694 -0.0325 -0.3123
 2176TIP3    H128019   3.130   1.048  14.751  1.8622  3.7375  0.2847
 2176TIP3    H228020   3.089   1.093  14.612 -0.1350  0.5512 -0.2580
 2177TIP3   OH228021   1.804   4.220  12.888 -1.0308 -0.4539 -0.1716
 2177TIP3    H128022   1.720   4.251  12.855 -1.2647 -0.2449  0.6089
 2177TIP3    H228023   1.821   4.274  12.966 -0.7085 -1.2425  0.3152
 2178TIP3   OH228024   5.390   3.868   0.535 -0.7737  0.1963  0.0402
 2178TIP3    H128025   5.338   3.936   0.578  0.3769  0.7981  0.5228
 2178TIP3    H228026   5.427   3.817   0.606 -0.2953  0.0950 -0.2739
 2179TIP3   OH228027   3.134   2.899  14.865  0.8316  0.0770  0.2785
 2179TIP3    H128028   3.205   2.887  14.929  0.4144 -1.7186  0.4494
 2179TIP3    H228029   3.054   2.894  14.918  0.5172 -0.1991 -0.2197
 2180TIP3   OH228030   6.680   1.676  14.011  0.3846  0.7893 -0.0307
 2180TIP3    H128031   6.685   1.738  13.938  3.4437  0.4880 -0.1958
 2180TIP3    H228032   6.771   1.654  14.030 -0.2906  0.5018  3.6051
 2181TIP3   OH228033   3.010   4.550   2.265  0.2240  0.0433 -0.6557
 2181TIP3    H128034   3.076   4.613   2.294 -0.4099  0.4166 -0.0121
 2181TIP3    H228035   3.061   4.482   2.220  0.9868  0.6287 -0.7045
 2182TIP3   OH228036   3.360   0.829   5.583 -0.0232  0.4290 -0.0374
 2182TIP3    H128037   3.294   0.791   5.526  0.9411 -0.8367 -0.3677
 2182TIP3    H228038   3.431   0.856   5.524  1.8959 -2.7393  0.5293
 2183TIP3   OH228039   3.849   2.656   5.403 -0.5122 -0.5403  0.1949
 2183TIP3    H128040   3.812   2.684   5.487  0.0490 -1.4937  0.7664
 2183TIP3    H228041   3.793   2.699   5.338 -1.1221 -0.0062  1.0407
 2184TIP3   OH228042   1.070   2.810   3.254 -0.5522 -0.7281  0.0244
 2184TIP3    H128043   1.081   2.733   3.309  0.7199 -1.6436 -1.4235
 2184TIP3    H228044   1.154   2.855   3.257 -0.3383 -0.9772 -1.3830
 2185TIP3   OH228045   1.704   0.866  12.782 -0.0582 -0.6037  0.5940
 2185TIP3    H128046   1.628   0.808  12.790  0.2443 -1.0304  0.4159
 2185TIP3    H228047   1.778   0.810  12.806  0.0462  0.2761  2.5375
 2186TIP3   OH228048   3.435   5.282   5.217 -0.0401  0.3151  0.0945
 2186TIP3    H128049   3.460   5.230   5.140  0.1961  0.5967 -0.0197
 2186TIP3    H228050   3.372   5.227   5.264  0.1702 -0.0540 -0.0542
 2187TIP3   OH228051   6.299   2.235  13.052 -0.0877 -0.3366  0.3452
 2187TIP3    H128052   6.317   2.325  13.025  1.1223 -0.6162  0.1537
 2187TIP3    H228053   6.350   2.182  12.990  0.4543 -1.0873  1.4105
 2188TIP3   OH228054   5.527   2.820  13.463  0.2472 -0.0696 -0.0953
 2188TIP3    H128055   5.566   2.737  13.493 -2.2247 -0.4268  2.6852
 2188TIP3    H228056   5.582   2.888  13.502  1.0337 -0.4275 -0.5614
 2189TIP3   OH228057   0.141   1.987   3.158 -0.3956  0.1971 -0.5947
 2189TIP3    H128058   0.171   2.034   3.080  0.3294 -0.4602 -0.7156
 2189TIP3    H228059   0.078   2.047   3.198  0.9510  1.5769 -0.4151
 2190TIP3   OH228060   5.042   6.011  14.486 -0.5197 -0.2356 -0.1192
 2190TIP3    H128061   4.978   6.044  14.423  1.0229  1.5184 -0.9025
 2190TIP3    H228062   5.121   6.064  14.469  1.1971 -2.3902  0.6578
 2191TIP3   OH228063   5.290   1.049  13.980  0.5761 -0.7070  0.5683
 2191TIP3    H128064   5.367   1.020  13.931  0.1470 -0.3545 -0.3482
 2191TIP3    H228065   5.230   1.081  13.912  0.8245  1.8639  1.4535
 2192TIP3   OH228066   5.699   3.018  11.196 -0.2919  0.4238  0.2697
 2192TIP3    H128067   5.710   3.034  11.102  2.3151 -0.2350  0.3811
 2192TIP3    H228068   5.696   2.923  11.203 -0.6413  0.4752  0.8662
 2193TIP3   OH228069   4.664   5.631  16.280 -0.2791  0.0011 -0.5973
 2193TIP3    H128070   4.715   5.708  16.255 -0.3992  0.0947 -0.5559
 2193TIP3    H228071   4.578   5.666  16.305  0.7387  0.3498  3.0539
 2194TIP3   OH228072   4.123   2.131  14.273  0.3895 -0.2440  0.2365
 2194TIP3    H128073   4.191   2.120  14.340  0.2284  1.3970  0.7117
 2194TIP3    H228074   4.150   2.072  14.203  2.1034  0.0729  0.5744
 2195TIP3   OH228075   2.549   3.914   5.367 -0.2001  0.2878  0.2884
 2195TIP3    H128076   2.507   3.837   5.328 -0.4609 -0.2502  1.5709
 2195TIP3    H228077   2.562   3.890   5.459 -0.8607  2.0076  0.8668
 2196TIP3   OH228078   2.121   0.590   2.192  0.1898  0.1796 -0.0457
 2196TIP3    H128079   2.092   0.499   2.185 -0.7670  0.1597  2.9675
 2196TIP3    H228080   2.073   0.635   2.122  0.5021 -1.5488 -1.4481
 2197TIP3   OH228081   2.997   2.266  11.703  0.1407  0.4790 -0.4330
 2197TIP3    H128082   2.946   2.295  11.779  1.1811  0.7293  0.1851
 2197TIP3    H228083   3.031   2.180  11.729  0.2680  0.4385 -0.7328
 2198TIP3   OH228084   4.728   5.098   5.660  0.0903  0.3162  0.6294
 2198TIP3    H128085   4.788   5.117   5.732  0.7700 -1.3858  0.5656
 2198TIP3    H228086   4.678   5.022   5.691 -0.1933  0.0872 -0.3600
 2199TIP3   OH228087   1.314   3.841   4.554 -0.2772 -0.2756 -0.7014
 2199TIP3    H128088   1.323   3.838   4.459 -0.3324  1.8861 -0.8039
 2199TIP3    H228089   1.219   3.843   4.570 -0.3033  2.8028 -0.8102
 2200TIP3   OH228090   2.589   4.601  12.412 -0.3627  0.5671  0.8717
 2200TIP3    H128091   2.627   4.585  12.498  0.8059 -1.8244  0.0037
 2200TIP3    H228092   2.603   4.694  12.396 -0.6258  1.0682  3.2278
 2201TIP3   OH228093   3.178   4.891   2.660  0.0892  0.1205 -0.2132
 2201TIP3    H128094   3.134   4.865   2.579  0.0218  0.5541 -0.3158
 2201TIP3    H228095   3.266   4.917   2.633  0.5240 -1.0202  0.0281
 2202TIP3   OH228096   1.764   1.489   1.153 -0.4896 -0.2646 -0.4397
 2202TIP3    H128097   1.857   1.512   1.159  0.0846 -1.9240 -1.8812
 2202TIP3    H228098   1.757   1.405   1.198 -1.6681  0.5950  1.0739
 2203TIP3   OH228099   3.915   0.979  14.750  0.2774 -0.4186  1.0099
 2203TIP3    H128100   3.930   1.073  14.760  0.0044 -0.3406  0.7013
 2203TIP3    H228101   3.912   0.966  14.655 -0.3659 -0.6319  1.0587
 2204TIP3   OH228102   4.387   3.749   4.793 -0.4630 -0.0161  0.8113
 2204TIP3    H128103   4.451   3.778   4.858 -0.5212 -0.6688  1.1718
 2204TIP3    H228104   4.378   3.655   4.810 -1.3804  0.0370  0.6438
 2205TIP3   OH228105   0.829   0.225  12.332 -0.4112  0.0302  0.7056
 2205TIP3    H128106   0.796   0.266  12.412  0.2463  0.7406  0.6225
 2205TIP3    H228107   0.919   0.199  12.354 -0.6054 -0.8275  0.5541
 2206TIP3   OH228108   2.397   4.445  16.172 -0.2488 -0.2636 -0.3070
 2206TIP3    H128109   2.389   4.529  16.218 -0.4092  0.1992 -1.1551
 2206TIP3    H228110   2.491   4.426  16.173 -0.2422 -0.2161  0.1362
 2207TIP3   OH228111   1.581   6.067  16.084  0.6302 -0.4747 -0.3312
 2207TIP3    H128112   1.485   6.066  16.085  0.5491  2.0719 -0.8613
 2207TIP3    H228113   1.606   6.011  16.158 -1.2425 -1.0436 -0.0831
 2208TIP3   OH228114   0.560   6.425  11.869  0.1893 -0.3875  0.3593
 2208TIP3    H128115   0.566   6.491  11.938  0.4221 -0.7445  0.6794
 2208TIP3    H228116   0.651   6.408  11.844  0.2047 -1.4727  1.1178
 2209TIP3   OH228117   3.982   3.824  14.587  0.3720 -0.5608  0.4444
 2209TIP3    H128118   3.909   3.765  14.600  0.9674 -1.5974 -0.6803
 2209TIP3    H228119   3.942   3.908  14.563 -0.4783 -0.4885  2.0061
 2210TIP3   OH228120   6.729   3.565   3.794  0.2614 -0.4773 -0.3632
 2210TIP3    H128121   6.819   3.596   3.789  0.5771 -1.4693 -0.9299
 2210TIP3    H228122   6.709   3.561   3.888  1.1502 -1.2492 -0.2035
 2211TIP3   OH228123   1.161   4.983   0.646 -0.3016 -0.2803  0.1095
 2211TIP3    H128124   1.090   5.028   0.692  1.0323  0.4616  1.5408
 2211TIP3    H228125   1.216   4.947   0.716  1.2420 -0.0119 -0.9098
 2212TIP3   OH228126   2.167   2.455  12.449  0.1706 -0.0526  0.3675
 2212TIP3    H128127   2.080   2.415  12.442 -0.1341  0.4192  1.2691
 2212TIP3    H228128   2.149   2.545  12.474  0.9346 -0.1336  1.2654
 2213TIP3   OH228129   5.417   1.390   5.136  0.0649 -0.1135 -0.2960
 2213TIP3    H128130   5.466   1.427   5.209  1.5308  2.2092 -2.2759
 2213TIP3    H228131   5.325   1.398   5.162  0.5662  0.0542  1.5218
 2214TIP3   OH228132   3.343   1.318  13.029 -0.7128 -0.5754  0.0992
 2214TIP3    H128133   3.405   1.345  12.961 -1.0269 -1.0959 -0.4163
 2214TIP3    H228134   3.319   1.228  13.004  0.4909 -1.4480  1.8810
 2215TIP3   OH228135   2.823   3.837   1.174  0.0208 -0.4779  0.3393
 2215TIP3    H128136   2.776   3.771   1.225  0.2432 -0.0393  1.1220
 2215TIP3    H228137   2.895   3.789   1.133 -0.9868 -1.1217 -0.7314
 2216TIP3   OH228138   2.076   4.002  10.662 -0.6542 -0.2755  0.3527
 2216TIP3    H128139   2.168   3.992  10.687 -0.7320  0.5969  1.0301
 2216TIP3    H228140   2.031   3.932  10.709 -0.6739  0.8237  2.0686
 2217TIP3   OH228141   3.303   2.457  14.321 -0.1417  0.2932  0.3177
 2217TIP3    H128142   3.229   2.396  14.326 -0.0628  0.2587  1.2463
 2217TIP3    H228143   3.374   2.405  14.284 -0.1881 -0.0756  0.7339
 2218TIP3   OH228144   3.094   4.802   5.331  0.2285 -0.4423  0.2541
 2218TIP3    H128145   3.005   4.792   5.298 -0.0298 -0.7387  1.0201
 2218TIP3    H228146   3.149   4.761   5.265 -0.2468 -0.7080  0.0216
 2219TIP3   OH228147   1.294   5.665  11.895 -0.2781 -0.2606  0.2201
 2219TIP3    H128148   1.246   5.680  11.814  0.7524  1.5707 -0.0939
 2219TIP3    H228149   1.283   5.746  11.946  0.1681 -0.8835  1.3539
 2220TIP3   OH228150   2.692   4.443  15.441 -0.4507 -0.3343  0.4894
 2220TIP3    H128151   2.674   4.510  15.508  2.9772  1.6475 -0.3369
 2220TIP3    H228152   2.648   4.475  15.363  0.4820  0.5799  0.3181
 2221TIP3   OH228153   1.840   6.259  17.023 -0.7655 -0.2225  0.6619
 2221TIP3    H128154   1.846   6.354  17.038 -0.9140 -0.0921 -0.0698
 2221TIP3    H228155   1.823   6.223  17.109  1.6287  0.1921  1.3948
 2222TIP3   OH228156   0.974   1.235   1.386 -0.0720  0.4066  0.2768
 2222TIP3    H128157   0.996   1.221   1.294  1.2007  1.4022  0.4071
 2222TIP3    H228158   0.945   1.149   1.417 -0.7549  0.1071 -1.0973
 2223TIP3   OH228159   2.018   1.960   5.565  0.6030  0.0428 -0.1889
 2223TIP3    H128160   1.974   1.974   5.649 -1.3083  0.1834 -1.1515
 2223TIP3    H228161   2.034   2.048   5.531 -0.5278  0.0163 -0.8641
 2224TIP3   OH228162   5.115   1.808  13.449 -0.6166 -0.5504 -0.2470
 2224TIP3    H128163   5.101   1.714  13.463 -1.5447 -0.3840 -0.0080
 2224TIP3    H228164   5.211   1.818  13.452 -0.4597 -1.5938 -1.0014
 2225TIP3   OH228165   6.180   3.388   2.555  0.5730  0.4667  0.2154
 2225TIP3    H128166   6.178   3.336   2.475 -0.8556 -2.1723  1.8187
 2225TIP3    H228167   6.263   3.363   2.597  0.2734  0.0783  0.5904
 2226TIP3   OH228168   4.277   0.393   3.539 -0.0422 -0.1158 -0.1684
 2226TIP3    H128169   4.269   0.487   3.523  0.4618 -0.4120 -2.5733
 2226TIP3    H228170   4.309   0.387   3.629 -0.3290  1.9991  0.1357
 2227TIP3   OH228171   3.704   0.802  15.797  0.5024 -0.0923  0.3468
 2227TIP3    H128172   3.661   0.758  15.871 -1.0796  2.3634  1.0168
 2227TIP3    H228173   3.633   0.848  15.752  2.0084  1.6909 -0.3181
 2228TIP3   OH228174   1.927   1.035   1.293 -0.6668  0.1782  0.2359
 2228TIP3    H128175   1.973   1.035   1.209 -1.4521 -3.4102 -0.3484
 2228TIP3    H228176   1.992   1.006   1.356 -0.0896  2.8304  0.9809
 2229TIP3   OH228177   4.309   5.088   4.455  0.1507  0.2918  0.3507
 2229TIP3    H128178   4.330   5.098   4.548 -1.4999 -1.3672  0.9536
 2229TIP3    H228179   4.393   5.072   4.413  1.0975  2.3561  1.3162
 2230TIP3   OH228180   3.368   5.132  13.172 -0.3242  0.5779  0.2505
 2230TIP3    H128181   3.278   5.101  13.159 -0.9726  2.2828  0.4501
 2230TIP3    H228182   3.410   5.117  13.087 -1.0637  0.6218 -0.1334
 2231TIP3   OH228183   6.578   6.006  13.955  0.1624 -0.2279  0.8307
 2231TIP3    H128184   6.640   5.995  13.883  0.1488  0.1637  0.7590
 2231TIP3    H228185   6.535   5.921  13.963 -0.0347 -0.1910  0.1865
 2232TIP3   OH228186   4.640   0.061   0.659 -0.1773  0.5841  0.0738
 2232TIP3    H128187   4.698   0.104   0.721 -1.6792  0.2055  1.8338
 2232TIP3    H228188   4.698   0.008   0.605  1.1115 -0.4166  2.2809
 2233TIP3   OH228189   0.666   6.275  17.120  0.5676 -0.4225 -0.6452
 2233TIP3    H128190   0.649   6.306  17.209 -1.9717 -0.2956 -1.0902
 2233TIP3    H228191   0.754   6.236  17.124  0.6567 -0.1295  1.8104
 2234TIP3   OH228192   5.010   5.900   2.302  0.3768 -0.1193  0.2121
 2234TIP3    H128193   4.989   5.807   2.294 -0.3016 -0.0223  0.7164
 2234TIP3    H228194   5.096   5.902   2.343  0.1001 -0.5269  0.8239
 2235TIP3   OH228195   3.317   0.531  11.799 -0.0882  0.1189 -0.0612
 2235TIP3    H128196   3.287   0.502  11.713 -0.9660  0.0259  0.2652
 2235TIP3    H228197   3.405   0.494  11.808 -0.4009 -0.7409 -0.4895
 2236TIP3   OH228198   5.667   1.688   1.257 -0.4232 -0.5021  0.2346
 2236TIP3    H128199   5.669   1.616   1.321 -0.3557 -1.1251 -0.4566
 2236TIP3    H228200   5.751   1.733   1.269  0.2354 -1.5207 -0.4270
 2237TIP3   OH228201   4.760   4.567  11.704 -0.0601  0.2251  0.7798
 2237TIP3    H128202   4.803   4.591  11.622  0.1259 -1.2031  0.4150
 2237TIP3    H228203   4.794   4.628  11.769  0.4605  0.8220 -0.0370
 2238TIP3   OH228204   6.037   3.690  17.213  0.0614 -0.1236 -0.8744
 2238TIP3    H128205   6.082   3.673  17.131 -1.4654 -1.6277 -1.4799
 2238TIP3    H228206   5.946   3.706  17.188 -0.6737 -1.7143  0.5486
 2239TIP3   OH228207   3.473   1.039  16.636 -0.5413 -0.3992  0.1380
 2239TIP3    H128208   3.530   0.998  16.700 -1.0360 -3.0700 -1.0120
 2239TIP3    H228209   3.532   1.091  16.581  0.5047 -1.4942  0.1999
 2240TIP3   OH228210   3.019   4.136  14.355 -0.1059  0.3043  0.1604
 2240TIP3    H128211   3.024   4.072  14.426 -2.3148  0.7599  0.8050
 2240TIP3    H228212   3.109   4.164  14.341  1.0042 -3.1312 -0.3740
 2241TIP3   OH228213   6.632   0.866  15.761 -0.2913  0.6573 -0.2671
 2241TIP3    H128214   6.653   0.887  15.852  0.8812 -0.2607 -0.3009
 2241TIP3    H228215   6.674   0.935  15.710 -0.5346  0.9023 -0.1374
 2242TIP3   OH228216   1.467   1.931  14.508  0.4797 -0.4690  0.3006
 2242TIP3    H128217   1.510   1.996  14.562 -1.8888  0.9635  0.6191
 2242TIP3    H228218   1.504   1.944  14.420  1.1256  0.2469  0.6702
 2243TIP3   OH228219   4.857   0.063   5.908 -0.1618 -0.3312  0.2146
 2243TIP3    H128220   4.841   0.027   5.996  0.5975 -2.1249 -0.3376
 2243TIP3    H228221   4.943   0.104   5.915 -0.8850  1.1503  0.7593
 2244TIP3   OH228222   2.201   6.487  16.881  0.0580  0.1216  0.4873
 2244TIP3    H128223   2.108   6.470  16.895  0.4711 -0.1818  3.9330
 2244TIP3    H228224   2.204   6.548  16.807 -2.7162 -0.9722 -0.6702
 2245TIP3   OH228225   4.338   0.418   0.130  0.3042 -0.0578  0.1855
 2245TIP3    H128226   4.404   0.440   0.195  0.3371  0.1711  0.0781
 2245TIP3    H228227   4.330   0.323   0.134  0.7999 -0.1075  0.0440
 2246TIP3   OH228228   4.106   3.054   6.014  0.2903  0.4177 -0.5619
 2246TIP3    H128229   4.154   3.131   5.984  1.8256 -0.0110  0.6617
 2246TIP3    H228230   4.094   3.067   6.108 -0.9594 -0.0617 -0.6295
 2247TIP3   OH228231   5.820   3.193   4.723 -0.2158  0.3246  0.2791
 2247TIP3    H128232   5.804   3.233   4.809  1.3189 -0.5949  1.0355
 2247TIP3    H228233   5.869   3.113   4.742 -0.9548 -0.5798 -1.3851
 2248TIP3   OH228234   1.881   1.639  16.261 -0.4684  0.2199  0.0643
 2248TIP3    H128235   1.867   1.668  16.171  0.9245  0.9064  0.0424
 2248TIP3    H228236   1.856   1.546  16.261  3.3409 -1.0410 -2.1434
 2249TIP3   OH228237   6.599   1.460  11.310  0.1376  0.1979 -0.4265
 2249TIP3    H128238   6.545   1.505  11.245  1.0181  1.3799 -0.3671
 2249TIP3    H228239   6.585   1.510  11.391  0.1609 -0.4019 -0.0416
 2250TIP3   OH228240   6.386   0.119   3.844 -0.0940 -0.9684 -0.2457
 2250TIP3    H128241   6.446   0.082   3.779 -0.5364 -0.9888 -0.6443
 2250TIP3    H228242   6.301   0.121   3.800 -0.2777 -0.4198  0.1260
 2251TIP3   OH228243   4.976   0.740  13.945 -0.1623 -0.1710  0.0981
 2251TIP3    H128244   5.038   0.772  14.011 -1.5242  0.4908  1.1114
 2251TIP3    H228245   5.032   0.702  13.877  1.4411  1.6987  0.2501
 2252TIP3   OH228246   2.355   5.713   4.553 -0.1621 -0.0995 -0.3224
 2252TIP3    H128247   2.297   5.719   4.629 -0.7983  0.2801 -0.8329
 2252TIP3    H228248   2.407   5.793   4.557  0.4565 -0.5141  0.2249
 2253TIP3   OH228249   0.301   3.071  13.973 -0.3144  0.0225 -0.6909
 2253TIP3    H128250   0.227   3.124  14.002 -0.1069 -0.3091  0.5310
 2253TIP3    H228251   0.262   2.994  13.931 -0.6557  0.0842 -0.4823
 2254TIP3   OH228252   5.629   5.777   3.539  0.1633 -0.2789  0.0017
 2254TIP3    H128253   5.642   5.801   3.630 -0.6006  2.0190 -0.4227
 2254TIP3    H228254   5.708   5.808   3.494  1.4373 -3.1029  0.0608
 2255TIP3   OH228255   2.583   0.484  14.902  0.5457  0.1795  0.2174
 2255TIP3    H128256   2.603   0.447  14.817 -0.5933 -0.8808  0.3803
 2255TIP3    H228257   2.519   0.424  14.940 -2.1296  2.7133  0.1397
 2256TIP3   OH228258   5.052   0.943   4.839  0.4234  0.3236 -0.2497
 2256TIP3    H128259   5.099   1.004   4.895 -1.4421  1.7913 -0.1893
 2256TIP3    H228260   5.105   0.863   4.842  3.8973  2.3437 -1.6874
 2257TIP3   OH228261   1.149   0.993  14.178  0.0800 -0.2460 -0.2076
 2257TIP3    H128262   1.060   0.983  14.146  0.7330  0.1098 -2.3435
 2257TIP3    H228263   1.184   0.904  14.182  0.3556 -0.2287 -1.7462
 2258TIP3   OH228264   1.649   1.264   2.109 -0.1295 -0.1448 -0.8051
 2258TIP3    H128265   1.626   1.345   2.155 -0.3469 -0.6711  0.0323
 2258TIP3    H228266   1.708   1.219   2.169 -1.9250 -1.7550 -0.1256
 2259TIP3   OH228267   2.845   2.711   5.350 -0.2448  0.0829  0.0489
 2259TIP3    H128268   2.814   2.648   5.414 -0.7591 -1.3969 -1.5861
 2259TIP3    H228269   2.772   2.771   5.338 -0.9173 -0.8563 -0.6464
 2260TIP3   OH228270   3.438   5.204   0.709  0.5562 -0.2186 -0.5524
 2260TIP3    H128271   3.364   5.174   0.762  0.0676  2.2871  0.3117
 2260TIP3    H228272   3.416   5.178   0.619 -0.8391 -0.4653 -0.1591
 2261TIP3   OH228273   0.280   0.576  13.507  0.1629 -1.0306 -0.0241
 2261TIP3    H128274   0.250   0.624  13.584  1.6565 -1.1028  0.6358
 2261TIP3    H228275   0.283   0.642  13.437  0.6003 -0.5321  0.4586
 2262TIP3   OH228276   5.506   5.046   0.985  0.8453  0.3044 -0.4750
 2262TIP3    H128277   5.425   5.072   1.029  0.4326 -0.3743 -0.8140
 2262TIP3    H228278   5.547   5.129   0.958  1.7453  0.8422  2.2200
 2263TIP3   OH228279   2.023   6.048   1.492  0.2041 -0.0281 -0.2714
 2263TIP3    H128280   2.016   6.104   1.415  2.5694 -1.5980 -1.7423
 2263TIP3    H228281   2.049   6.107   1.563 -0.6806  1.2182 -0.9464
 2264TIP3   OH228282   4.051   2.325  16.422  0.5515 -0.3811  0.0052
 2264TIP3    H128283   4.028   2.415  16.399 -0.9701 -0.4054  1.2263
 2264TIP3    H228284   4.146   2.326  16.432  0.9446  0.3609 -2.8163
 2265TIP3   OH228285   5.469   6.391   6.013 -0.1938  0.4655  0.0696
 2265TIP3    H128286   5.519   6.427   5.940 -1.8939  1.7635 -0.5132
 2265TIP3    H228287   5.378   6.403   5.988 -0.8362  1.2409  2.5372
 2266TIP3   OH228288   4.347   3.029  14.240 -0.3655  0.5791 -0.1524
 2266TIP3    H128289   4.399   2.957  14.205  1.0392  0.6191  1.7225
 2266TIP3    H228290   4.321   3.001  14.328 -0.8678  1.8301  0.1321
 2267TIP3   OH228291   6.722   2.396  14.558  0.3422 -0.1372 -0.0135
 2267TIP3    H128292   6.642   2.439  14.528  1.6581  3.2097  0.8631
 2267TIP3    H228293   6.720   2.405  14.653  0.5094 -2.5697  0.2884
 2268TIP3   OH228294   6.509   0.717   1.836 -0.4901 -0.0493  0.3190
 2268TIP3    H128295   6.488   0.652   1.903 -0.6124 -0.7537 -0.3942
 2268TIP3    H228296   6.518   0.799   1.885 -0.6844 -0.5289  1.1829
 2269TIP3   OH228297   4.261   6.252  15.823 -0.2562 -0.1401  0.3913
 2269TIP3    H128298   4.277   6.209  15.739  0.3403  1.5326 -0.3991
 2269TIP3    H228299   4.287   6.187  15.889 -1.8679 -1.9334 -0.6480
 2270TIP3   OH228300   3.538   0.393   4.041 -0.9605  0.0771  0.6127
 2270TIP3    H128301   3.489   0.422   4.119  1.5921  2.0512  1.5988
 2270TIP3    H228302   3.609   0.339   4.077 -0.7694 -0.4511 -0.5281
 2271TIP3   OH228303   2.834   0.844  15.571 -0.1992 -0.6166 -0.2011
 2271TIP3    H128304   2.865   0.777  15.510 -0.3236 -0.8817  0.0254
 2271TIP3    H228305   2.771   0.798  15.627  0.7725 -0.6880  0.8968
 2272TIP3   OH228306   4.126   2.674   5.318 -0.1146 -0.0089 -0.7236
 2272TIP3    H128307   4.161   2.760   5.342 -0.2907 -0.9453  3.5687
 2272TIP3    H228308   4.033   2.680   5.338  0.3400 -1.9271  2.7161
 2273TIP3   OH228309   0.163   6.435  15.627  0.0780  0.9549 -0.2011
 2273TIP3    H128310   0.101   6.415  15.557  0.3769 -1.9057  0.2363
 2273TIP3    H228311   0.244   6.460  15.582  0.1049 -0.3309 -0.8936
 2274TIP3   OH228312   0.503   0.732  12.649  0.1076 -0.0195  0.5063
 2274TIP3    H128313   0.434   0.667  12.662 -0.4175  0.5064  0.3595
 2274TIP3    H228314   0.459   0.807  12.609  0.0686  1.6244  3.3545
 2275TIP3   OH228315   5.771   4.893   1.182 -0.5956  0.0051 -0.0757
 2275TIP3    H128316   5.756   4.936   1.266  1.9507  0.2949  0.3072
 2275TIP3    H228317   5.689   4.907   1.133 -2.4085 -0.7472  2.5197
 2276TIP3   OH228318   2.747   4.378  11.364  0.2109 -0.5075  0.1729
 2276TIP3    H128319   2.699   4.322  11.303  0.7637 -1.0809  0.2484
 2276TIP3    H228320   2.680   4.411  11.424 -0.4386  0.5422 -1.0789
 2277TIP3   OH228321   0.379   0.338  12.353  0.3538  0.2711  0.2112
 2277TIP3    H128322   0.361   0.420  12.307  1.3974  0.8178  0.7499
 2277TIP3    H228323   0.445   0.294  12.299  0.7210  0.3713  0.5779
 2278TIP3   OH228324   5.173   0.935  16.385 -0.2413 -0.2659 -0.6999
 2278TIP3    H128325   5.168   0.860  16.325 -1.3989 -0.1744 -0.7385
 2278TIP3    H228326   5.166   1.012  16.329  1.2540 -0.0964 -0.6907
 2279TIP3   OH228327   2.280   4.336   0.559 -0.0579  0.5450  0.2988
 2279TIP3    H128328   2.257   4.245   0.539 -0.6770  1.2213 -2.4983
 2279TIP3    H228329   2.356   4.329   0.617  1.0846 -1.8330 -1.2763
 2280TIP3   OH228330   5.629   2.464   0.047  0.0306  0.5920 -0.0413
 2280TIP3    H128331   5.540   2.455   0.012 -0.2311 -0.3746  0.8253
 2280TIP3    H228332   5.674   2.384   0.020  0.2638  0.5117  0.5688
 2281TIP3   OH228333   3.186   0.136   2.429 -0.1343  0.6829 -0.1405
 2281TIP3    H128334   3.128   0.199   2.386  0.8744  1.7227 -0.0251
 2281TIP3    H228335   3.214   0.181   2.509  2.6309  1.1840 -1.2852
 2282TIP3   OH228336   5.468   1.160  10.796 -0.7166 -0.2278  0.1639
 2282TIP3    H128337   5.509   1.226  10.852 -1.2349 -2.3568  3.3529
 2282TIP3    H228338   5.537   1.095  10.783 -1.4959 -1.2789  1.0926
 2283TIP3   OH228339   0.738   1.447  14.682  0.5274  0.0173 -0.3214
 2283TIP3    H128340   0.668   1.502  14.647  0.2916  0.4135  0.7158
 2283TIP3    H228341   0.753   1.381  14.615  0.2752  0.8894 -1.2503
 2284TIP3   OH228342   4.429   4.901  15.028 -0.2600  0.4670 -0.2652
 2284TIP3    H128343   4.510   4.952  15.034  0.3241 -0.4413 -0.2966
 2284TIP3    H228344   4.365   4.952  15.078  0.6398  0.5958  0.8041
 2285TIP3   OH228345   2.730   6.641   1.543  0.0445  0.3799 -0.1597
 2285TIP3    H128346   2.732   6.703   1.469  1.4765  2.4360  1.4727
 2285TIP3    H228347   2.699   6.693   1.617 -1.8045 -1.7419  0.6568
 2286TIP3   OH228348   1.855   3.393  10.947 -0.5803 -0.0317  0.0563
 2286TIP3    H128349   1.802   3.472  10.953 -0.3614  0.1721 -0.6313
 2286TIP3    H228350   1.942   3.423  10.921 -0.1920 -0.3930  0.8922
 2287TIP3   OH228351   0.865   6.738   5.546 -0.3762 -0.5947  0.5931
 2287TIP3    H128352   0.955   6.718   5.520 -1.6235 -2.6124 -2.8785
 2287TIP3    H228353   0.865   6.832   5.562  2.3182 -0.5300  0.6920
 2288TIP3   OH228354   5.901   4.210  12.946  0.2003 -0.3804  0.0519
 2288TIP3    H128355   5.859   4.164  13.020 -0.3777 -2.0345 -1.2438
 2288TIP3    H228356   5.834   4.271  12.916  0.5012  0.4300  0.9842
 2289TIP3   OH228357   2.201   2.495   1.304 -0.0275  0.5364 -0.5308
 2289TIP3    H128358   2.166   2.410   1.279  0.6103 -0.0973  0.6670
 2289TIP3    H228359   2.124   2.547   1.326 -0.3814  0.1006 -0.7251
 2290TIP3   OH228360   1.680   6.496  10.787 -0.4358 -0.0179  0.1938
 2290TIP3    H128361   1.665   6.407  10.818 -0.2682  0.1727  0.8224
 2290TIP3    H228362   1.653   6.493  10.695  2.7766 -1.6028 -0.8397
 2291TIP3   OH228363   5.819   0.971   0.666 -0.3354  0.1933 -0.0468
 2291TIP3    H128364   5.811   1.019   0.748  0.3293  1.7253 -0.8517
 2291TIP3    H228365   5.871   0.893   0.689  1.8840  1.7488  0.5873
 2292TIP3   OH228366   5.957   5.277   3.394  0.5876  0.7826 -0.2514
 2292TIP3    H128367   5.978   5.251   3.305  1.0538  0.2617 -0.0022
 2292TIP3    H228368   5.880   5.332   3.386  0.4821  0.5452 -0.9517
 2293TIP3   OH228369   6.448   1.285   3.688 -0.0791 -0.2666  0.2470
 2293TIP3    H128370   6.456   1.238   3.605  0.0112 -1.1341  0.7277
 2293TIP3    H228371   6.538   1.307   3.713 -0.0308 -0.7411  0.5114
 2294TIP3   OH228372   0.041   1.194   3.597 -0.1205 -0.3110 -0.2396
 2294TIP3    H128373  -0.042   1.224   3.561 -0.6371 -1.5672 -0.1709
 2294TIP3    H228374   0.020   1.109   3.636  1.3513 -0.9936 -0.8761
 2295TIP3   OH228375   6.038   5.856  14.171  0.4621 -0.2241  0.1890
 2295TIP3    H128376   5.986   5.781  14.201  1.5400 -1.2936 -0.5553
 2295TIP3    H228377   6.006   5.875  14.083  0.1366  0.2595  0.4053
 2296TIP3   OH228378   4.791   5.387  12.191  0.1395  0.0371 -0.2082
 2296TIP3    H128379   4.736   5.465  12.185 -0.1617 -0.0613  0.9795
 2296TIP3    H228380   4.871   5.418  12.235  0.2321 -0.2184 -0.1961
 2297TIP3   OH228381   3.369   3.300  11.143  0.0510  0.3183  0.0716
 2297TIP3    H128382   3.436   3.316  11.077  0.7801  1.0943  0.9539
 2297TIP3    H228383   3.287   3.296  11.094  0.6801 -0.1009 -0.9708
 2298TIP3   OH228384   0.513   1.022  14.136 -0.0480  0.1841  0.1373
 2298TIP3    H128385   0.417   1.025  14.135 -0.1189 -1.0729  0.8098
 2298TIP3    H228386   0.540   1.114  14.128 -1.2660  0.4499 -1.5581
 2299TIP3   OH228387   0.179   5.658  10.915  0.1070  0.0032  0.2023
 2299TIP3    H128388   0.164   5.753  10.920 -0.4637  0.0174 -1.1450
 2299TIP3    H228389   0.091   5.620  10.922 -0.0159 -0.2473 -1.9773
 2300TIP3   OH228390   5.572   3.189   6.363  1.0842  0.3007 -0.0991
 2300TIP3    H128391   5.558   3.206   6.456 -0.1856  1.6794 -0.5185
 2300TIP3    H228392   5.664   3.161   6.357  1.2800  0.5567  1.5061
 2301TIP3   OH228393   1.708   1.363   5.951  0.1461 -0.2885  0.4546
 2301TIP3    H128394   1.616   1.374   5.975  0.4490  0.7643  1.2164
 2301TIP3    H228395   1.753   1.435   5.995  1.3775 -0.9397  0.3075
 2302TIP3   OH228396   4.777   5.515  12.607 -0.4082 -0.1201 -0.2460
 2302TIP3    H128397   4.725   5.557  12.538 -1.3714 -1.7035 -0.5167
 2302TIP3    H228398   4.753   5.423  12.603 -0.5280 -0.2624  2.2449
 2303TIP3   OH228399   2.747   4.530   5.257 -0.3853  0.2316 -0.1057
 2303TIP3    H128400   2.740   4.471   5.332  0.3072  0.7531  0.3769
 2303TIP3    H228401   2.709   4.480   5.184  2.6791 -1.9559 -0.3855
 2304TIP3   OH228402   3.833   1.365  12.994  0.5439  0.1247  0.7319
 2304TIP3    H128403   3.841   1.325  13.081  1.7227 -1.9446 -0.2376
 2304TIP3    H228404   3.790   1.298  12.941  1.9281  0.3874 -0.8208
 2305TIP3   OH228405   1.580   5.528   1.813  0.2573  0.5635 -0.3512
 2305TIP3    H128406   1.525   5.601   1.842  0.7513  1.0605 -0.6251
 2305TIP3    H228407   1.552   5.453   1.865 -0.5987  0.8354 -0.4102
 2306TIP3   OH228408   1.174   6.719  11.743 -0.0477 -0.0055  0.0778
 2306TIP3    H128409   1.134   6.806  11.747 -0.5571 -0.1792 -0.8525
 2306TIP3    H228410   1.220   6.718  11.659 -0.6442 -0.8747 -0.2539
 2307TIP3   OH228411   4.167   5.925  13.280  0.5653 -0.2354  0.5418
 2307TIP3    H128412   4.147   6.018  13.291 -2.8199 -0.5031 -1.7484
 2307TIP3    H228413   4.260   5.923  13.256  0.0941  3.0001 -2.4407
 2308TIP3   OH228414   0.648   0.500  13.538 -0.0134  0.2416 -0.2232
 2308TIP3    H128415   0.579   0.449  13.496 -0.8846  0.5279  0.8040
 2308TIP3    H228416   0.647   0.584  13.492  1.3465 -0.5820 -1.8418
 2309TIP3   OH228417   0.414   4.415  13.637 -0.1695 -0.2836 -0.2616
 2309TIP3    H128418   0.452   4.359  13.570  1.1928 -0.1365  0.3683
 2309TIP3    H228419   0.466   4.399  13.715 -0.4553  1.0329  0.2281
 2310TIP3   OH228420   4.334   4.813  13.049 -0.2696  0.1011 -0.3476
 2310TIP3    H128421   4.298   4.753  13.114  0.4145  0.1117  0.0610
 2310TIP3    H228422   4.279   4.891  13.054  1.1355  1.0634  1.9454
 2311TIP3   OH228423   2.774   0.942   2.945  0.6043 -0.3266 -0.2006
 2311TIP3    H128424   2.790   0.848   2.933  1.2788 -0.1486 -0.6870
 2311TIP3    H228425   2.741   0.949   3.035 -0.2326 -1.1214 -0.4294
 2312TIP3   OH228426   0.947   2.673   1.261  0.2762  0.0120 -0.2137
 2312TIP3    H128427   0.885   2.740   1.292  2.8830  1.8667  1.3645
 2312TIP3    H228428   0.930   2.667   1.167 -1.5870  1.1539 -0.0142
 2313TIP3   OH228429   2.244   0.892   5.943  0.0116 -0.8696 -0.6943
 2313TIP3    H128430   2.238   0.949   5.866 -1.7115  1.3299  0.9493
 2313TIP3    H228431   2.161   0.904   5.989  2.0638  0.3626  3.1214
 2314TIP3   OH228432   0.617   5.109   1.458  0.8267  0.8001  0.4418
 2314TIP3    H128433   0.557   5.183   1.447  0.6350  0.6991  0.7949
 2314TIP3    H228434   0.691   5.144   1.508  1.2230  1.0071 -0.2749
 2315TIP3   OH228435   0.281   0.746   1.602  0.8552 -0.2077 -0.0553
 2315TIP3    H128436   0.210   0.778   1.658  0.2399 -0.0952 -0.8960
 2315TIP3    H228437   0.253   0.766   1.513  0.9177 -2.1596 -0.5613
 2316TIP3   OH228438   1.684   1.550   2.231  0.2634  0.5678 -0.3677
 2316TIP3    H128439   1.616   1.616   2.243  0.8813  1.3845 -1.3118
 2316TIP3    H228440   1.735   1.553   2.312 -0.1782  0.6910 -0.0903
 2317TIP3   OH228441   0.866   6.008   3.282  0.0994 -0.1799 -0.1138
 2317TIP3    H128442   0.814   5.972   3.210 -0.5219 -0.2647  0.3694
 2317TIP3    H228443   0.957   5.988   3.259 -0.1954 -1.6106 -0.1069
 2318TIP3   OH228444   1.574   0.600  15.024  0.8938  0.0526  0.2621
 2318TIP3    H128445   1.581   0.562  15.112  0.4786  1.2616  0.8341
 2318TIP3    H228446   1.480   0.612  15.011  0.9300 -0.3980 -0.4847
 2319TIP3   OH228447   4.648   4.579   1.941 -0.1005 -0.7385 -0.1811
 2319TIP3    H128448   4.602   4.532   1.871 -0.1172 -0.7092 -0.1894
 2319TIP3    H228449   4.738   4.587   1.910  0.6878 -3.4258  1.0579
 2320TIP3   OH228450   1.995   1.756   2.337 -0.1278  0.0206  0.5403
 2320TIP3    H128451   1.929   1.718   2.394  0.3293 -0.2414  0.8979
 2320TIP3    H228452   1.946   1.784   2.259 -0.6220 -0.3675  0.7055
 2321TIP3   OH228453   2.991   4.473   3.868  0.0072  0.3483 -0.2428
 2321TIP3    H128454   2.955   4.514   3.789 -0.3419  1.8213  0.6470
 2321TIP3    H228455   2.960   4.527   3.940  0.6856 -0.7117  0.8917
 2322TIP3   OH228456   0.574   0.999   1.922 -0.2936  0.1261  0.2243
 2322TIP3    H128457   0.597   1.073   1.867 -0.0000  1.3107  1.8682
 2322TIP3    H228458   0.578   0.923   1.864 -0.3484  1.3460 -1.4379
 2323TIP3   OH228459   2.261   2.600   6.162  0.3633  0.8222  0.4156
 2323TIP3    H128460   2.248   2.506   6.150  1.4682  0.7109 -0.0410
 2323TIP3    H228461   2.182   2.640   6.127 -0.1221  0.0601  0.6282
 2324TIP3   OH228462   5.929   5.369  12.036  0.3531  0.0067 -0.4228
 2324TIP3    H128463   5.930   5.357  11.941 -0.1262  3.6799 -1.0451
 2324TIP3    H228464   5.845   5.410  12.054  0.9357  0.4757  1.4077
 2325TIP3   OH228465   0.921   4.838  16.750 -0.2748  0.0388 -0.5249
 2325TIP3    H128466   0.971   4.911  16.715 -0.1712  1.3752  2.1407
 2325TIP3    H228467   0.987   4.783  16.794 -0.7372  0.0658  0.2143
 2326TIP3   OH228468   3.627   1.218   4.660  0.2327  0.1925  0.3658
 2326TIP3    H128469   3.647   1.143   4.604  0.9635 -0.9429  2.0706
 2326TIP3    H228470   3.663   1.293   4.613  0.7587 -0.7092 -0.7180
 2327TIP3   OH228471   0.573   3.318   0.095  0.3260  0.3953 -0.6602
 2327TIP3    H128472   0.596   3.361   0.177 -0.6592 -1.1031  0.4690
 2327TIP3    H228473   0.524   3.240   0.122  0.0247 -0.1762 -2.6789
 2328TIP3   OH228474   1.248   3.650   2.198 -0.5639  0.2283 -0.2360
 2328TIP3    H128475   1.159   3.680   2.175 -0.8387 -0.0424  0.4691
 2328TIP3    H228476   1.236   3.593   2.273  0.1542 -0.2713 -0.4866
 2329TIP3   OH228477   5.271   0.383   1.317 -0.5234  0.7737  0.0774
 2329TIP3    H128478   5.250   0.464   1.271 -0.7775  0.0387 -1.1247
 2329TIP3    H228479   5.314   0.413   1.398 -1.8148  2.1332  0.3059
 2330TIP3   OH228480   2.357   6.389  13.492  0.2329 -0.4663  0.0168
 2330TIP3    H128481   2.307   6.353  13.419 -1.5977 -1.1108  1.4926
 2330TIP3    H228482   2.421   6.320  13.513  0.2175 -0.6274 -0.4591
 2331TIP3   OH228483   5.516   2.975  14.474  0.0750  0.0073  0.5582
 2331TIP3    H128484   5.538   3.068  14.466 -0.1562 -0.0909 -1.9927
 2331TIP3    H228485   5.425   2.969  14.447 -0.3808 -0.8069  2.1415
 2332TIP3   OH228486   1.467   3.344  12.264  0.6646  0.3670  0.1414
 2332TIP3    H128487   1.515   3.330  12.182  0.3634 -0.3329  0.0747
 2332TIP3    H228488   1.384   3.383  12.237  0.4887 -0.0347  0.0862
 2333TIP3   OH228489   3.212   6.647   2.117  0.2571  0.3301  0.4461
 2333TIP3    H128490   3.266   6.712   2.162 -1.5583  1.8687  0.5256
 2333TIP3    H228491   3.217   6.569   2.173 -0.7411  1.7094  2.5805
 2334TIP3   OH228492   4.095   1.024   5.490 -0.0209 -0.1815  0.6871
 2334TIP3    H128493   4.093   0.946   5.435 -0.3866 -0.2956  0.8598
 2334TIP3    H228494   4.173   1.014   5.545 -1.2116 -1.4754  2.2234
 2335TIP3   OH228495   0.648   3.561   1.551 -0.0813  0.4029 -0.0627
 2335TIP3    H128496   0.598   3.637   1.520 -0.3690  0.5158  0.6541
 2335TIP3    H228497   0.585   3.489   1.551  0.0742  0.2639 -0.3063
 2336TIP3   OH228498   5.397   0.397  17.043 -0.4013  0.7994  0.1339
 2336TIP3    H128499   5.488   0.371  17.029 -0.1432  1.9184 -0.4046
 2336TIP3    H228500   5.389   0.480  16.996 -1.4331  1.1974  0.9839
 2337TIP3   OH228501   1.539   3.365  13.083 -0.6069 -0.4271  0.4747
 2337TIP3    H128502   1.499   3.427  13.145 -1.8498 -0.3359 -0.3814
 2337TIP3    H228503   1.633   3.384  13.087 -0.8207  0.5490  1.2674
 2338TIP3   OH228504   0.135   2.250  16.639 -0.4445 -0.1279  0.1647
 2338TIP3    H128505   0.085   2.331  16.637 -1.6989 -0.8576 -1.7339
 2338TIP3    H228506   0.079   2.188  16.685 -0.1027 -0.2741  0.3877
 2339TIP3   OH228507   6.673   1.022   5.716 -0.3216  0.2412 -0.2011
 2339TIP3    H128508   6.595   0.973   5.693 -0.0465  0.1134 -0.8835
 2339TIP3    H228509   6.730   0.958   5.758 -1.1195  0.6355  1.5852
 2340TIP3   OH228510   6.774   3.119  14.682 -0.1993  0.1330  0.2444
 2340TIP3    H128511   6.680   3.101  14.682 -0.1298 -0.2306  0.1778
 2340TIP3    H228512   6.810   3.060  14.616 -0.1276  1.3781 -0.8933
 2341TIP3   OH228513   0.641   4.186   0.301  0.2553  0.0400  0.0496
 2341TIP3    H128514   0.697   4.135   0.242 -0.8226 -0.2186 -0.7876
 2341TIP3    H228515   0.696   4.260   0.328  0.5296  0.6235 -1.9581
 2342TIP3   OH228516   5.575   0.815  15.988 -0.5496 -0.2084 -0.1793
 2342TIP3    H128517   5.642   0.776  15.933  0.0534 -0.5299  0.7604
 2342TIP3    H228518   5.546   0.744  16.045 -1.0549  0.1551  0.0237
 2343TIP3   OH228519   1.001   0.818   2.120  0.1454  0.3185  0.0265
 2343TIP3    H128520   0.942   0.791   2.050  0.2324  0.8871 -0.2726
 2343TIP3    H228521   1.080   0.765   2.107 -0.0845 -0.0461  0.0944
 2344TIP3   OH228522   0.108   2.599  14.521 -0.1534  0.3626 -0.3473
 2344TIP3    H128523   0.054   2.524  14.543  0.6232  0.0861  0.6893
 2344TIP3    H228524   0.187   2.588  14.574  0.1582  1.6871 -0.5103
 2345TIP3   OH228525   0.969   4.984  10.539  0.0941  0.0881  0.0439
 2345TIP3    H128526   0.920   4.985  10.621  0.0117 -0.9085  0.0143
 2345TIP3    H228527   0.922   4.923  10.483  1.4313 -1.0112  0.0713
 2346TIP3   OH228528   4.928   1.497   1.924  0.0819  0.5322 -0.6504
 2346TIP3    H128529   4.929   1.559   1.997 -1.7334 -1.5985  1.3405
 2346TIP3    H228530   5.010   1.448   1.932 -0.7421 -0.6847  0.9897
 2347TIP3   OH228531   0.524   2.982   4.333  0.5308 -0.3365  0.0086
 2347TIP3    H128532   0.582   3.021   4.268  0.2361  0.3607  0.1520
 2347TIP3    H228533   0.451   3.044   4.339 -0.0480 -1.0174  0.0966
 2348TIP3   OH228534   6.658   0.100   1.816 -0.5649 -0.3635  0.2844
 2348TIP3    H128535   6.691   0.061   1.897 -2.2409  0.5437  1.4715
 2348TIP3    H228536   6.588   0.041   1.787 -1.6018  0.5383  0.8649
 2349TIP3   OH228537   3.793   2.939   2.251 -0.0645  0.2112 -1.0718
 2349TIP3    H128538   3.779   3.027   2.214  0.4751 -0.2159 -2.3415
 2349TIP3    H228539   3.715   2.922   2.303  0.4905  2.0785  0.5223
 2350TIP3   OH228540   1.058   2.062   5.300  0.6419  0.7446  1.0016
 2350TIP3    H128541   1.070   2.151   5.267  1.6906  0.4598  0.5516
 2350TIP3    H228542   1.098   2.007   5.232 -1.7847 -0.2315  0.2606
 2351TIP3   OH228543   5.485   0.062  11.121  0.3137 -0.1699  0.0804
 2351TIP3    H128544   5.497   0.142  11.069  0.6001 -0.4367 -0.2667
 2351TIP3    H228545   5.573   0.026  11.131 -0.0669 -2.0512 -2.3576
 2352TIP3   OH228546   4.519   3.664  11.761  0.5918  0.3561 -0.1598
 2352TIP3    H128547   4.558   3.609  11.693 -0.4036 -0.0485 -0.4168
 2352TIP3    H228548   4.494   3.744  11.716 -0.6956 -0.1852 -0.4275
 2353TIP3   OH228549   6.107   4.136   2.644 -0.3388 -0.0364 -0.2291
 2353TIP3    H128550   6.085   4.173   2.558 -1.3217 -1.5615 -0.6895
 2353TIP3    H228551   6.194   4.099   2.633  0.7125  2.1301  0.2733
 2354TIP3   OH228552   5.589   5.535   3.734  0.4482 -0.0341 -0.1049
 2354TIP3    H128553   5.573   5.568   3.646 -0.7471  1.7069  0.6983
 2354TIP3    H228554   5.682   5.512   3.735  0.1210 -1.7057 -2.2744
 2355TIP3   OH228555   6.117   3.124   3.024  0.5362  0.0723  0.2300
 2355TIP3    H128556   6.071   3.042   3.041  0.4018 -0.2583 -1.5271
 2355TIP3    H228557   6.049   3.184   2.995  0.3523  1.3922  3.1164
 2356TIP3   OH228558   6.356   2.278  12.641 -0.0857 -0.1724  0.1240
 2356TIP3    H128559   6.303   2.237  12.709 -0.2188 -0.0533  0.0930
 2356TIP3    H228560   6.380   2.207  12.582  1.5754 -0.6270  1.2704
 2357TIP3   OH228561   2.590   2.535  13.371 -0.2333  0.1455 -0.7255
 2357TIP3    H128562   2.535   2.494  13.305  1.4229 -3.2491 -0.2682
 2357TIP3    H228563   2.679   2.522  13.339  0.4975  0.5152  1.0405
 2358TIP3   OH228564   2.095   3.031  14.955  0.0547  0.0796  0.2064
 2358TIP3    H128565   2.163   2.969  14.983  1.2884  1.5408  0.5454
 2358TIP3    H228566   2.098   3.028  14.859  2.0813  1.6214  0.1609
 2359TIP3   OH228567   2.071   4.287   5.618 -0.8308 -0.2078  0.1214
 2359TIP3    H128568   2.019   4.246   5.549 -0.4112 -1.2264  0.4018
 2359TIP3    H228569   2.011   4.350   5.658 -1.4443 -0.4492 -0.3942
 2360TIP3   OH228570   5.135   2.031  11.953  0.4196  0.4277  0.5983
 2360TIP3    H128571   5.080   1.968  12.000  1.1393  0.6127  1.7330
 2360TIP3    H228572   5.182   2.077  12.022 -0.2813  2.4222 -0.1779
 2361TIP3   OH228573   3.380   4.528  13.911  0.4335 -0.4772 -0.4640
 2361TIP3    H128574   3.402   4.435  13.908 -1.0266 -0.8426 -0.6328
 2361TIP3    H228575   3.314   4.539  13.843  1.2349  0.8806 -1.0586
 2362TIP3   OH228576   5.741   0.034  14.500  0.3335  0.4391  0.2510
 2362TIP3    H128577   5.837   0.037  14.498  0.3625 -0.4614 -1.1457
 2362TIP3    H228578   5.720  -0.058  14.517 -0.2944  0.6806  0.8287
 2363TIP3   OH228579   2.420   0.416  13.887  0.5544  0.0208 -0.2338
 2363TIP3    H128580   2.370   0.417  13.970  4.1034  4.3507  2.2678
 2363TIP3    H228581   2.466   0.332  13.889 -2.2001 -1.6477  0.0622
 2364TIP3   OH228582   2.981   2.096   1.779 -0.0180  0.1617  0.6870
 2364TIP3    H128583   2.959   2.054   1.696  4.2978  1.8862 -1.6491
 2364TIP3    H228584   2.950   2.186   1.769  0.5768  0.3935  0.8723
 2365TIP3   OH228585   5.063   5.251  16.022  0.1490 -0.0503  0.0105
 2365TIP3    H128586   5.057   5.263  15.927  1.4457 -2.3314 -0.4345
 2365TIP3    H228587   5.018   5.168  16.039  1.5206 -0.6260  1.0823
 2366TIP3   OH228588   2.345   5.778  11.490 -0.1312  0.1427 -0.2384
 2366TIP3    H128589   2.391   5.853  11.529  0.1776 -1.0817  1.9008
 2366TIP3    H228590   2.394   5.702  11.519 -1.2014 -0.9870 -1.2756
 2367TIP3   OH228591   2.612   5.542   2.282 -0.5112 -0.1348 -0.1026
 2367TIP3    H128592   2.678   5.472   2.279 -0.4772 -0.1232  0.3179
 2367TIP3    H228593   2.661   5.622   2.264 -0.5116 -0.1964 -0.3714
 2368TIP3   OH228594   2.736   0.349   5.133  0.0371 -0.3399 -0.2002
 2368TIP3    H128595   2.679   0.279   5.163 -1.8461  0.6435 -1.3241
 2368TIP3    H228596   2.743   0.336   5.038  0.0700  0.6946 -0.3561
 2369TIP3   OH228597   1.889   5.685   4.034 -0.3971  0.0089  0.3550
 2369TIP3    H128598   1.907   5.593   4.052  0.4032  0.4727  2.1523
 2369TIP3    H228599   1.913   5.697   3.942  1.4091 -1.1169  0.6401
 2370TIP3   OH228600   6.581   6.075   1.405  0.1007  0.4099  0.3665
 2370TIP3    H128601   6.564   5.986   1.373  1.3464  0.2231  0.1873
 2370TIP3    H228602   6.662   6.068   1.455 -0.7023  1.1097  1.8657
 2371TIP3   OH228603   6.606   5.820   3.520  0.1996  0.1407  0.0614
 2371TIP3    H128604   6.615   5.740   3.572 -1.3245  0.9871  1.7291
 2371TIP3    H228605   6.536   5.801   3.458  0.8234 -0.2672 -0.5421
 2372TIP3   OH228606   2.919   6.790   3.335 -0.4017 -0.2435  0.3496
 2372TIP3    H128607   2.927   6.806   3.241  0.6517  1.4149  0.6826
 2372TIP3    H228608   2.887   6.700   3.342 -0.0692 -0.5414 -1.5793
 2373TIP3   OH228609   3.011   2.590  13.523 -0.2609  0.4230 -0.3757
 2373TIP3    H128610   3.037   2.599  13.431  0.8694  0.3364 -0.0821
 2373TIP3    H228611   2.985   2.678  13.549 -1.0409  0.3558 -0.9037
 2374TIP3   OH228612   0.752   1.746   0.676 -0.3994 -0.2538  0.3433
 2374TIP3    H128613   0.821   1.710   0.621  0.5236  2.1761 -0.1746
 2374TIP3    H228614   0.700   1.801   0.618 -0.7509  0.6133  1.4386
 2375TIP3   OH228615   1.244   6.073   4.147 -0.0626  0.2628  0.7144
 2375TIP3    H128616   1.287   5.993   4.118 -0.0259 -0.3081  2.2760
 2375TIP3    H228617   1.288   6.096   4.228 -1.1156  0.9938  1.0994
 2376TIP3   OH228618   3.166   2.324  15.024  0.2621 -0.2079 -0.2075
 2376TIP3    H128619   3.213   2.262  14.968  2.3905  1.1481 -0.0426
 2376TIP3    H228620   3.138   2.272  15.099  1.4670 -1.1183 -0.3452
 2377TIP3   OH228621   5.563   2.172   0.158  0.3678 -0.0867 -0.2577
 2377TIP3    H128622   5.549   2.112   0.231 -2.3760  0.6285 -0.0762
 2377TIP3    H228623   5.650   2.207   0.172  0.0626 -0.2289  2.5096
 2378TIP3   OH228624   2.133   2.206  16.836 -0.0370  0.3897  0.2923
 2378TIP3    H128625   2.080   2.276  16.873  1.3533  0.6578  1.9105
 2378TIP3    H228626   2.215   2.208  16.886  1.9997  0.7010 -2.7736
 2379TIP3   OH228627   3.494   4.191   0.471 -0.9553  0.0903 -0.5485
 2379TIP3    H128628   3.446   4.264   0.433  0.1628  1.0976 -0.0980
 2379TIP3    H228629   3.545   4.155   0.398 -0.1981  0.8691 -0.4185
 2380TIP3   OH228630   2.467   5.602  16.399 -0.1070  0.1287 -0.4909
 2380TIP3    H128631   2.543   5.600  16.340  0.8733  0.9360  0.6786
 2380TIP3    H228632   2.435   5.692  16.393  0.0252  0.2300  0.2166
 2381TIP3   OH228633   5.005   0.539  15.171  0.1963 -0.7117  0.2862
 2381TIP3    H128634   5.071   0.500  15.228  0.2173  0.3742  1.0212
 2381TIP3    H228635   4.956   0.464  15.138  0.5058 -1.3979  1.3229
 2382TIP3   OH228636   1.434   0.232   4.903  0.1619  0.0722  0.2014
 2382TIP3    H128637   1.496   0.266   4.968 -0.8376  1.0752  0.6567
 2382TIP3    H228638   1.427   0.301   4.837  0.3217 -0.4795 -0.4060
 2383TIP3   OH228639   5.762   0.009  17.215  0.3187  0.6390  0.2591
 2383TIP3    H128640   5.792   0.100  17.208  0.5097  0.7052  1.6575
 2383TIP3    H228641   5.724   0.003  17.303 -3.6669  0.4974 -1.2776
 2384TIP3   OH228642   3.409   0.923  16.914 -0.3367  0.1946  0.1600
 2384TIP3    H128643   3.499   0.939  16.888  0.1459 -1.2132  0.8788
 2384TIP3    H228644   3.387   0.838  16.877 -0.7121 -0.3580  1.5562
 2385TIP3   OH228645   3.843   0.282   0.668  0.5437  0.4388  0.2533
 2385TIP3    H128646   3.872   0.363   0.627 -0.5203  0.4589 -0.4810
 2385TIP3    H228647   3.859   0.295   0.762  0.1600  1.5930  0.1652
 2386TIP3   OH228648   1.998   2.716   6.037 -0.1459  0.3541  0.1356
 2386TIP3    H128649   1.943   2.697   6.113  0.2064  0.3402  0.3916
 2386TIP3    H228650   1.993   2.637   5.983  0.0772  0.1316  0.4382
 2387TIP3   OH228651   1.822   0.513  11.990  0.0318  0.1730  0.2113
 2387TIP3    H128652   1.769   0.436  11.965  1.8647 -1.1839  0.2916
 2387TIP3    H228653   1.861   0.488  12.074  1.6752  0.6634 -0.3785
 2388TIP3   OH228654   2.046   0.145  10.335 -0.3970  0.0460 -0.2897
 2388TIP3    H128655   1.972   0.113  10.386 -1.6229  0.4033 -1.7570
 2388TIP3    H228656   2.086   0.213  10.390 -0.3848 -0.9835  1.0272
 2389TIP3   OH228657   6.395   2.521  13.039  0.2752 -0.4824 -0.5502
 2389TIP3    H128658   6.373   2.614  13.049 -0.6200 -0.5618 -1.5482
 2389TIP3    H228659   6.458   2.520  12.967  1.6222 -0.5078  0.5915
 2390TIP3   OH228660   5.155   4.766   6.106 -0.3951  0.0330  0.2217
 2390TIP3    H128661   5.088   4.805   6.162 -0.4795  2.6974 -1.5582
 2390TIP3    H228662   5.237   4.801   6.140 -0.3650  0.8057 -0.6060
 2391TIP3   OH228663   1.425   5.253   6.251  0.4749  0.1717  0.4384
 2391TIP3    H128664   1.332   5.232   6.258  0.3858 -0.3417 -1.5140
 2391TIP3    H228665   1.429   5.349   6.251 -0.2869  0.2365 -1.2982
 2392TIP3   OH228666   4.146   4.307   2.797  0.0617 -0.2258  0.2242
 2392TIP3    H128667   4.155   4.217   2.765 -2.5416 -0.0642 -1.1866
 2392TIP3    H228668   4.233   4.345   2.786  0.9035 -2.1787 -0.3450
 2393TIP3   OH228669   1.949   0.630   0.099 -0.2070  0.2723  0.2376
 2393TIP3    H128670   1.940   0.631   0.003 -1.3538 -1.5851  0.2658
 2393TIP3    H228671   1.870   0.674   0.131 -1.3774 -1.7498  0.3076
 2394TIP3   OH228672   2.869   1.713  12.861 -0.5335 -0.4224 -0.3242
 2394TIP3    H128673   2.907   1.686  12.944  1.1930  3.2353  0.2375
 2394TIP3    H228674   2.921   1.668  12.795  2.8200  1.8919  0.5187
 2395TIP3   OH228675   6.040   1.109   1.737 -0.2871 -0.1780  0.1015
 2395TIP3    H128676   5.982   1.058   1.680  0.3773 -1.2621  0.3641
 2395TIP3    H228677   6.042   1.059   1.819  0.9611 -0.1219  0.1172
 2396TIP3   OH228678   1.728   2.878  10.950 -0.0807  0.1714 -0.3474
 2396TIP3    H128679   1.767   2.847  11.032 -1.8493  1.1096  0.9242
 2396TIP3    H228680   1.800   2.876  10.887  1.3719 -0.4875  1.2390
 2397TIP3   OH228681   3.200   5.359   4.735 -0.0635 -0.8873 -0.1085
 2397TIP3    H128682   3.137   5.409   4.785 -0.5564  0.6391 -2.1503
 2397TIP3    H228683   3.284   5.401   4.753  0.1439 -1.7824  1.1696
 2398TIP3   OH228684   1.469   3.446   0.065  0.3489 -0.0046  0.6906
 2398TIP3    H128685   1.561   3.423   0.052  0.2627  0.3557 -0.6528
 2398TIP3    H228686   1.423   3.362   0.059  0.3674  0.0786 -0.9837
 2399TIP3   OH228687   4.177   1.965  16.115  0.1971  0.0886  0.3456
 2399TIP3    H128688   4.237   1.890  16.114 -1.0208 -0.9108 -0.1973
 2399TIP3    H228689   4.233   2.040  16.135  1.6862 -0.7500 -0.5330
 2400TIP3   OH228690   1.237   2.639  15.950  0.3975  0.4003 -0.8262
 2400TIP3    H128691   1.221   2.566  16.010  0.5255 -0.0617 -1.3490
 2400TIP3    H228692   1.226   2.717  16.005  0.3157 -0.0065 -0.2475
 2401TIP3   OH228693   3.655   5.344  16.934 -0.0426 -0.2803  0.2404
 2401TIP3    H128694   3.562   5.339  16.910 -0.6849 -2.2796  2.6876
 2401TIP3    H228695   3.655   5.367  17.027  2.0973  2.4630 -0.3074
 2402TIP3   OH228696   2.912   3.960   3.167  0.2184  0.1041  0.3063
 2402TIP3    H128697   2.888   3.875   3.204 -0.4188  0.8162  1.6235
 2402TIP3    H228698   2.941   4.012   3.243  1.3694  0.8117 -0.5836
 2403TIP3   OH228699   4.902   4.829  14.933 -0.1016 -0.0990  0.1078
 2403TIP3    H128700   4.961   4.779  14.876 -0.2446  0.5187 -0.5905
 2403TIP3    H228701   4.901   4.779  15.015  3.5071  1.2426  1.1564
 2404TIP3   OH228702   6.091   1.155  11.760 -0.1110  0.1136 -0.3582
 2404TIP3    H128703   6.134   1.144  11.675  1.0475 -0.6195  0.2938
 2404TIP3    H228704   6.034   1.078  11.768  0.3012 -0.1758 -0.1803
 2405TIP3   OH228705   3.198   4.300   2.450 -0.4891  0.2185  1.0183
 2405TIP3    H128706   3.184   4.230   2.514  0.4424 -0.4217  0.5412
 2405TIP3    H228707   3.265   4.266   2.391 -0.2990  1.3636  0.5419
 2406TIP3   OH228708   0.618   3.910  17.107 -0.2400  0.0842  0.2172
 2406TIP3    H128709   0.663   3.892  17.024  0.5569  2.2470  0.1141
 2406TIP3    H228710   0.672   3.866  17.173  0.5640  0.4521 -0.1721
 2407TIP3   OH228711   1.093   4.139   3.555 -0.1688 -0.5060  0.5174
 2407TIP3    H128712   1.165   4.173   3.609  1.7304 -2.7493 -0.4231
 2407TIP3    H228713   1.035   4.096   3.617  0.4781 -0.5901  1.0755
 2408TIP3   OH228714   4.994   4.588  14.228 -0.0149 -0.0600 -0.2439
 2408TIP3    H128715   4.917   4.550  14.271 -0.0234  2.1820  1.9448
 2408TIP3    H228716   4.970   4.680  14.213  1.0919 -0.0789 -2.5078
 2409TIP3   OH228717   5.261   5.021   2.916  0.3508 -0.6744  0.2703
 2409TIP3    H128718   5.208   4.942   2.927  0.3309 -0.9262 -1.4403
 2409TIP3    H228719   5.199   5.088   2.887  0.9298 -1.0046 -1.8725
 2410TIP3   OH228720   6.565   5.448  16.732  0.0886 -0.4408 -0.5281
 2410TIP3    H128721   6.592   5.395  16.657  0.3309 -1.2797  0.1415
 2410TIP3    H228722   6.544   5.385  16.801  0.6870  0.3201  0.3857
 2411TIP3   OH228723   3.766   0.295  14.174 -1.0146  0.5048 -0.0893
 2411TIP3    H128724   3.680   0.257  14.159 -0.3200 -0.1725 -2.7978
 2411TIP3    H228725   3.749   0.388  14.191 -2.3052  0.2833 -0.1431
 2412TIP3   OH228726   3.325   6.410  11.115  0.0761 -0.0197 -0.1143
 2412TIP3    H128727   3.415   6.442  11.115  0.2950 -0.5626  1.5598
 2412TIP3    H228728   3.279   6.467  11.053  1.2883  1.0297 -0.0788
 2413TIP3   OH228729   0.716   3.095  15.051 -0.1562  0.5924 -0.1520
 2413TIP3    H128730   0.727   3.112  15.144  1.3519  0.6481 -0.3153
 2413TIP3    H228731   0.652   3.161  15.021 -1.5436 -0.1649  1.0345
 2414TIP3   OH228732   3.642   6.507  12.626 -0.4392 -0.1599  0.5197
 2414TIP3    H128733   3.716   6.562  12.650 -0.9084  1.2585 -1.1217
 2414TIP3    H228734   3.681   6.430  12.585  0.2017  1.8866 -3.0900
 2415TIP3   OH228735   5.734   6.079   4.425 -0.0129  0.2631 -0.2950
 2415TIP3    H128736   5.701   5.990   4.432 -0.1264  0.4190  1.6158
 2415TIP3    H228737   5.825   6.074   4.456  0.2472  0.6857 -0.9469
 2416TIP3   OH228738   2.472   4.686   3.985 -0.0868  0.4474 -0.1884
 2416TIP3    H128739   2.475   4.780   4.001  0.1152  0.7996 -2.0693
 2416TIP3    H228740   2.564   4.662   3.969 -0.3314  0.2787 -1.4082
 2417TIP3   OH228741   2.946   1.227   1.021  0.1858 -0.2833 -0.1615
 2417TIP3    H128742   2.918   1.141   0.991 -0.3202 -0.3516  0.4626
 2417TIP3    H228743   3.015   1.210   1.085 -0.5320 -0.2873  0.6328
 2418TIP3   OH228744   1.147   0.588   3.030 -0.2587  0.4259  0.0052
 2418TIP3    H128745   1.145   0.564   3.122  0.7401  0.6403  0.0926
 2418TIP3    H228746   1.155   0.684   3.030  1.2435  0.3258 -0.2665
 2419TIP3   OH228747   3.822   3.469  16.117  0.7745 -0.2763 -0.0569
 2419TIP3    H128748   3.839   3.380  16.085  1.6345 -0.3986  0.6928
 2419TIP3    H228749   3.729   3.469  16.139  0.9349 -1.2611  0.6997
 2420TIP3   OH228750   6.761   3.021   0.585 -0.4544  0.0106  0.2190
 2420TIP3    H128751   6.690   2.964   0.555  0.3457  0.6216 -3.3740
 2420TIP3    H228752   6.836   2.994   0.532  2.2253 -0.7635  3.9824
 2421TIP3   OH228753   2.018   4.292   1.988 -0.0749  0.6437 -0.8218
 2421TIP3    H128754   2.071   4.371   1.998 -0.0202  0.5307 -0.1635
 2421TIP3    H228755   2.052   4.232   2.054 -0.4331  0.2395 -0.9968
 2422TIP3   OH228756   4.564   5.093   4.343  0.7572  0.0602 -0.5973
 2422TIP3    H128757   4.649   5.093   4.387  1.8531 -1.8360 -2.4972
 2422TIP3    H228758   4.566   5.169   4.286  1.4988 -0.3596 -1.1426
 2423TIP3   OH228759   6.089   2.578  14.299  0.0867 -0.3068  0.4046
 2423TIP3    H128760   6.104   2.672  14.306  0.1224  0.3192 -4.5615
 2423TIP3    H228761   5.994   2.569  14.290  0.2590 -0.2745 -2.0973
 2424TIP3   OH228762   1.448   2.284  16.193  0.3133  0.1754 -0.4937
 2424TIP3    H128763   1.398   2.218  16.145 -1.4010  0.5883  0.6311
 2424TIP3    H228764   1.483   2.342  16.125  0.9083 -1.2185 -1.4196
 2425TIP3   OH228765   2.987   2.873   3.077  0.0310 -0.4316 -0.1085
 2425TIP3    H128766   2.942   2.813   3.137  0.0564 -0.1497  0.1935
 2425TIP3    H228767   2.998   2.822   2.996  1.9820 -1.6093  0.8139
 2426TIP3   OH228768   4.425   1.247   3.482  0.2176  0.2419 -0.3788
 2426TIP3    H128769   4.423   1.151   3.484  2.5474  0.1164 -1.3881
 2426TIP3    H228770   4.369   1.271   3.407  0.1493 -0.3606 -0.5237
 2427TIP3   OH228771   6.802   1.156  15.372  0.3267 -0.0429 -0.1475
 2427TIP3    H128772   6.852   1.086  15.330  0.6276  0.7723 -1.1954
 2427TIP3    H228773   6.866   1.225  15.388 -0.2859  0.6773 -0.7195
 2428TIP3   OH228774   0.469   6.537   6.062  0.3990  0.4804 -0.0104
 2428TIP3    H128775   0.560   6.558   6.043  0.0121  1.5893 -0.7212
 2428TIP3    H228776   0.444   6.598   6.131  0.5047 -0.5741  0.9824
 2429TIP3   OH228777   1.692   4.572  14.336  0.4047  0.5468 -0.1498
 2429TIP3    H128778   1.605   4.581  14.297 -0.5024 -1.1918  1.3475
 2429TIP3    H228779   1.714   4.659  14.367 -1.1022  0.8881  0.0162
 2430TIP3   OH228780   2.918   6.204   5.781 -0.7221  0.1712 -0.4331
 2430TIP3    H128781   2.917   6.128   5.722  0.0329 -0.2753  0.1227
 2430TIP3    H228782   2.991   6.188   5.840 -1.4898  0.5966  0.6623
 2431TIP3   OH228783   2.249   1.460   4.495  0.2944  0.2812 -0.1602
 2431TIP3    H128784   2.310   1.448   4.568  1.5481  1.7371 -0.9044
 2431TIP3    H228785   2.305   1.485   4.421 -1.0458 -0.1476 -1.3531
 2432TIP3   OH228786   5.030   6.347   4.688 -0.1251 -0.5813  0.2684
 2432TIP3    H128787   5.106   6.343   4.629 -0.9121 -1.3237 -0.7395
 2432TIP3    H228788   5.068   6.347   4.776  1.0301 -1.8475 -0.1844
 2433TIP3   OH228789   2.727   4.803  13.538  0.2394 -0.5151 -0.6443
 2433TIP3    H128790   2.657   4.737  13.540 -1.0352  0.7577 -1.5760
 2433TIP3    H228791   2.685   4.881  13.502  2.5614 -0.2306 -3.0342
 2434TIP3   OH228792   3.064   3.440   6.531 -0.0695 -0.5697  0.2289
 2434TIP3    H128793   3.112   3.387   6.467 -1.6357  1.3788 -2.7914
 2434TIP3    H228794   3.131   3.494   6.572  1.2716 -3.3038  1.9229
 2435TIP3   OH228795   0.864   5.055  15.535 -0.0252  0.0685  0.4501
 2435TIP3    H128796   0.775   5.025  15.555 -0.4441  1.3761  0.6306
 2435TIP3    H228797   0.855   5.101  15.451  0.1905  1.4105  1.1372
 2436TIP3   OH228798   3.590   4.864  14.274 -0.5222  0.0727 -0.5615
 2436TIP3    H128799   3.572   4.852  14.181 -1.7707 -0.0620 -0.3238
 2436TIP3    H228800   3.536   4.798  14.317  1.9357 -1.5618  0.1631
 2437TIP3   OH228801   1.408   6.576   4.986  0.1816 -0.6374  0.1519
 2437TIP3    H128802   1.474   6.544   4.923  0.4428  1.4347 -0.7044
 2437TIP3    H228803   1.377   6.658   4.948 -0.1819  0.3317  2.3947
 2438TIP3   OH228804   3.968   1.690   1.849 -0.3130  0.0003  0.0533
 2438TIP3    H128805   3.907   1.627   1.888 -0.0768 -0.5162 -0.3905
 2438TIP3    H228806   4.043   1.637   1.823 -0.0522  0.4917 -0.2069
 2439TIP3   OH228807   1.696   2.668  15.846 -0.1202 -0.5250  0.2531
 2439TIP3    H128808   1.745   2.621  15.913 -1.0450 -0.2322  1.1669
 2439TIP3    H228809   1.608   2.630  15.849 -0.7750  0.9584  0.7374
 2440TIP3   OH228810   1.123   2.793  12.462  0.1775 -0.4242  0.1138
 2440TIP3    H128811   1.148   2.855  12.531  1.7620 -2.8993  1.9340
 2440TIP3    H228812   1.206   2.755  12.434 -0.7616 -1.9552 -0.6988
 2441TIP3   OH228813   5.818   4.192   4.782  0.0141  0.2831  0.7996
 2441TIP3    H128814   5.790   4.122   4.723  0.8210  0.8860 -0.3345
 2441TIP3    H228815   5.913   4.180   4.789  0.1778  1.3453  0.4711
 2442TIP3   OH228816   3.476   3.603   5.339  0.3480  1.1687  0.0148
 2442TIP3    H128817   3.388   3.619   5.374  0.5704  1.1732  0.5894
 2442TIP3    H228818   3.479   3.508   5.325 -0.1759  1.3191 -1.2027
 2443TIP3   OH228819   0.744   2.974  11.175 -0.4844 -0.4942 -0.1751
 2443TIP3    H128820   0.734   2.995  11.268 -0.9140  1.8843 -0.6973
 2443TIP3    H228821   0.662   2.931  11.151 -0.4646 -0.9139  0.4723
 2444TIP3   OH228822   0.030   3.292   1.131 -0.4582 -0.4232  0.0731
 2444TIP3    H128823  -0.034   3.259   1.194 -3.0745  3.5151 -0.2136
 2444TIP3    H228824  -0.013   3.285   1.046  0.5735 -0.0604 -0.4989
 2445TIP3   OH228825   4.958   1.623   4.198  0.2592 -0.5291  0.1673
 2445TIP3    H128826   5.021   1.634   4.127  0.8803 -1.1669  0.6001
 2445TIP3    H228827   5.012   1.626   4.277 -0.3984 -0.0349  0.6004
 2446TIP3   OH228828   0.577   5.343  11.006  0.0364  0.2787  0.4275
 2446TIP3    H128829   0.594   5.372  11.096  1.1324 -0.1143  0.3579
 2446TIP3    H228830   0.515   5.408  10.972  1.2650  1.6859  0.7676
 2447TIP3   OH228831   2.472   5.975   3.179 -0.1756  0.0709 -0.0944
 2447TIP3    H128832   2.557   6.007   3.209 -0.2065  1.3044 -1.2280
 2447TIP3    H228833   2.490   5.889   3.140  0.2980 -0.2976  0.9094
 2448TIP3   OH228834   3.614   3.695  17.181 -0.0284  0.0980 -0.0916
 2448TIP3    H128835   3.676   3.745  17.234  0.4953 -0.0541 -0.5676
 2448TIP3    H228836   3.662   3.672  17.102  0.1133 -2.1148  0.5819
 2449TIP3   OH228837   1.663   6.707   1.650  0.0240 -0.3039  0.1386
 2449TIP3    H128838   1.755   6.723   1.627  0.1367  0.0704  0.8452
 2449TIP3    H228839   1.659   6.717   1.745 -0.9514  0.7128  0.0095
 2450TIP3   OH228840   6.377   2.089   1.280 -0.1812 -0.1441 -0.1066
 2450TIP3    H128841   6.400   2.153   1.213 -0.2011  0.3299  0.3385
 2450TIP3    H228842   6.406   2.128   1.362  0.0065 -0.7999  0.1475
 2451TIP3   OH228843   1.079   5.753   3.959  0.4391 -0.0847 -0.8022
 2451TIP3    H128844   1.110   5.774   4.047 -0.5669 -2.8616  0.3294
 2451TIP3    H228845   1.152   5.707   3.917  0.5150  0.2180 -1.0064
 2452TIP3   OH228846   3.395   3.198   2.073  0.1157  0.4091 -0.1297
 2452TIP3    H128847   3.404   3.293   2.065 -0.2773  0.3921 -0.8686
 2452TIP3    H228848   3.323   3.176   2.014 -0.0520 -0.3034  0.3311
 2453TIP3   OH228849   2.179   3.842   3.357  0.3882 -0.1654 -0.7611
 2453TIP3    H128850   2.232   3.765   3.338  0.2385 -0.2294 -0.9181
 2453TIP3    H228851   2.112   3.843   3.289  0.4752  0.1830 -0.8451
 2454TIP3   OH228852   3.090   6.236  11.079  0.0359  0.1330 -0.2389
 2454TIP3    H128853   3.025   6.188  11.027 -0.7895 -1.0005  1.7173
 2454TIP3    H228854   3.061   6.327  11.076 -2.7786 -0.5574  1.9851
 2455TIP3   OH228855   2.941   3.604   0.405  0.0185 -0.3886  0.0051
 2455TIP3    H128856   2.876   3.564   0.348  0.8040 -0.4769 -0.8428
 2455TIP3    H228857   3.017   3.621   0.349  0.8327 -0.5222  1.0168
 2456TIP3   OH228858   1.593   5.692  14.674  0.6704  0.0920  0.4510
 2456TIP3    H128859   1.623   5.617  14.726  0.0582 -2.0743 -2.0579
 2456TIP3    H228860   1.502   5.670  14.651 -0.1761  2.5640  1.1388
 2457TIP3   OH228861   3.838   1.962  16.848  0.0690  0.4432 -0.3392
 2457TIP3    H128862   3.757   1.956  16.797 -0.4227  0.9168  0.3655
 2457TIP3    H228863   3.839   1.883  16.901 -0.8780  1.2733  0.9804
 2458TIP3   OH228864   6.105   5.269  16.955 -0.0570 -0.6734  0.3756
 2458TIP3    H128865   6.027   5.231  16.914  0.4876  0.2065 -1.6161
 2458TIP3    H228866   6.163   5.194  16.969 -0.7840 -1.1746  0.7593
 2459TIP3   OH228867   4.654   1.701  13.486  0.3972  0.0437  0.2781
 2459TIP3    H128868   4.740   1.661  13.498  0.4394  0.5688  1.8611
 2459TIP3    H228869   4.596   1.653  13.546 -0.1155  0.6091  0.2454
 2460TIP3   OH228870   2.034   4.747   3.712  0.1611 -0.3034 -0.3040
 2460TIP3    H128871   1.985   4.693   3.774  2.1766 -0.2081  1.5031
 2460TIP3    H228872   2.072   4.685   3.650  0.7078 -0.7745  0.4822
 2461TIP3   OH228873   5.757   4.284   6.195  0.5190  0.4782  0.1579
 2461TIP3    H128874   5.815   4.318   6.128  0.3403  0.6055  0.0679
 2461TIP3    H228875   5.787   4.326   6.276  1.2196 -0.2515  0.2907
 2462TIP3   OH228876   3.595   3.110  12.706 -0.3848 -0.7611  0.0871
 2462TIP3    H128877   3.580   3.181  12.769  0.5178 -1.0539  0.6558
 2462TIP3    H228878   3.553   3.140  12.626 -0.4467  0.1935  0.4618
 2463TIP3   OH228879   0.686   2.051   5.156 -0.4801 -0.0511  0.0374
 2463TIP3    H128880   0.755   2.076   5.095 -0.7505 -0.4099 -0.4199
 2463TIP3    H228881   0.732   2.031   5.237  0.0375 -1.0678 -0.4928
 2464TIP3   OH228882   0.619   1.446  10.935  0.0455  0.2109  0.5619
 2464TIP3    H128883   0.638   1.357  10.904  1.2840  1.0290 -1.1501
 2464TIP3    H228884   0.579   1.490  10.860  0.3378  1.3798  1.0651
 2465TIP3   OH228885   6.612   6.540  12.144  0.4476 -0.4678 -0.0598
 2465TIP3    H128886   6.703   6.528  12.171  0.6434  0.4579 -0.2675
 2465TIP3    H228887   6.585   6.622  12.185 -0.5173 -1.0680  0.5374
 2466TIP3   OH228888   5.473   5.618  13.905 -0.1939 -0.4571 -0.7189
 2466TIP3    H128889   5.479   5.709  13.935 -2.4489 -0.5159  0.0772
 2466TIP3    H228890   5.389   5.587  13.937 -1.0615 -1.7896 -3.8553
 2467TIP3   OH228891   2.417   2.957   6.006 -0.7304  0.1975  0.5239
 2467TIP3    H128892   2.403   2.977   5.913 -2.3281 -1.3288  0.3812
 2467TIP3    H228893   2.395   3.039   6.051 -0.3036  0.8495 -0.4148
 2468TIP3   OH228894   5.180   2.760  10.864  0.0928  0.0605 -0.0060
 2468TIP3    H128895   5.144   2.766  10.953  0.2846 -0.5779  0.1168
 2468TIP3    H228896   5.273   2.782  10.875  0.0759  0.1685 -0.0781
 2469TIP3   OH228897   4.298   5.966   2.507  0.6104  0.1010  0.1183
 2469TIP3    H128898   4.236   5.983   2.436  0.3362 -1.9153 -0.1761
 2469TIP3    H228899   4.382   5.997   2.473  0.6353 -1.5133 -1.4616
 2470TIP3   OH228900   3.780   1.792   5.410  0.3588  0.4770  0.3341
 2470TIP3    H128901   3.849   1.752   5.463  1.8375 -0.1109 -1.8798
 2470TIP3    H228902   3.811   1.882   5.394 -0.5854  0.9914  1.2729
 2471TIP3   OH228903   2.732   4.149  14.565 -0.1498  0.4165 -0.4199
 2471TIP3    H128904   2.659   4.185  14.616  0.6146  2.9941 -0.9833
 2471TIP3    H228905   2.696   4.137  14.477 -0.5790 -0.9007 -0.0864
 2472TIP3   OH228906   3.329   6.360   4.911  0.1991  0.3127  0.5710
 2472TIP3    H128907   3.422   6.367   4.932  0.5301 -1.0402 -0.3423
 2472TIP3    H228908   3.306   6.271   4.937 -1.0880  0.9309  1.6532
 2473TIP3   OH228909   5.367   4.822   1.164  0.1112 -0.3485 -0.3073
 2473TIP3    H128910   5.341   4.905   1.123  3.0962  0.7661 -0.1936
 2473TIP3    H228911   5.399   4.846   1.251 -1.2973 -2.0023  0.7252
 2474TIP3   OH228912   2.707   5.219  14.020  0.2822  0.2451 -0.6720
 2474TIP3    H128913   2.664   5.301  14.045 -0.0102  0.3002 -1.3442
 2474TIP3    H228914   2.636   5.166  13.982  0.2954 -0.6257  0.4417
 2475TIP3   OH228915   4.140   3.150  15.461 -0.3809 -0.6405  0.2863
 2475TIP3    H128916   4.157   3.145  15.555 -0.7757 -1.6108  0.3246
 2475TIP3    H228917   4.062   3.095  15.449 -0.8486  0.1790 -0.4837
 2476TIP3   OH228918   3.476   2.886  11.106 -0.6929  0.2343 -0.5456
 2476TIP3    H128919   3.545   2.904  11.042 -2.0310 -0.5569 -2.2990
 2476TIP3    H228920   3.394   2.895  11.057 -1.8309  0.3440  1.2640
 2477TIP3   OH228921   2.993   3.033  14.656 -0.4363  0.3698  0.1421
 2477TIP3    H128922   2.942   2.953  14.651 -0.7930  0.4388  1.9828
 2477TIP3    H228923   3.067   3.012  14.714 -0.6792  1.3997  0.8784
 2478TIP3   OH228924   1.773   4.331  14.190  0.2095  0.2904 -0.5702
 2478TIP3    H128925   1.780   4.415  14.236  1.0582  0.2283 -0.5693
 2478TIP3    H228926   1.736   4.271  14.255  0.0655  0.5459 -0.4165
 2479TIP3   OH228927   3.648   2.040  15.102 -0.0547  0.4826  0.1958
 2479TIP3    H128928   3.647   1.993  15.019 -1.4046  0.0991  0.4062
 2479TIP3    H228929   3.663   1.973  15.168  1.8062  0.8900  0.2364
 2480TIP3   OH228930   6.043   0.724  11.638  0.5605  0.2616  0.2363
 2480TIP3    H128931   6.096   0.698  11.714  1.4238  0.4310 -0.2984
 2480TIP3    H228932   6.004   0.808  11.663 -0.4594 -0.4333  1.1064
 2481TIP3   OH228933   3.859   1.754  17.025 -0.7472 -0.7468 -0.9218
 2481TIP3    H128934   3.939   1.706  17.006 -0.0170 -0.5319  1.3927
 2481TIP3    H228935   3.800   1.689  17.062  0.7116  0.1327  3.5175
 2482TIP3   OH228936   0.139   4.645  11.006  0.2705 -0.5407 -0.0302
 2482TIP3    H128937   0.131   4.740  11.007  1.7332 -0.3964  1.4203
 2482TIP3    H228938   0.049   4.614  10.998 -0.5982  0.9538  2.5556
 2483TIP3   OH228939   5.217   0.084  13.946  0.5335  0.1749  0.0068
 2483TIP3    H128940   5.250   0.170  13.918 -1.1766  0.5378 -1.0006
 2483TIP3    H228941   5.295   0.028  13.946  1.6572  1.6588  0.5012
 2484TIP3   OH228942   5.195   4.815  15.449  0.6121  0.0045 -0.0577
 2484TIP3    H128943   5.259   4.861  15.395  0.0951 -1.6640 -2.2045
 2484TIP3    H228944   5.111   4.837  15.410  0.1298 -0.4137  0.7334
 2485TIP3   OH228945   3.326   1.507   2.340 -1.1316 -0.5288 -0.5122
 2485TIP3    H128946   3.333   1.598   2.369  1.0292 -0.8839  0.2517
 2485TIP3    H228947   3.347   1.455   2.418  1.8278 -1.5779 -1.8505
 2486TIP3   OH228948   1.252   2.372  15.818 -0.4863 -1.0145 -0.4028
 2486TIP3    H128949   1.281   2.336  15.735  1.2835 -1.2361  0.2784
 2486TIP3    H228950   1.273   2.304  15.882  0.9720  0.3484  0.6193
 2487TIP3   OH228951   6.494   1.667  13.463  0.0120  0.0259  0.5887
 2487TIP3    H128952   6.526   1.716  13.539  3.1150 -0.0874 -0.4827
 2487TIP3    H228953   6.568   1.612  13.437 -1.2847 -0.7042 -1.9108
 2488TIP3   OH228954   2.067   5.591  16.782  0.1310  0.2652 -0.1527
 2488TIP3    H128955   2.123   5.557  16.851  0.6030  0.5180 -0.4058
 2488TIP3    H228956   2.093   5.683  16.773 -0.2131  0.3439 -0.3836
 2489TIP3   OH228957   3.525   5.782  13.632  0.6767  0.5509 -0.4572
 2489TIP3    H128958   3.530   5.732  13.713  0.4927  1.3912  0.0880
 2489TIP3    H228959   3.441   5.759  13.593 -0.2426  1.7807  0.7144
 2490TIP3   OH228960   1.182   5.133  13.250 -0.1445 -0.7320 -0.4696
 2490TIP3    H128961   1.260   5.077  13.256 -0.2131 -0.7961 -0.1738
 2490TIP3    H228962   1.215   5.221  13.269  0.0925 -0.5552 -1.6104
 2491TIP3   OH228963   3.358   0.977   3.305 -0.1913  0.5981 -0.1226
 2491TIP3    H128964   3.360   1.064   3.264 -0.7052 -0.5752 -2.9028
 2491TIP3    H228965   3.446   0.966   3.340  0.8073  1.2036 -2.2435
 2492TIP3   OH228966   0.456   6.781  17.191 -0.2829 -0.0008 -0.3686
 2492TIP3    H128967   0.372   6.808  17.227 -0.1550  0.7497 -0.6113
 2492TIP3    H228968   0.509   6.759  17.267 -0.5902 -0.1385 -0.1952
 2493TIP3   OH228969   0.626   4.499   2.357 -0.9211  0.3711 -0.0770
 2493TIP3    H128970   0.574   4.569   2.316  0.9368  1.9948  0.1773
 2493TIP3    H228971   0.632   4.525   2.449 -0.6997 -0.4751  0.1539
 2494TIP3   OH228972   5.812   1.755   0.094 -0.3222  0.0103  0.3286
 2494TIP3    H128973   5.851   1.667   0.094  1.5927  0.7783  1.4237
 2494TIP3    H228974   5.791   1.772   0.185  1.7767  1.6285  0.5852
 2495TIP3   OH228975   5.319   3.764   5.725  0.1153  0.5416  0.4843
 2495TIP3    H128976   5.383   3.831   5.748 -0.3473  1.2278 -0.1720
 2495TIP3    H228977   5.348   3.732   5.639 -1.0828  1.7472 -0.4157
 2496TIP3   OH228978   5.746   3.505   0.109 -0.3932 -0.6489  0.6097
 2496TIP3    H128979   5.784   3.576   0.057  2.0626 -2.1818  0.1557
 2496TIP3    H228980   5.668   3.479   0.060  0.0391  0.1215 -0.5336
 2497TIP3   OH228981   6.075   5.010  13.682  0.0194  0.1783  0.2457
 2497TIP3    H128982   6.154   4.984  13.730 -0.6716  0.6877  1.7017
 2497TIP3    H228983   6.108   5.037  13.596  1.5694  1.2361  1.1172
 2498TIP3   OH228984   2.220   3.636   2.664  0.5556 -0.4124 -0.7998
 2498TIP3    H128985   2.204   3.665   2.574 -3.5052 -0.5418 -0.3317
 2498TIP3    H228986   2.197   3.543   2.664 -3.3980  0.3715  0.9332
 2499TIP3   OH228987   3.050   1.469  14.356 -0.0357  0.3580  0.0654
 2499TIP3    H128988   3.071   1.376  14.367 -0.5426  0.3476  1.0759
 2499TIP3    H228989   3.100   1.496  14.279  2.1016 -0.1500  1.1929
 2500TIP3   OH228990   4.952   2.712   3.911  0.3620  0.3812  0.4691
 2500TIP3    H128991   4.979   2.652   3.981  1.9441  1.3321  0.7224
 2500TIP3    H228992   5.016   2.697   3.841  0.3006  1.1999  0.2254
 2501TIP3   OH228993   6.753   5.536   4.638  0.1195  0.1018  0.4335
 2501TIP3    H128994   6.778   5.511   4.549 -1.6960  1.0185 -0.3833
 2501TIP3    H228995   6.832   5.520   4.690  0.5539 -2.5740 -0.8744
 2502TIP3   OH228996   2.872   4.540   1.336  0.5268  0.1786  0.0814
 2502TIP3    H128997   2.835   4.555   1.423 -0.9240  1.3449 -0.6656
 2502TIP3    H228998   2.962   4.571   1.342  0.2958  0.7062  1.0489
 2503TIP3   OH228999   6.091   1.460   1.977 -0.3171 -0.2250 -0.3391
 2503TIP3    H129000   6.115   1.433   1.888 -0.1191  1.3109 -0.7747
 2503TIP3    H229001   6.033   1.535   1.964 -0.4966 -0.1537  0.8282
 2504TIP3   OH229002   5.880   4.589  10.797 -0.0242 -0.0368  0.3375
 2504TIP3    H129003   5.941   4.522  10.828  1.2128  0.5389 -0.7657
 2504TIP3    H229004   5.795   4.546  10.800  0.6298 -1.3891  0.4247
 2505TIP3   OH229005   1.667   3.183  15.482  0.2711  0.3519  0.0486
 2505TIP3    H129006   1.590   3.150  15.436 -0.1702 -0.0251  1.0489
 2505TIP3    H229007   1.657   3.278  15.480 -1.4938  0.2875  2.2408
 2506TIP3   OH229008   0.531   1.891   4.998  0.5439 -0.0237  0.1922
 2506TIP3    H129009   0.552   1.852   4.913  0.6383  1.9559 -0.7494
 2506TIP3    H229010   0.611   1.937   5.024 -0.2858  1.5558  0.0600
 2507TIP3   OH229011   6.433   4.435  15.976 -0.1557 -0.2676  0.1707
 2507TIP3    H129012   6.427   4.409  15.884 -0.0811  2.2542 -0.6052
 2507TIP3    H229013   6.355   4.398  16.016  0.2134 -2.1037 -0.6816
 2508TIP3   OH229014   2.299   0.517   1.242 -0.3659 -0.6259  0.5647
 2508TIP3    H129015   2.231   0.576   1.274 -0.1196  0.7450 -1.2946
 2508TIP3    H229016   2.268   0.491   1.155  2.7356  2.3461 -1.6449
 2509TIP3   OH229017   4.176   0.839  15.075 -0.2226 -0.4077  0.4733
 2509TIP3    H129018   4.197   0.751  15.043 -1.2787 -0.6720  0.4703
 2509TIP3    H229019   4.164   0.828  15.169 -0.1230 -0.2193  0.5081
 2510TIP3   OH229020   1.445   3.966  16.445  0.3612  0.1312  0.3007
 2510TIP3    H129021   1.434   4.028  16.517 -1.4519 -2.8715  2.8716
 2510TIP3    H229022   1.536   3.978  16.417  0.4425  2.9995  1.4831
 2511TIP3   OH229023   3.551   4.283   4.169  0.8555 -0.4519 -0.0467
 2511TIP3    H129024   3.632   4.254   4.127 -0.5554 -2.6392 -1.5265
 2511TIP3    H229025   3.486   4.282   4.098 -0.3941  1.7269  0.9651
 2512TIP3   OH229026   5.656   5.092   0.019  0.0884 -0.0703 -0.8503
 2512TIP3    H129027   5.602   5.039  -0.040 -0.4339  0.0895 -0.5166
 2512TIP3    H229028   5.646   5.181  -0.015 -1.1390  0.2031  0.1457
 2513TIP3   OH229029   5.299   1.435  10.850 -0.3568  0.1289 -0.3422
 2513TIP3    H129030   5.350   1.386  10.786 -0.3517 -0.8849  0.4174
 2513TIP3    H229031   5.308   1.527  10.823 -0.2899 -0.2662 -1.7280
 2514TIP3   OH229032   0.662   5.994   5.721  0.4605 -0.0464  0.3033
 2514TIP3    H129033   0.734   5.933   5.709  0.2018 -0.8745  2.4847
 2514TIP3    H229034   0.591   5.958   5.668  0.4869 -1.3492  1.1214
 2515TIP3   OH229035   6.702   2.841  13.474 -0.0848  0.7330  0.8655
 2515TIP3    H129036   6.700   2.755  13.516 -4.0501  0.3575  0.3432
 2515TIP3    H229037   6.686   2.823  13.382  1.6117  1.9685  0.2706
 2516TIP3   OH229038   0.020   1.591   0.219  0.0245 -0.7092 -0.3440
 2516TIP3    H129039   0.110   1.605   0.251 -0.2033 -0.3985  0.1870
 2516TIP3    H229040  -0.034   1.600   0.298 -0.5659  0.1252 -0.8355
 2517TIP3   OH229041   4.010   0.957  11.037 -0.2398 -0.5591  0.0537
 2517TIP3    H129042   4.044   0.877  10.998  0.4958 -0.5446  0.6361
 2517TIP3    H229043   3.934   0.980  10.984  0.2153 -1.0153 -0.8063
 2518TIP3   OH229044   0.989   6.200  14.424  0.1959  0.3795  0.0959
 2518TIP3    H129045   1.039   6.121  14.444 -0.4109  0.0232  0.2387
 2518TIP3    H229046   0.944   6.221  14.507  0.5931  1.0504  0.1480
 2519TIP3   OH229047   0.186   3.861   4.270  0.0512  0.2660 -0.4711
 2519TIP3    H129048   0.185   3.803   4.346  3.1136 -0.6826 -1.0324
 2519TIP3    H229049   0.249   3.930   4.292 -0.5302  1.1309 -1.3896
 2520TIP3   OH229050   4.660   6.430  12.614  0.2190 -0.1064  0.2476
 2520TIP3    H129051   4.617   6.514  12.625 -0.7437 -0.5391 -0.0996
 2520TIP3    H229052   4.635   6.380  12.692 -1.0934 -0.8432 -0.6106
 2521TIP3   OH229053   3.286   3.772   3.915 -0.3046  0.0071 -0.2468
 2521TIP3    H129054   3.353   3.841   3.913  1.8650 -2.0136 -1.1267
 2521TIP3    H229055   3.207   3.818   3.944  1.0712  2.8034 -0.5172
 2522TIP3   OH229056   5.178   1.779  12.142  0.1423 -0.4655  0.1228
 2522TIP3    H129057   5.197   1.805  12.232  0.8934 -0.8937  0.1020
 2522TIP3    H229058   5.106   1.717  12.150  2.4755 -3.3266  0.8558
 2523TIP3   OH229059   3.011   5.292  15.635  0.7977  0.0619  0.0061
 2523TIP3    H129060   2.978   5.328  15.718 -1.6608  1.3380 -1.4226
 2523TIP3    H229061   3.021   5.368  15.578 -1.9617 -1.0731 -2.2593
 2524TIP3   OH229062   2.163   3.484   2.330 -0.3886 -0.1165 -0.3568
 2524TIP3    H129063   2.131   3.469   2.241 -0.2511 -0.6504 -0.3224
 2524TIP3    H229064   2.251   3.447   2.330 -0.7697 -1.0592  0.2832
 2525TIP3   OH229065   3.168   0.694   4.350  0.7373 -0.2879  0.1164
 2525TIP3    H129066   3.261   0.678   4.333  0.8274 -0.3740  0.6683
 2525TIP3    H229067   3.132   0.608   4.371  1.1097  0.0957  2.5405
 2526TIP3   OH229068   1.357   1.611  12.736 -0.1524  0.5429  0.3994
 2526TIP3    H129069   1.440   1.658  12.727 -0.1568  0.4270 -0.2944
 2526TIP3    H229070   1.381   1.527  12.773  0.3152 -0.2768 -1.6426
 2527TIP3   OH229071   6.640   4.421  14.632  0.3801 -0.1915 -0.5373
 2527TIP3    H129072   6.663   4.473  14.710 -1.3336  0.6502 -0.5398
 2527TIP3    H229073   6.722   4.378  14.607  1.2043  0.2956  1.1405
 2528TIP3   OH229074   3.913   4.233  11.435 -0.4228 -0.5660 -0.0967
 2528TIP3    H129075   3.862   4.313  11.445 -0.0743 -0.6051  2.9352
 2528TIP3    H229076   3.848   4.165  11.419 -0.8618  0.0472 -0.9902
 2529TIP3   OH229077   5.161   5.315   1.760 -0.5260 -0.3781  0.5630
 2529TIP3    H129078   5.146   5.220   1.758 -0.1053 -0.4359 -0.8693
 2529TIP3    H229079   5.235   5.327   1.819  0.6388 -1.1410 -0.7045
 2530TIP3   OH229080   2.122   4.779  11.715 -0.1275  0.0100  0.7729
 2530TIP3    H129081   2.044   4.796  11.662 -0.6120 -0.0996  1.4365
 2530TIP3    H229082   2.111   4.836  11.792  0.6865  0.3541  0.6379
 2531TIP3   OH229083   6.304   4.184  16.482 -0.4007  0.1899  0.1461
 2531TIP3    H129084   6.398   4.182  16.498  0.2082  0.2544 -2.9033
 2531TIP3    H229085   6.289   4.114  16.419 -2.7368 -0.9225  1.7698
 2532TIP3   OH229086   3.334   4.449  15.720 -0.2178  0.0761  0.4704
 2532TIP3    H129087   3.271   4.452  15.792  0.9591  1.1810  1.5181
 2532TIP3    H229088   3.287   4.485  15.645 -0.8212  0.9396  1.2402
 2533TIP3   OH229089   6.421   3.331   3.600  0.0505 -0.4283  0.4315
 2533TIP3    H129090   6.346   3.375   3.640 -0.4079 -2.3449  1.8004
 2533TIP3    H229091   6.460   3.279   3.670  0.4212 -2.3605 -1.0993
 2534TIP3   OH229092   6.436   3.733   1.103  0.4209 -0.0305 -0.1323
 2534TIP3    H129093   6.499   3.800   1.126  0.1905  0.0118  0.3994
 2534TIP3    H229094   6.437   3.730   1.008 -0.0064  1.1568 -0.1931
 2535TIP3   OH229095   4.650   6.741  17.262  0.5170  0.2270 -0.1794
 2535TIP3    H129096   4.733   6.724  17.218 -0.0800 -0.3729 -1.1141
 2535TIP3    H229097   4.653   6.686  17.340  0.0402 -1.7044 -1.4355
 2536TIP3   OH229098   5.920   3.407  15.529  0.0808 -0.1389 -0.6926
 2536TIP3    H129099   5.921   3.379  15.621  2.7714  2.1350  0.1232
 2536TIP3    H229100   5.870   3.489  15.530 -0.8912 -0.6949 -1.5404
 2537TIP3   OH229101   4.930   5.745   4.815 -0.1933 -0.0997  0.4245
 2537TIP3    H129102   4.906   5.737   4.723 -0.9622  1.0279  0.5191
 2537TIP3    H229103   5.015   5.701   4.821  0.3821  0.7501 -1.0461
 2538TIP3   OH229104   1.081   2.567  16.522  0.3322 -0.3267  0.1120
 2538TIP3    H129105   1.057   2.658  16.504  0.0645 -0.4606 -0.2148
 2538TIP3    H229106   1.034   2.516  16.456 -1.7394 -0.9511  1.9047
 2539TIP3   OH229107   5.459   3.648  12.901  0.0381  0.8274  0.2206
 2539TIP3    H129108   5.416   3.636  12.986  0.1066  1.8170  0.4021
 2539TIP3    H229109   5.544   3.686  12.921  1.0167 -1.0073 -0.1483
 2540TIP3   OH229110   6.154   5.940   1.157  0.1000 -0.8414 -0.1808
 2540TIP3    H129111   6.194   5.902   1.235 -1.8728 -0.8047  0.9021
 2540TIP3    H229112   6.229   5.969   1.104  1.4968 -0.4551  1.8767
 2541TIP3   OH229113   3.055   2.563   3.264 -0.7827  0.2275  0.1766
 2541TIP3    H129114   3.013   2.489   3.308  0.0883  0.2309  1.0588
 2541TIP3    H229115   3.069   2.534   3.174  0.3256 -1.0205  0.7198
 2542TIP3   OH229116   0.028   1.076   0.318 -0.3625 -0.3199 -0.1492
 2542TIP3    H129117   0.046   1.139   0.388 -0.5791 -0.1507 -0.2447
 2542TIP3    H229118   0.094   1.095   0.251 -1.2343  0.6856 -0.7536
 2543TIP3   OH229119   1.392   0.015   3.572  0.1728  0.2252  0.2250
 2543TIP3    H129120   1.344   0.084   3.619 -0.5322  0.2296 -0.4577
 2543TIP3    H229121   1.332  -0.060   3.572  0.2463  0.1542 -0.4472
 2544TIP3   OH229122   0.560   2.672  12.185  0.0333 -0.0980  0.0675
 2544TIP3    H129123   0.580   2.736  12.116  0.3240 -1.2570 -0.9547
 2544TIP3    H229124   0.485   2.710  12.231  1.0232  1.6198  0.3675
 2545TIP3   OH229125   2.084   6.601  12.111 -0.6082  0.0945  0.0460
 2545TIP3    H129126   2.026   6.536  12.150  0.3958 -0.4415  0.6956
 2545TIP3    H229127   2.042   6.625  12.028 -1.9379  0.0202  0.6828
 2546TIP3   OH229128   0.021   5.673   3.381 -0.4050  0.2674 -0.0728
 2546TIP3    H129129  -0.021   5.648   3.299 -0.8653 -0.8758  0.4792
 2546TIP3    H229130  -0.050   5.713   3.433  0.3219  2.8774 -0.9436
 2547TIP3   OH229131   5.339   3.879  15.688 -0.1869 -0.9421 -0.5735
 2547TIP3    H129132   5.403   3.863  15.757 -0.7275 -0.2328  0.1190
 2547TIP3    H229133   5.369   3.827  15.614  1.6655  0.0166 -0.5579
 2548TIP3   OH229134   3.005   0.605  12.697  0.1773 -0.0235 -0.1416
 2548TIP3    H129135   3.089   0.562  12.715  0.2395  0.1126 -0.1105
 2548TIP3    H229136   2.954   0.593  12.777  0.4746  0.6350  0.1525
 2549TIP3   OH229137   5.916   5.030   0.665 -0.0862  0.3618  0.4115
 2549TIP3    H129138   5.934   5.034   0.759  0.1275 -0.0935  0.3921
 2549TIP3    H229139   5.936   5.118   0.633 -0.5461  0.6315  0.8615
 2550TIP3   OH229140   0.731   4.570   2.666  0.0568 -0.2528  0.3135
 2550TIP3    H129141   0.650   4.577   2.715 -0.9774 -1.7969 -1.0625
 2550TIP3    H229142   0.799   4.596   2.728 -1.4136  0.5610  1.6658
 2551TIP3   OH229143   1.929   2.696   3.682 -0.3801 -0.4991 -0.4742
 2551TIP3    H129144   1.895   2.644   3.755  0.3847 -1.7915 -0.9894
 2551TIP3    H229145   1.986   2.635   3.634 -2.0091 -0.1907 -3.0188
 2552TIP3   OH229146   1.941   2.744   3.246  0.5633  0.1451 -0.6921
 2552TIP3    H129147   2.022   2.729   3.195 -0.3126 -0.2601 -2.0198
 2552TIP3    H229148   1.932   2.839   3.247  0.4422  0.1574 -1.5846
 2553TIP3   OH229149   0.226   5.575   0.697 -0.0946  0.0447 -0.6275
 2553TIP3    H129150   0.248   5.557   0.606  0.3475  0.5575 -0.6257
 2553TIP3    H229151   0.301   5.540   0.747  0.4572  1.2585 -0.5806
 2554TIP3   OH229152   0.788   1.981  17.104 -0.8122  0.3211 -0.7409
 2554TIP3    H129153   0.822   1.925  17.174 -1.3260  1.3567  0.3902
 2554TIP3    H229154   0.721   1.928  17.061 -1.6267  0.1940  0.6103
 2555TIP3   OH229155   2.056   3.828  16.682 -0.7678 -0.3026 -0.3623
 2555TIP3    H129156   2.023   3.907  16.724 -3.5787 -1.4007 -0.2864
 2555TIP3    H229157   2.129   3.858  16.627 -0.7992  2.0603  0.7682
 2556TIP3   OH229158   4.689   3.914   3.361  0.3093  0.1306  0.5174
 2556TIP3    H129159   4.613   3.904   3.417  0.8979  0.8108  1.4765
 2556TIP3    H229160   4.759   3.866   3.405  0.3028 -1.0065 -0.6660
 2557TIP3   OH229161   4.205   3.170   2.988  0.2354 -0.0549 -0.2153
 2557TIP3    H129162   4.183   3.109   2.917  1.3055 -1.0600  0.2815
 2557TIP3    H229163   4.236   3.249   2.943 -0.7508 -0.0249 -0.8672
 2558TIP3   OH229164   3.711   2.036  14.092 -0.8440 -0.0104 -0.3317
 2558TIP3    H129165   3.655   2.033  14.170 -0.0432  2.5666  0.4239
 2558TIP3    H229166   3.716   2.129  14.069  1.3461 -0.3827 -1.6785
 2559TIP3   OH229167   2.659   6.030  14.264  0.0101  0.2292 -0.1164
 2559TIP3    H129168   2.703   6.007  14.182  0.0095 -0.4769  0.0698
 2559TIP3    H229169   2.640   5.945  14.305  1.0285  0.5795  1.1593
 2560TIP3   OH229170   2.757   4.901   1.351  0.5580  0.2483 -0.3536
 2560TIP3    H129171   2.841   4.865   1.380  0.6500  1.2124  0.6555
 2560TIP3    H229172   2.767   4.996   1.357 -0.3873  0.4030 -0.8729
 2561TIP3   OH229173   4.664   6.487  13.338  0.0585  0.4785 -0.4026
 2561TIP3    H129174   4.671   6.421  13.269  0.2757  0.3644 -0.2702
 2561TIP3    H229175   4.671   6.570  13.292  0.1446  0.4037 -0.5262
 2562TIP3   OH229176   4.579   4.815  10.658 -0.3573 -0.4002 -0.2054
 2562TIP3    H129177   4.634   4.766  10.718 -2.3160 -2.9562 -0.3499
 2562TIP3    H229178   4.628   4.817  10.576  0.7265 -0.0952  0.4355
 2563TIP3   OH229179   0.336   4.803   1.230  0.3351  0.2983 -0.2241
 2563TIP3    H129180   0.254   4.847   1.252  1.0364  3.0641 -2.5195
 2563TIP3    H229181   0.393   4.817   1.305 -0.0528  1.8337 -0.1946
 2564TIP3   OH229182   4.133   2.971   5.208 -0.4327  0.7456 -0.5466
 2564TIP3    H129183   4.164   2.921   5.133  0.2091  1.8703 -1.0484
 2564TIP3    H229184   4.051   3.011   5.179 -0.9224  0.0461 -0.1603
 2565TIP3   OH229185   4.779   2.973  17.215  0.1690  0.0339 -0.1174
 2565TIP3    H129186   4.728   2.938  17.142  0.1419  0.3617 -0.2566
 2565TIP3    H229187   4.798   2.897  17.269 -1.2017  0.0150  0.3914
 2566TIP3   OH229188   5.052   2.785  15.139 -0.2744  0.5724  0.1454
 2566TIP3    H129189   4.965   2.821  15.155  0.3434  1.6049  1.2813
 2566TIP3    H229190   5.092   2.846  15.077 -0.5090 -0.1648 -0.7559
 2567TIP3   OH229191   6.613   1.795  11.819 -0.5047 -0.4917  0.1938
 2567TIP3    H129192   6.535   1.842  11.849 -0.0956  0.1253  0.3043
 2567TIP3    H229193   6.682   1.860  11.820  0.6756 -1.6272  2.7409
 2568TIP3   OH229194   4.327   6.350  16.969  0.5893  0.3203 -0.1952
 2568TIP3    H129195   4.343   6.423  17.030  2.6445 -0.9897  0.9586
 2568TIP3    H229196   4.361   6.273  17.015  0.1093 -1.0956 -2.1015
 2569TIP3   OH229197   6.222   0.790  12.710  0.1869  0.8159  0.0485
 2569TIP3    H129198   6.134   0.791  12.749  0.7381  0.8785  1.3093
 2569TIP3    H229199   6.267   0.718  12.754  1.0129  1.2709 -0.0344
 2570TIP3   OH229200   4.704   4.632  16.625 -0.1565  0.8571 -0.0967
 2570TIP3    H129201   4.624   4.582  16.610 -0.5165  1.7749 -1.4574
 2570TIP3    H229202   4.677   4.707  16.678 -0.0910  0.8825 -0.0992
 2571TIP3   OH229203   0.875   0.293  15.885 -0.4340 -0.4922 -0.1795
 2571TIP3    H129204   0.925   0.272  15.806 -0.5215  1.3846 -0.7887
 2571TIP3    H229205   0.785   0.306  15.854  0.2094  4.4116 -0.6631
 2572TIP3   OH229206   5.072   1.283  12.969  0.6523 -0.2589 -0.0596
 2572TIP3    H129207   5.057   1.193  12.998 -0.2750  0.4737  1.9100
 2572TIP3    H229208   5.132   1.320  13.035 -0.1262  0.9714 -0.0089
 2573TIP3   OH229209   2.809   3.833  13.469 -0.0248  0.4844  0.0720
 2573TIP3    H129210   2.850   3.889  13.403 -1.3153 -0.1785 -1.3346
 2573TIP3    H229211   2.762   3.895  13.526  1.0367  1.0485  0.3796
 2574TIP3   OH229212   2.641   4.005   1.352 -0.0083  0.1914  0.0921
 2574TIP3    H129213   2.707   3.974   1.290 -0.7481 -0.1776 -0.5171
 2574TIP3    H229214   2.684   4.078   1.397  0.5395  0.4627 -0.8438
 2575TIP3   OH229215   2.997   0.589  15.883 -0.0132 -0.1793  0.4462
 2575TIP3    H129216   2.986   0.632  15.798 -0.7912 -0.5735  0.3402
 2575TIP3    H229217   2.980   0.496  15.866 -0.9446 -0.1590  1.1728
 2576TIP3   OH229218   0.294   2.888  11.615  0.2615 -0.4721  0.0395
 2576TIP3    H129219   0.234   2.813  11.619  0.7524 -0.8664  0.0170
 2576TIP3    H229220   0.241   2.962  11.645 -0.9084 -0.3892 -2.0220
 2577TIP3   OH229221   6.658   4.616  12.819 -0.5171  0.1965  0.4152
 2577TIP3    H129222   6.657   4.621  12.914  1.8876  1.4399  0.4544
 2577TIP3    H229223   6.633   4.525  12.799 -0.3327 -0.2853  2.2546
 2578TIP3   OH229224   0.168   3.489  14.067  0.0222 -0.0203 -0.6572
 2578TIP3    H129225   0.175   3.523  14.156  0.6147  1.1734 -1.1392
 2578TIP3    H229226   0.109   3.551  14.023 -0.6913 -0.8967 -0.9605
 2579TIP3   OH229227   1.086   0.895   3.402  0.0801 -0.7869 -0.1070
 2579TIP3    H129228   0.996   0.909   3.431  0.6727  1.7038  0.8241
 2579TIP3    H229229   1.135   0.880   3.483  0.8784  0.6266 -0.2872
 2580TIP3   OH229230   2.781   5.299  17.097  0.3015  0.0931  0.5512
 2580TIP3    H129231   2.842   5.252  17.040 -0.7813 -2.0978  1.1229
 2580TIP3    H229232   2.833   5.321  17.174  0.9395  0.2368  0.0894
 2581TIP3   OH229233   4.661   5.629   4.246 -0.4552 -0.3788 -0.0207
 2581TIP3    H129234   4.720   5.692   4.205 -0.0356 -1.0530 -0.4713
 2581TIP3    H229235   4.604   5.682   4.302  0.1535  0.3523 -0.0781
 2582TIP3   OH229236   6.453   3.385   2.093  0.7927 -0.8229 -0.2823
 2582TIP3    H129237   6.414   3.457   2.043  0.4562 -0.0826  1.0009
 2582TIP3    H229238   6.532   3.422   2.132 -0.0780 -0.6903  1.4831
 2583TIP3   OH229239   0.526   6.809   1.166  0.6888  0.2831  0.4103
 2583TIP3    H129240   0.542   6.809   1.261  0.4424 -2.9300  0.5640
 2583TIP3    H229241   0.612   6.800   1.127  0.6235 -0.9970  0.5059
 2584TIP3   OH229242   5.423   2.057  11.302 -0.0767  0.3174 -0.2933
 2584TIP3    H129243   5.367   2.053  11.224 -1.6249  0.8217  0.7609
 2584TIP3    H229244   5.506   2.018  11.273 -0.3926  1.0237 -2.3626
 2585TIP3   OH229245   0.634   5.623   3.273 -0.0315 -0.2050 -0.3073
 2585TIP3    H129246   0.588   5.705   3.289  0.4662 -0.1008  0.6674
 2585TIP3    H229247   0.722   5.638   3.307 -0.2763 -1.5342  0.9812
 2586TIP3   OH229248   0.924   1.977  16.828 -0.0175  0.0399 -0.2056
 2586TIP3    H129249   0.976   2.002  16.904 -0.8027 -1.6785  0.9607
 2586TIP3    H229250   0.842   2.026  16.837  0.5005  1.0654 -0.8566
 2587TIP3   OH229251   4.094   5.644   1.679 -0.0831  0.3870  0.3966
 2587TIP3    H129252   4.017   5.699   1.689 -0.4885 -0.2020  0.5468
 2587TIP3    H229253   4.075   5.566   1.730  1.5091  1.1233  2.2662
 2588TIP3   OH229254   4.945   5.047  13.522  0.3726 -0.2499  0.1394
 2588TIP3    H129255   4.899   5.122  13.484 -1.0503 -1.4740 -0.6540
 2588TIP3    H229256   5.033   5.080  13.540  0.0053  1.4007 -0.8421
 2589TIP3   OH229257   1.060   2.922   5.596 -0.2286  0.1219  0.5721
 2589TIP3    H129258   1.100   2.838   5.620 -0.4184  0.2491  1.3837
 2589TIP3    H229259   0.996   2.939   5.665  0.1015  1.1336  0.6566
 2590TIP3   OH229260   4.816   6.155  15.759 -0.1974  0.3841 -0.1150
 2590TIP3    H129261   4.760   6.174  15.684  0.0204 -1.9409 -0.9520
 2590TIP3    H229262   4.867   6.078  15.732  1.6964  0.9981  1.4986
 2591TIP3   OH229263   2.301   4.965   2.285  0.0962 -0.0518  0.3838
 2591TIP3    H129264   2.250   4.951   2.206 -1.0395  0.9550  0.9055
 2591TIP3    H229265   2.384   5.003   2.254  1.7478 -4.0769 -0.7097
 2592TIP3   OH229266   5.192   5.466   0.473  0.1453  0.3970  0.0310
 2592TIP3    H129267   5.250   5.463   0.549 -3.1684 -2.9086  2.8598
 2592TIP3    H229268   5.108   5.497   0.509 -0.9652  1.2291 -2.9480
 2593TIP3   OH229269   2.708   0.365   1.264  0.6715 -0.6867 -0.0754
 2593TIP3    H129270   2.672   0.355   1.352  1.8761  1.1655  0.6852
 2593TIP3    H229271   2.636   0.340   1.205 -0.5101 -0.8772  1.4043
 2594TIP3   OH229272   3.021   6.025  15.097 -0.1567  0.0578 -0.1275
 2594TIP3    H129273   3.035   5.940  15.140  0.2790 -0.0141 -0.4052
 2594TIP3    H229274   3.104   6.071  15.110 -0.8554  1.0009  1.2577
 2595TIP3   OH229275   4.046   1.822   0.711  0.5012  0.1486  0.7778
 2595TIP3    H129276   4.033   1.729   0.729 -2.9283  0.2922 -0.3162
 2595TIP3    H229277   3.997   1.867   0.780  1.7705  1.1824  1.0495
 2596TIP3   OH229278   2.492   0.996  17.207  0.2475 -0.3743 -0.3386
 2596TIP3    H129279   2.566   1.055  17.223  0.5410 -0.9280  0.4136
 2596TIP3    H229280   2.516   0.950  17.127  0.2703  0.1373 -0.6280
 2597TIP3   OH229281   4.279   5.848  12.875 -0.0124 -0.5961 -0.4018
 2597TIP3    H129282   4.267   5.768  12.824 -1.5434 -0.3490 -0.4756
 2597TIP3    H229283   4.317   5.819  12.957  0.8020 -1.2087 -0.9796
 2598TIP3   OH229284   5.286   2.619   6.499  0.3487 -0.0549 -0.8910
 2598TIP3    H129285   5.378   2.606   6.525  0.2724  0.6056 -0.2431
 2598TIP3    H229286   5.271   2.713   6.513 -0.7029 -0.3219 -0.0779
 2599TIP3   OH229287   0.425   0.097  12.033 -0.6525  0.3267  0.0316
 2599TIP3    H129288   0.438   0.133  12.120  2.0620  0.6687 -0.4339
 2599TIP3    H229289   0.509   0.110  11.989 -2.0309  0.5183 -2.7679
 2600TIP3   OH229290   6.539   3.216  11.865 -0.1147 -0.2905 -0.4082
 2600TIP3    H129291   6.570   3.252  11.782 -3.7031  0.1088 -1.7645
 2600TIP3    H229292   6.533   3.122  11.850 -0.9744 -0.1946 -0.7270
 2601TIP3   OH229293   2.332   2.990   0.176  0.1191  0.4991  0.3556
 2601TIP3    H129294   2.336   2.896   0.157 -0.5794  0.6338 -0.5016
 2601TIP3    H229295   2.239   3.009   0.188  0.3007  0.9870  1.0822
 2602TIP3   OH229296   5.586   0.805  13.974  0.1462  0.1601 -0.1233
 2602TIP3    H129297   5.678   0.815  13.952  0.2595 -0.1712  0.1888
 2602TIP3    H229298   5.539   0.835  13.897  0.5409 -1.6746 -1.1258
 2603TIP3   OH229299   1.029   0.621  14.866  0.4393 -0.0442 -0.4146
 2603TIP3    H129300   0.990   0.570  14.936  0.5533 -1.8004 -1.5686
 2603TIP3    H229301   0.955   0.645  14.810  0.1438  2.5606  0.9590
 2604TIP3   OH229302   5.299   1.800  14.829 -0.1748  0.2019  0.2209
 2604TIP3    H129303   5.373   1.741  14.842 -0.7025 -0.5959 -0.3263
 2604TIP3    H229304   5.284   1.838  14.915  0.4899 -0.0779  0.4715
 2605TIP3   OH229305   1.364   0.246  14.732 -0.0768  0.4887  0.4602
 2605TIP3    H129306   1.378   0.270  14.823  0.2770 -1.4040  0.9421
 2605TIP3    H229307   1.398   0.321  14.682  2.2115  0.4428  1.8282
 2606TIP3   OH229308   4.742   0.282  12.489  0.8610  0.1504 -0.0678
 2606TIP3    H129309   4.759   0.229  12.411  2.1954  0.3363  0.0656
 2606TIP3    H229310   4.648   0.276  12.503  0.7016 -0.4352 -1.3012
 2607TIP3   OH229311   1.819   5.335   4.578  0.0424  0.8711  0.1277
 2607TIP3    H129312   1.813   5.249   4.537  0.4406  0.4095  0.9998
 2607TIP3    H229313   1.778   5.394   4.516  0.9022  0.2547 -1.0592
 2608TIP3   OH229314   3.312   6.650   0.914  0.0851  0.0927 -0.1693
 2608TIP3    H129315   3.363   6.588   0.967  0.9504  1.3359  0.5012
 2608TIP3    H229316   3.278   6.597   0.841 -1.2820 -1.7245  1.6618
 2609TIP3   OH229317   3.416   0.463  11.129  0.2200 -0.0739 -0.3970
 2609TIP3    H129318   3.325   0.475  11.100  0.7600  0.7946 -1.8635
 2609TIP3    H229319   3.416   0.379  11.174 -1.4259  0.1728  0.1410
 2610TIP3   OH229320   4.987   3.937  12.595  0.0295 -0.2321  0.0140
 2610TIP3    H129321   5.078   3.966  12.590  0.5627 -1.8088  0.1734
 2610TIP3    H229322   4.948   3.995  12.661  1.6216 -1.1723  1.9155
 2611TIP3   OH229323   3.683   0.142   4.150 -0.5925 -0.1031  0.1021
 2611TIP3    H129324   3.737   0.092   4.212 -0.6128  1.4834  1.4629
 2611TIP3    H229325   3.620   0.079   4.117  1.1168 -1.6556 -0.3879
 2612TIP3   OH229326   5.614   1.021  16.833 -0.2714  0.3384  0.5724
 2612TIP3    H129327   5.579   0.950  16.780  1.3433  0.1163 -0.2676
 2612TIP3    H229328   5.603   1.099  16.779  0.3863  0.2867  0.3575
 2613TIP3   OH229329   3.533   1.731   5.561  0.0380  0.0557  0.1119
 2613TIP3    H129330   3.556   1.640   5.582  0.8610 -0.3581 -2.2529
 2613TIP3    H229331   3.597   1.757   5.496 -1.5136  1.5907 -0.8888
 2614TIP3   OH229332   3.483   5.880   5.821  0.0416  0.3866  0.3060
 2614TIP3    H129333   3.427   5.941   5.773 -2.0060 -0.2025  1.7786
 2614TIP3    H229334   3.496   5.923   5.906  1.4700  0.2830  0.1608
 2615TIP3   OH229335   4.865   4.656  17.062 -0.6222 -0.4790  0.3324
 2615TIP3    H129336   4.785   4.705  17.041  0.0094  0.4805  0.1083
 2615TIP3    H229337   4.885   4.681  17.153  0.9986  1.5913 -0.5160
 2616TIP3   OH229338   2.750   2.628  12.282  0.0298  0.7303 -0.1089
 2616TIP3    H129339   2.725   2.703  12.336  2.0966  0.1890  1.7323
 2616TIP3    H229340   2.820   2.661  12.225  0.3012  0.4200  0.0459
 2617TIP3   OH229341   3.733   5.203   3.290 -0.4303 -0.2390 -0.0072
 2617TIP3    H129342   3.821   5.175   3.264 -0.2328  0.0092  0.3855
 2617TIP3    H229343   3.678   5.125   3.275 -0.6842  0.3621 -2.8172
 2618TIP3   OH229344   6.573   0.517   4.050  0.4394  0.1841  0.7091
 2618TIP3    H129345   6.576   0.472   3.965  1.3616 -0.1677  0.9168
 2618TIP3    H229346   6.486   0.496   4.085  0.0925  0.2472 -0.0966
 2619TIP3   OH229347   5.382   5.585   5.950 -0.2490 -0.4776 -0.4621
 2619TIP3    H129348   5.458   5.530   5.930  0.0029  0.6066 -2.8887
 2619TIP3    H229349   5.407   5.635   6.027  0.0706 -2.6549  0.9204
 2620TIP3   OH229350   2.901   0.852  13.703 -0.3375  0.9831 -0.1808
 2620TIP3    H129351   2.891   0.942  13.733  1.0793  0.9545  0.4524
 2620TIP3    H229352   2.937   0.805  13.778 -0.0559  0.1242 -0.8299
 2621TIP3   OH229353   0.547   6.668   4.436 -0.3014  0.2472  0.3645
 2621TIP3    H129354   0.461   6.669   4.478  1.6162  0.9292  4.8618
 2621TIP3    H229355   0.584   6.584   4.461  1.1635  0.9279  0.5541
 2622TIP3   OH229356   3.336   5.963  11.269  0.0559 -0.1548 -0.0594
 2622TIP3    H129357   3.377   6.041  11.230 -0.5027  0.0339 -0.2711
 2622TIP3    H229358   3.314   5.908  11.194  0.4100 -0.5019  0.0890
 2623TIP3   OH229359   5.406   2.596   0.322 -0.1843  0.3292  0.2152
 2623TIP3    H129360   5.362   2.633   0.399 -0.8388  0.9280 -0.4214
 2623TIP3    H229361   5.409   2.669   0.259 -0.9062 -0.5166 -0.8344
 2624TIP3   OH229362   5.174   3.259  10.652  0.6218  0.4224 -0.0052
 2624TIP3    H129363   5.224   3.323  10.601  0.4068 -0.4463 -1.3928
 2624TIP3    H229364   5.174   3.293  10.741  0.3007  2.4687 -0.7300
 2625TIP3   OH229365   6.211   2.299  15.378  1.0700 -0.4323  0.3873
 2625TIP3    H129366   6.162   2.319  15.298 -0.4449 -2.6014  0.6865
 2625TIP3    H229367   6.299   2.276  15.347  0.8144 -0.1839 -0.5513
 2626TIP3   OH229368   2.714   6.785  15.031  0.1930 -0.2105 -0.0707
 2626TIP3    H129369   2.774   6.828  14.971  0.4602 -0.8214 -0.2473
 2626TIP3    H229370   2.727   6.691  15.015 -0.2223 -0.3627  0.4592
 2627TIP3   OH229371   0.896   0.106   0.851  0.2436  0.0446 -0.1375
 2627TIP3    H129372   0.801   0.094   0.856  0.1492  0.1729 -1.3422
 2627TIP3    H229373   0.927   0.090   0.940 -0.8916 -0.1395  0.2384
 2628TIP3   OH229374   3.856   0.276   3.052  0.3253 -0.1653  0.1767
 2628TIP3    H129375   3.820   0.233   2.974  0.8899  0.3979 -0.4086
 2628TIP3    H229376   3.812   0.233   3.125 -0.3329 -0.6007 -0.4552
 2629TIP3   OH229377   6.394   6.655  14.154 -0.5067 -0.9183  0.4145
 2629TIP3    H129378   6.469   6.715  14.156  0.3548 -1.7977 -1.9971
 2629TIP3    H229379   6.343   6.685  14.079 -1.6253 -1.4567  0.9473
 2630TIP3   OH229380   1.533   4.351  13.148 -0.1288 -0.4917  0.0012
 2630TIP3    H129381   1.445   4.342  13.112  0.8509  1.4047 -3.2937
 2630TIP3    H229382   1.583   4.392  13.078  2.7040  1.1811  2.7780
 2631TIP3   OH229383   3.018   6.550   1.579 -0.3005  0.2358 -0.1138
 2631TIP3    H129384   2.924   6.563   1.563 -0.6021  0.0131  1.3134
 2631TIP3    H229385   3.061   6.615   1.523 -1.3056  0.4719 -0.6420
 2632TIP3   OH229386   6.172   5.142   4.667 -0.8488  0.2294 -0.0810
 2632TIP3    H129387   6.163   5.237   4.659 -2.6891  0.1066  0.0543
 2632TIP3    H229388   6.232   5.117   4.596 -0.0536  1.5154  0.1210
 2633TIP3   OH229389   5.053   6.732  16.253 -0.1623  0.2562 -0.0873
 2633TIP3    H129390   5.100   6.654  16.283  0.2140  0.1907 -0.8251
 2633TIP3    H229391   5.038   6.717  16.160 -1.2927  0.4681  0.0470
 2634TIP3   OH229392   0.738   0.528  11.630 -0.4559 -0.0598  0.5462
 2634TIP3    H129393   0.671   0.468  11.664  0.2931 -0.2835  1.6985
 2634TIP3    H229394   0.742   0.598  11.696  0.7247 -0.2732  0.7190
 2635TIP3   OH229395   2.663   0.579   3.586 -0.0861  0.2092  0.1400
 2635TIP3    H129396   2.667   0.664   3.542 -1.4722  0.0778 -0.2811
 2635TIP3    H229397   2.581   0.540   3.556  0.2316 -1.0250  0.7997
 2636TIP3   OH229398   2.713   6.157   2.212 -0.1093  0.0829 -0.3733
 2636TIP3    H129399   2.696   6.100   2.137  0.1911  2.2080 -2.1585
 2636TIP3    H229400   2.803   6.189   2.199 -0.0107  0.4467  0.9602
 2637TIP3   OH229401   2.468   5.932  12.082  0.2310 -0.0253  0.6863
 2637TIP3    H129402   2.552   5.963  12.048 -0.0912  2.3987  1.8847
 2637TIP3    H229403   2.418   5.907  12.005  1.3943  0.2635 -0.1911
 2638TIP3   OH229404   6.412   3.423  15.149  0.0142 -0.8873  0.4674
 2638TIP3    H129405   6.403   3.513  15.117 -0.0492 -0.5078  1.5097
 2638TIP3    H229406   6.324   3.400  15.179  0.5473 -0.3309  2.6177
 2639TIP3   OH229407   2.821   2.044   6.527 -0.0970 -0.3802  0.6015
 2639TIP3    H129408   2.802   2.131   6.493  0.9474 -0.4500 -0.2444
 2639TIP3    H229409   2.916   2.035   6.516 -0.1738 -1.5747  0.7900
 2640TIP3   OH229410   3.822   5.446  15.356  0.1834 -0.3769 -0.3413
 2640TIP3    H129411   3.736   5.415  15.329 -0.6156  0.6503  0.9365
 2640TIP3    H229412   3.845   5.392  15.432  0.7629 -0.7638 -0.7790
 2641TIP3   OH229413   2.617   3.020  13.629  0.2471 -0.2660 -0.0734
 2641TIP3    H129414   2.702   3.030  13.671  1.0251 -2.3478 -1.0515
 2641TIP3    H229415   2.619   2.933  13.589 -2.1577 -0.1808 -0.5561
 2642TIP3   OH229416   1.182   1.177  15.107 -0.4706 -0.0949 -0.9895
 2642TIP3    H129417   1.195   1.228  15.027 -0.3000  0.1076 -0.8335
 2642TIP3    H229418   1.269   1.172  15.146 -1.0713  2.6744  0.9281
 2643TIP3   OH229419   0.764   2.379  15.712  0.3594  0.0261  0.7029
 2643TIP3    H129420   0.843   2.413  15.752 -0.1988  1.2869  0.7553
 2643TIP3    H229421   0.784   2.378  15.618  0.0575  1.4159  0.6062
 2644TIP3   OH229422   5.271   3.155   3.339  0.4567  0.3050 -0.3157
 2644TIP3    H129423   5.254   3.151   3.245 -2.0355 -2.1083  0.1163
 2644TIP3    H229424   5.348   3.099   3.352 -0.3800 -0.9676 -0.7300
 2645TIP3   OH229425   0.144   0.056   1.720 -0.4970  0.2803  0.5711
 2645TIP3    H129426   0.054   0.063   1.688 -0.5241 -0.7914  0.3874
 2645TIP3    H229427   0.163  -0.038   1.718  0.8880  0.5592 -0.0914
 2646TIP3   OH229428   3.863   2.493  12.332  0.1740  0.2055 -0.3306
 2646TIP3    H129429   3.921   2.569  12.324 -1.3545  1.4091 -0.5256
 2646TIP3    H229430   3.883   2.439  12.256  0.2326  1.1924 -1.0304
 2647TIP3   OH229431   0.174   3.088   4.738 -0.3718 -0.0218 -0.4699
 2647TIP3    H129432   0.218   3.096   4.823 -1.7144 -0.7496  0.3345
 2647TIP3    H229433   0.176   3.176   4.701  0.7501  0.1784  0.0469
 2648TIP3   OH229434   3.989   5.665  12.107 -0.2856 -0.2836  0.0854
 2648TIP3    H129435   4.060   5.625  12.158 -0.9420 -1.3491  0.2040
 2648TIP3    H229436   3.909   5.633  12.149 -0.8428  0.4194 -0.4122
 2649TIP3   OH229437   2.549   3.574  11.955 -0.1435  0.4256  0.0656
 2649TIP3    H129438   2.547   3.569  12.051  1.0826  0.3969  0.1075
 2649TIP3    H229439   2.642   3.571  11.933 -0.4335 -0.0837 -1.1668
 2650TIP3   OH229440   0.246   5.102   4.945 -0.0756 -0.0947  0.8731
 2650TIP3    H129441   0.240   5.077   5.038 -0.0026 -0.3066  0.8223
 2650TIP3    H229442   0.214   5.025   4.898 -1.5265  0.5438  0.7567
 2651TIP3   OH229443   1.008   1.599  11.932 -0.3501  0.5078 -0.7891
 2651TIP3    H129444   0.927   1.645  11.910 -1.6515 -0.8526  0.8389
 2651TIP3    H229445   0.980   1.510  11.956  1.3605  0.4756  1.4895
 2652TIP3   OH229446   4.719   4.095  14.697  0.0366 -0.1361 -0.2372
 2652TIP3    H129447   4.727   4.178  14.743  1.6926  0.0038 -0.7140
 2652TIP3    H229448   4.632   4.097  14.658  0.4682  1.8970 -1.2200
 2653TIP3   OH229449   3.315   3.527  15.059 -0.3061  0.2667  0.2324
 2653TIP3    H129450   3.387   3.539  14.997  1.2247  0.0512  1.9095
 2653TIP3    H229451   3.274   3.444  15.032  0.2089  0.2701 -0.5926
 2654TIP3   OH229452   3.040   3.012   5.130  0.2454 -0.4064 -0.1734
 2654TIP3    H129453   3.131   2.984   5.132  0.2753 -0.2695  0.5301
 2654TIP3    H229454   3.040   3.099   5.169 -0.0466  0.0234 -1.1089
 2655TIP3   OH229455   2.491   5.081   4.950 -0.1811 -0.5023  0.4108
 2655TIP3    H129456   2.465   5.171   4.970 -1.3456 -0.7687  0.1732
 2655TIP3    H229457   2.408   5.032   4.949  0.2504 -1.2527 -1.1104
 2656TIP3   OH229458   3.200   4.843  11.609 -0.4726 -0.0257  0.2143
 2656TIP3    H129459   3.113   4.874  11.585  0.3193  1.2411 -1.2036
 2656TIP3    H229460   3.203   4.752  11.578 -1.0093  0.1829 -0.4521
 2657TIP3   OH229461   2.917   4.751  12.209 -0.6862  0.2984 -0.4074
 2657TIP3    H129462   2.823   4.750  12.190 -0.7195 -1.9147 -0.3994
 2657TIP3    H229463   2.934   4.841  12.239 -3.0572  0.4167  0.8766
 2658TIP3   OH229464   2.232   5.230  16.000  0.5799  0.6176  0.4199
 2658TIP3    H129465   2.207   5.319  15.975 -0.9230  0.1093 -0.0295
 2658TIP3    H229466   2.270   5.192  15.922  0.4649  0.6033  0.3710
 2659TIP3   OH229467   6.132   4.085  11.653  0.4841  0.1508  0.3044
 2659TIP3    H129468   6.182   4.022  11.602  0.2990  0.5074 -0.3213
 2659TIP3    H229469   6.041   4.061  11.639  0.3460  1.2951 -0.9448
 2660TIP3   OH229470   6.382   0.439  14.941  0.3297 -0.3991 -0.0218
 2660TIP3    H129471   6.314   0.506  14.930  0.3295 -0.6026 -1.3541
 2660TIP3    H229472   6.356   0.393  15.021  0.3208  1.1575  0.9099
 2661TIP3   OH229473   0.300   5.295   5.420 -0.7192  0.0495  0.1900
 2661TIP3    H129474   0.391   5.267   5.421  0.0201  2.0040 -2.1200
 2661TIP3    H229475   0.252   5.224   5.461  1.7838 -1.2308  1.0883
 2662TIP3   OH229476   2.566   1.359   4.346 -0.5938 -0.2174  0.1641
 2662TIP3    H129477   2.559   1.402   4.432 -0.1668  0.0415  0.0716
 2662TIP3    H229478   2.582   1.267   4.367 -0.3738 -0.1357  0.3684
 2663TIP3   OH229479   6.648   5.483   5.755  0.2300 -0.2508  0.3102
 2663TIP3    H129480   6.715   5.506   5.691 -1.0497  0.9933 -0.6341
 2663TIP3    H229481   6.656   5.548   5.824 -0.7455  0.6408 -0.3867
 2664TIP3   OH229482   0.855   6.651   0.144  0.0537  0.1595 -0.3591
 2664TIP3    H129483   0.770   6.628   0.181 -0.1930  1.4740 -0.0516
 2664TIP3    H229484   0.851   6.622   0.053 -0.2666 -0.8611 -0.0265
 2665TIP3   OH229485   4.277   5.110  12.183 -0.0129  0.2980  0.1822
 2665TIP3    H129486   4.263   5.015  12.181 -1.6864  0.5198 -0.0278
 2665TIP3    H229487   4.366   5.121  12.217  0.8037 -1.3864 -1.2892
 2666TIP3   OH229488   3.939   1.013  16.825 -0.2799 -0.5665 -0.0886
 2666TIP3    H129489   3.958   0.921  16.842 -0.2122 -0.3806  0.8959
 2666TIP3    H229490   3.983   1.060  16.896 -1.0686  0.1535 -0.0569
 2667TIP3   OH229491   3.872   5.346  13.521 -0.0165  0.4351 -0.4035
 2667TIP3    H129492   3.844   5.407  13.589  1.1697  0.9541 -0.3564
 2667TIP3    H229493   3.813   5.364  13.448 -0.4130  0.8439  0.0078
 2668TIP3   OH229494   5.631   2.504  13.147 -0.0563 -0.1033  1.2440
 2668TIP3    H129495   5.652   2.524  13.055 -0.9209 -1.1406  0.7963
 2668TIP3    H229496   5.683   2.566  13.197  0.6305  0.3223  0.0562
 2669TIP3   OH229497   0.523   6.082   3.465 -0.7689  0.1341 -0.3284
 2669TIP3    H129498   0.463   6.020   3.506  0.4824 -1.3701 -0.6624
 2669TIP3    H229499   0.533   6.152   3.529 -2.0949 -0.0785  0.1299
 2670TIP3   OH229500   1.293   0.091  12.854 -0.4653  0.0754  0.7398
 2670TIP3    H129501   1.364   0.065  12.914  0.7177  1.2922 -0.0609
 2670TIP3    H229502   1.239   0.151  12.906 -0.2099  0.0957  0.9870
 2671TIP3   OH229503   1.964   1.640   3.988 -0.1486 -0.2830 -0.2902
 2671TIP3    H129504   2.048   1.665   4.026  0.1625 -1.2248 -0.3517
 2671TIP3    H229505   1.986   1.597   3.906 -0.6893 -0.5792 -0.2853
 2672TIP3   OH229506   3.670   0.486   0.993 -0.4929  0.1707 -0.7075
 2672TIP3    H129507   3.722   0.406   0.992 -0.3928  0.1992  0.7385
 2672TIP3    H229508   3.579   0.457   0.988 -0.4287  0.0050 -0.8990
 2673TIP3   OH229509   4.010   3.132  12.381 -0.5685  0.1939  0.0111
 2673TIP3    H129510   4.079   3.170  12.436 -0.9145  0.6060  0.1693
 2673TIP3    H229511   4.045   3.047  12.354  0.6912  1.0666 -1.2433
 2674TIP3   OH229512   3.747   1.210  14.514  0.3453  0.1610 -0.3802
 2674TIP3    H129513   3.833   1.167  14.507  1.2641  2.0807 -2.1117
 2674TIP3    H229514   3.749   1.253  14.600  0.8188 -0.3762 -0.1105
 2675TIP3   OH229515   5.796   4.502   1.532  0.2687 -0.1968 -0.4638
 2675TIP3    H129516   5.783   4.487   1.438 -0.1049 -0.1366 -0.4238
 2675TIP3    H229517   5.752   4.429   1.575  0.2062 -0.0797 -0.3270
 2676TIP3   OH229518   1.229   0.925  16.347  0.4101  0.0115  0.4100
 2676TIP3    H129519   1.266   0.837  16.356 -0.3228 -0.4533 -0.7940
 2676TIP3    H229520   1.150   0.923  16.402  0.3213 -0.1320  0.2779
 2677TIP3   OH229521   2.786   2.089   0.894 -0.2233 -0.7573  0.7725
 2677TIP3    H129522   2.733   2.166   0.914 -0.6973  0.0578 -2.8364
 2677TIP3    H229523   2.728   2.014   0.913 -1.5155  0.0077  0.0486
 2678TIP3   OH229524   2.103   2.434   4.540  0.0450 -0.1797 -0.0311
 2678TIP3    H129525   2.066   2.505   4.593 -0.8845  0.0196 -0.9218
 2678TIP3    H229526   2.099   2.357   4.597 -1.9566 -0.2199 -0.1591
 2679TIP3   OH229527   4.420   3.888   1.479 -0.4461 -0.1675  0.3904
 2679TIP3    H129528   4.461   3.921   1.399 -3.0388 -1.6991 -1.7461
 2679TIP3    H229529   4.473   3.812   1.504  0.0089 -0.0833 -0.2866
 2680TIP3   OH229530   4.201   5.795  12.279  0.1870  0.2911  0.0993
 2680TIP3    H129531   4.165   5.875  12.243  0.5406  0.1284 -0.6270
 2680TIP3    H229532   4.263   5.824  12.346  0.2641  0.6217 -0.1142
 2681TIP3   OH229533   3.576   0.590   1.222 -0.0754 -0.2661  0.1370
 2681TIP3    H129534   3.607   0.576   1.133 -1.6626 -1.4700 -0.2750
 2681TIP3    H229535   3.494   0.638   1.211 -0.1786 -0.2455  0.9719
 2682TIP3   OH229536   0.155   4.837  11.209 -0.0495  0.4374 -0.1976
 2682TIP3    H129537   0.195   4.760  11.169 -0.5421 -0.4575  0.9425
 2682TIP3    H229538   0.106   4.879  11.139 -0.2436 -0.6294 -0.7155
 2683TIP3   OH229539   2.782   1.416   5.317  0.3509  0.0197 -0.0360
 2683TIP3    H129540   2.791   1.511   5.325  2.4753 -0.0778 -0.7566
 2683TIP3    H229541   2.858   1.381   5.363 -0.0522 -1.3128 -0.3477
 2684TIP3   OH229542   6.260   6.276  13.676  0.0051 -0.0155  0.1315
 2684TIP3    H129543   6.183   6.296  13.623  0.9363  0.0988 -1.2223
 2684TIP3    H229544   6.334   6.307  13.625  0.8590  2.5732  2.6733
 2685TIP3   OH229545   6.566   0.741   3.508 -0.0249 -0.0144 -0.2257
 2685TIP3    H129546   6.485   0.774   3.547  0.1816  0.7205 -0.4030
 2685TIP3    H229547   6.543   0.718   3.418 -0.3197 -0.9829  0.0825
 2686TIP3   OH229548   4.732   4.689  12.144 -0.3716 -0.3963  0.2805
 2686TIP3    H129549   4.802   4.754  12.137 -0.4165 -0.2631  1.0407
 2686TIP3    H229550   4.706   4.690  12.236 -1.7997 -0.0014 -0.0943
 2687TIP3   OH229551   4.041   6.612   6.043 -0.6772 -0.0785 -0.0932
 2687TIP3    H129552   4.004   6.529   6.012  1.6611 -0.8846 -0.8982
 2687TIP3    H229553   4.078   6.591   6.128  0.3516 -0.0097 -0.5115
 2688TIP3   OH229554   6.290   1.933   3.505 -0.2380 -0.3910 -0.8546
 2688TIP3    H129555   6.223   1.993   3.471 -0.0751  0.1907 -0.1638
 2688TIP3    H229556   6.240   1.864   3.549 -0.4044 -0.4215 -1.0880
 2689TIP3   OH229557   3.593   6.681  11.221 -0.6561 -0.1577 -0.3560
 2689TIP3    H129558   3.502   6.710  11.217 -0.5272  0.1420 -1.2596
 2689TIP3    H229559   3.601   6.617  11.150  0.1120  0.6430 -1.0131
 2690TIP3   OH229560   1.526   5.489   5.534  0.3655 -0.6781  0.8781
 2690TIP3    H129561   1.574   5.555   5.484 -0.7947 -0.7058 -0.3358
 2690TIP3    H229562   1.572   5.483   5.618  1.4263  0.5193  0.4020
 2691TIP3   OH229563   1.119   4.948   5.813 -0.0948  0.0387  0.0286
 2691TIP3    H129564   1.054   4.886   5.778  2.3086 -2.9796  0.4746
 2691TIP3    H229565   1.119   4.932   5.907  0.2711  1.0632  0.2114
 2692TIP3   OH229566   0.349   0.634  11.636  0.1377 -0.0807  0.2806
 2692TIP3    H129567   0.412   0.604  11.702  1.1879  0.9278 -0.2161
 2692TIP3    H229568   0.397   0.701  11.588 -0.7663 -0.4736 -1.2092
 2693TIP3   OH229569   1.950   0.784  16.763  0.2671  0.2293  0.6487
 2693TIP3    H129570   1.997   0.704  16.783 -1.5328 -0.5814  1.9573
 2693TIP3    H229571   1.921   0.817  16.848 -0.6049  1.2324 -0.0062
 2694TIP3   OH229572   2.610   4.494   4.311  0.0065 -0.5977 -0.1858
 2694TIP3    H129573   2.531   4.443   4.326 -0.0850 -0.3898  0.0536
 2694TIP3    H229574   2.681   4.442   4.348  0.1366 -1.2917 -1.3673
 2695TIP3   OH229575   3.391   4.923   3.669 -0.1170 -0.3995 -0.0566
 2695TIP3    H129576   3.420   5.012   3.651  0.5563 -1.0180 -2.3285
 2695TIP3    H229577   3.455   4.867   3.624 -1.3743 -1.9814  0.0296
 2696TIP3   OH229578   3.956   1.928   4.735 -0.1450 -0.4463 -0.5834
 2696TIP3    H129579   3.969   1.976   4.653  0.8960  0.6877  0.2120
 2696TIP3    H229580   3.914   1.991   4.793  1.1435 -0.4892  0.4470
 2697TIP3   OH229581   3.827   4.421   3.517 -0.5164  0.3064  0.5224
 2697TIP3    H129582   3.785   4.465   3.443  1.7785  1.6207 -0.1078
 2697TIP3    H229583   3.870   4.491   3.565 -1.2812 -0.6391  2.7005
 2698TIP3   OH229584   2.278   6.031   4.300  0.7878 -0.3047 -0.2749
 2698TIP3    H129585   2.193   6.074   4.303  1.1390  0.5303 -1.5107
 2698TIP3    H229586   2.341   6.100   4.320  1.1631 -1.0777  1.4100
 2699TIP3   OH229587   2.773   1.772   1.843  0.4838  0.4923  0.0152
 2699TIP3    H129588   2.854   1.795   1.891  0.1425  0.6638  0.5192
 2699TIP3    H229589   2.770   1.676   1.848  1.0395  0.4298 -0.6500
 2700TIP3   OH229590   2.736   4.234  11.605 -0.1985 -0.8507  0.0268
 2700TIP3    H129591   2.740   4.304  11.539 -0.3559 -1.9457 -1.1903
 2700TIP3    H229592   2.742   4.280  11.689 -1.0605  0.6970 -0.7076
 2701TIP3   OH229593   0.206   1.586   3.907 -0.4102  0.0544 -0.3658
 2701TIP3    H129594   0.272   1.547   3.850  0.1817  1.5867 -0.7667
 2701TIP3    H229595   0.245   1.581   3.995 -0.2381 -0.0328 -0.4465
 2702TIP3   OH229596   0.531   6.445   6.394 -0.2852  0.7610 -0.1475
 2702TIP3    H129597   0.540   6.502   6.318 -0.5097 -0.7845 -1.4091
 2702TIP3    H229598   0.483   6.369   6.360  1.7343 -1.0895  0.9162
 2703TIP3   OH229599   2.864   3.928  15.455  0.2230 -0.0191  0.3441
 2703TIP3    H129600   2.826   3.877  15.527  0.2770  0.6735  0.8746
 2703TIP3    H229601   2.793   3.986  15.426  0.3291 -0.0020  0.1147
 2704TIP3   OH229602   0.007   0.584   5.061 -0.0309  0.2880  0.0702
 2704TIP3    H129603   0.035   0.649   4.996  0.1568 -1.2968 -1.4805
 2704TIP3    H229604  -0.028   0.637   5.134 -0.0545  2.1133 -1.2047
 2705TIP3   OH229605   0.141   0.521   4.329  0.1304 -0.0237 -0.4430
 2705TIP3    H129606   0.084   0.486   4.398 -0.4858 -0.7637 -1.3089
 2705TIP3    H229607   0.084   0.577   4.277  0.7098  0.9200 -0.0884
 2706TIP3   OH229608   4.055   6.578  11.977 -0.6529 -0.1572 -0.5527
 2706TIP3    H129609   4.004   6.657  11.960 -0.2752 -0.1663 -1.7764
 2706TIP3    H229610   4.069   6.539  11.891  0.7130 -0.5962 -0.1566
 2707TIP3   OH229611   4.525   6.213  12.506 -0.3264 -0.2505 -0.0471
 2707TIP3    H129612   4.564   6.301  12.500  0.6091 -0.7193 -1.3882
 2707TIP3    H229613   4.431   6.228  12.501 -0.1350  0.5517 -2.9195
 2708TIP3   OH229614   2.294   5.461  11.135  0.0998  0.0696  0.0764
 2708TIP3    H129615   2.377   5.445  11.179 -0.3402  0.1750  0.9585
 2708TIP3    H229616   2.252   5.375  11.131  0.2460  0.0163 -0.3701
 2709TIP3   OH229617   2.419   1.851   5.036 -0.0943  0.0760  0.0663
 2709TIP3    H129618   2.344   1.803   5.000  0.6086 -0.0509 -1.2884
 2709TIP3    H229619   2.415   1.835   5.130 -2.7378  1.4261  0.2941
 2710TIP3   OH229620   0.392   0.245   3.311 -0.7054  0.2652 -0.1075
 2710TIP3    H129621   0.429   0.275   3.395  0.3460 -1.3123  0.0411
 2710TIP3    H229622   0.297   0.242   3.326 -0.5695  0.5316  0.8561
 2711TIP3   OH229623   3.361   3.262  14.024 -0.2216  0.3642  0.4045
 2711TIP3    H129624   3.374   3.357  14.020  0.9748  0.1873 -1.3062
 2711TIP3    H229625   3.426   3.231  14.086  0.4572  0.5349 -0.2067
 2712TIP3   OH229626   1.213   4.705  17.135 -0.3308  0.5121  0.4816
 2712TIP3    H129627   1.217   4.707  17.039 -1.8249  1.1425  0.4125
 2712TIP3    H229628   1.175   4.619  17.156  2.8809 -1.0071  0.7024
 2713TIP3   OH229629   1.608   0.453  15.663  0.0998  0.1729  0.1560
 2713TIP3    H129630   1.549   0.403  15.606 -0.0618  0.7189 -0.1665
 2713TIP3    H229631   1.552   0.520  15.703  0.0912 -0.5705  1.4202
 2714TIP3   OH229632   4.715   5.360   3.092  0.3767 -0.0782  0.0055
 2714TIP3    H129633   4.637   5.316   3.125 -0.4305  2.0000  1.1127
 2714TIP3    H229634   4.769   5.291   3.056 -0.6861 -1.9701  1.8193
 2715TIP3   OH229635   2.279   1.648  15.476  0.1335 -0.2394 -1.1388
 2715TIP3    H129636   2.323   1.622  15.557  1.0462 -0.1587 -1.5921
 2715TIP3    H229637   2.335   1.717  15.439 -0.4681 -0.0134 -1.6482
 2716TIP3   OH229638   5.160   1.016   2.560 -0.0980 -0.1910 -0.3587
 2716TIP3    H129639   5.237   1.011   2.503  1.5370  0.3884  1.6869
 2716TIP3    H229640   5.096   0.959   2.518  1.7480 -1.4331 -1.6626
 2717TIP3   OH229641   2.394   4.527   4.652 -0.5290  0.1192  0.3041
 2717TIP3    H129642   2.357   4.439   4.657  0.4647 -0.3426 -0.1870
 2717TIP3    H229643   2.340   4.573   4.588 -0.3390 -0.5081 -0.3143
 2718TIP3   OH229644   3.747   3.733   4.768 -0.7789  0.0975 -0.0333
 2718TIP3    H129645   3.838   3.724   4.739 -0.7213 -1.4552  0.5292
 2718TIP3    H229646   3.699   3.668   4.717 -1.4299  0.3729  0.2217
 2719TIP3   OH229647   3.996   3.895   1.936  0.4356 -0.1659  0.7162
 2719TIP3    H129648   3.995   3.799   1.942  0.0492 -0.1748  0.5312
 2719TIP3    H229649   4.061   3.914   1.868 -1.8182 -0.4422 -1.6479
 2720TIP3   OH229650   0.663   0.316   3.003  0.0418  0.3803 -0.1713
 2720TIP3    H129651   0.686   0.227   3.029 -0.8284  0.6875  1.9002
 2720TIP3    H229652   0.743   0.367   3.019  0.0138  0.2642  0.3578
 2721TIP3   OH229653   4.724   1.650  16.335  0.0106  0.0603  0.2059
 2721TIP3    H129654   4.809   1.653  16.378  0.1349  1.9930 -0.0926
 2721TIP3    H229655   4.666   1.699  16.393 -0.6440 -0.2945 -0.1362
 2722TIP3   OH229656   4.893   1.488  13.220  0.7717 -0.1063  0.1527
 2722TIP3    H129657   4.826   1.506  13.155  0.9011 -0.3407 -0.0492
 2722TIP3    H229658   4.973   1.525  13.183  1.2991 -2.0721 -0.8333
 2723TIP3   OH229659   4.075   0.304   2.132 -0.2586  0.5836  0.3164
 2723TIP3    H129660   4.072   0.326   2.039  1.2237 -2.2490 -0.5394
 2723TIP3    H229661   4.169   0.303   2.153 -0.4150 -1.2439  1.1227
 2724TIP3   OH229662   1.853   0.318  15.737  0.0947  0.3436 -0.0458
 2724TIP3    H129663   1.765   0.351  15.719 -0.4702 -1.2377 -0.3997
 2724TIP3    H229664   1.866   0.249  15.671  1.1089 -0.2587  0.7591
 2725TIP3   OH229665   1.903   4.567   4.874  0.6555  0.6161  0.1541
 2725TIP3    H129666   1.909   4.662   4.865 -1.4508  0.8797  0.7721
 2725TIP3    H229667   1.946   4.532   4.797  0.1150  2.1398 -0.8901
 2726TIP3   OH229668   5.004   2.255  11.851 -0.5714  0.2940 -0.1103
 2726TIP3    H129669   4.912   2.229  11.843 -0.5030 -0.2524  0.7996
 2726TIP3    H229670   5.050   2.174  11.870 -0.1857  0.8748  1.5515
 2727TIP3   OH229671   2.628   6.431   5.900  0.0821  0.0796  0.4021
 2727TIP3    H129672   2.722   6.416   5.892 -0.2749 -2.6367  0.4487
 2727TIP3    H229673   2.605   6.483   5.823  1.4398 -0.1057 -0.1506
 2728TIP3   OH229674   5.763   2.753  13.185  0.4503  0.1347 -0.7600
 2728TIP3    H129675   5.832   2.691  13.207  1.7167  1.1600 -1.6874
 2728TIP3    H229676   5.794   2.837  13.218 -0.2281  0.6696 -1.4341
 2729TIP3   OH229677   1.366   3.287   3.916 -0.5470  0.1321  0.0050
 2729TIP3    H129678   1.344   3.208   3.867 -2.9559  0.8822 -0.2445
 2729TIP3    H229679   1.454   3.271   3.949 -1.1827 -2.8960  0.4711
 2730TIP3   OH229680   2.628   3.383  14.423  0.2931 -0.3683 -0.0662
 2730TIP3    H129681   2.606   3.469  14.459  0.2156 -0.6196  0.5049
 2730TIP3    H229682   2.723   3.377  14.431  0.4727  0.2574 -1.4854
 2731TIP3   OH229683   2.760   4.308   2.831 -0.2686  0.0008 -0.4658
 2731TIP3    H129684   2.774   4.402   2.843 -0.2783  0.1479 -1.5140
 2731TIP3    H229685   2.807   4.268   2.904  0.8942  0.7538 -0.7700
 2732TIP3   OH229686   1.243   0.105   2.488 -0.2714  0.1416  0.2359
 2732TIP3    H129687   1.178   0.046   2.525  0.2647 -0.5710  0.0728
 2732TIP3    H229688   1.310   0.113   2.556  0.5959 -0.9763 -0.4487
 2733TIP3   OH229689   5.848   4.915   4.574 -0.0040  0.1476 -0.4462
 2733TIP3    H129690   5.756   4.931   4.554 -0.7835 -1.7215  1.3093
 2733TIP3    H229691   5.861   4.957   4.660  0.7764  0.3516 -0.6547
 2734TIP3   OH229692   5.469   2.905   6.399  0.1744  0.0909  0.2243
 2734TIP3    H129693   5.485   2.998   6.412  0.0050  0.3326 -1.1696
 2734TIP3    H229694   5.534   2.862   6.455  0.9648  1.0493  0.0752
 2735TIP3   OH229695   1.591   5.489  16.296 -0.2593  0.3465  0.5970
 2735TIP3    H129696   1.521   5.551  16.316 -1.2159 -0.2469 -0.8001
 2735TIP3    H229697   1.630   5.469  16.382 -2.7988 -0.4687  1.6695
 2736TIP3   OH229698   3.192   2.805   5.800 -0.0191 -0.0680  0.8825
 2736TIP3    H129699   3.151   2.767   5.877  1.5753 -0.8536  1.3784
 2736TIP3    H229700   3.171   2.743   5.729 -0.0483 -0.2375  1.0384
 2737TIP3   OH229701   2.456   3.844  17.257 -0.2488 -0.4265 -0.0312
 2737TIP3    H129702   2.435   3.756  17.223  0.0622  0.1471 -1.8018
 2737TIP3    H229703   2.460   3.899  17.179  1.1458  0.8559  0.9034
 2738TIP3   OH229704   3.706   0.688   2.926  0.5918  0.5939  0.5827
 2738TIP3    H129705   3.681   0.660   3.014  0.4580  1.4542  0.8277
 2738TIP3    H229706   3.715   0.606   2.876  0.1723  0.1248  1.2591
 2739TIP3   OH229707   6.035   0.973   1.989 -0.0127  0.6043 -0.0008
 2739TIP3    H129708   5.974   0.900   1.978 -0.4955  1.0376 -0.3073
 2739TIP3    H229709   6.065   0.966   2.080  0.8719 -0.6621 -0.3776
 2740TIP3   OH229710   0.209   2.773  15.442  0.0147  0.3237  0.5415
 2740TIP3    H129711   0.116   2.754  15.433  0.5657 -3.3496  0.8847
 2740TIP3    H229712   0.250   2.687  15.455  3.5756  1.6610 -0.4563
 2741TIP3   OH229713   3.593   2.746  15.992  0.0296 -0.0616 -1.0330
 2741TIP3    H129714   3.568   2.670  15.939  0.1855 -0.8478 -0.0092
 2741TIP3    H229715   3.580   2.821  15.934 -2.7429 -0.5910 -1.2611
 2742TIP3   OH229716   4.058   3.936   0.033 -0.1227 -0.0526 -0.0246
 2742TIP3    H129717   4.096   4.004   0.089 -0.4316  1.2767 -1.3691
 2742TIP3    H229718   4.063   3.972  -0.055 -2.5865 -0.7095 -0.4963
 2743TIP3   OH229719   6.236   0.515   1.636  0.2636  0.1767  0.1203
 2743TIP3    H129720   6.203   0.575   1.703 -1.2399 -0.1881 -0.2578
 2743TIP3    H229721   6.250   0.571   1.560  0.0999  0.2610  0.1519
 2744TIP3   OH229722   6.409   2.505   4.411  0.2443 -0.0192 -0.2570
 2744TIP3    H129723   6.420   2.416   4.378  1.4639  0.1983 -0.4847
 2744TIP3    H229724   6.430   2.500   4.504  1.6414  0.2641 -0.5435
 2745TIP3   OH229725   3.163   1.678   1.815 -0.3377 -0.2466 -0.8293
 2745TIP3    H129726   3.246   1.710   1.782  0.2343 -0.6448  0.1793
 2745TIP3    H229727   3.184   1.640   1.900 -1.1222 -2.5692 -1.5991
 2746TIP3   OH229728   5.750   5.910   0.881 -0.5019 -0.2895 -0.3597
 2746TIP3    H129729   5.709   5.879   0.962  1.1819  2.1175  1.5648
 2746TIP3    H229730   5.820   5.968   0.911  1.8900 -1.2928 -3.5191
 2747TIP3   OH229731   6.119   3.896   0.163  0.4843 -0.4420  0.3618
 2747TIP3    H129732   6.090   3.849   0.242 -0.2022  1.2919  1.2095
 2747TIP3    H229733   6.063   3.862   0.093  0.2542 -1.1214  0.8622
 2748TIP3   OH229734   2.652   1.750   1.237 -0.0826 -0.4179 -0.1176
 2748TIP3    H129735   2.677   1.760   1.145 -1.3416  0.6331 -0.3714
 2748TIP3    H229736   2.730   1.777   1.286  0.2367  0.0738 -0.8765
 2749TIP3   OH229737   2.612   4.261  15.058 -0.5346  0.2672 -0.1545
 2749TIP3    H129738   2.523   4.287  15.031 -1.1131  0.7950  2.0390
 2749TIP3    H229739   2.665   4.340  15.044 -0.9217  0.6776  0.6257
 2750TIP3   OH229740   4.068   1.394  15.464 -0.4141 -0.3331  0.4108
 2750TIP3    H129741   4.120   1.384  15.384 -0.1420 -0.6444  0.6237
 2750TIP3    H229742   4.114   1.340  15.529 -0.2327  0.4777  0.9667
 2751TIP3   OH229743   5.222   5.019  14.806  0.0929  0.1450  0.4614
 2751TIP3    H129744   5.137   5.024  14.849 -0.8315 -0.6786 -1.1858
 2751TIP3    H229745   5.225   5.096  14.749 -0.9440 -1.3713 -1.7946
 2752TIP3   OH229746   4.476   6.274  13.506  0.1284  0.6456 -0.0706
 2752TIP3    H129747   4.389   6.308  13.482  0.3673 -0.2814 -2.5275
 2752TIP3    H229748   4.536   6.321  13.448  0.6395 -2.4746 -2.3001
 2753TIP3   OH229749   2.912   4.967  11.210  0.3736  0.2344 -0.7478
 2753TIP3    H129750   2.954   5.049  11.232  1.1236 -0.6508  1.4138
 2753TIP3    H229751   2.981   4.914  11.170  0.3753  0.0399 -0.4923
 2754TIP3   OH229752   2.834   3.564   3.944  0.2942 -0.5710 -0.4419
 2754TIP3    H129753   2.803   3.475   3.957 -2.3508  0.2882 -0.0596
 2754TIP3    H229754   2.928   3.556   3.932  0.2303 -3.3269  0.2182
 2755TIP3   OH229755   3.732   5.083  11.921 -0.5326 -0.1920 -0.1407
 2755TIP3    H129756   3.771   5.005  11.960  0.3966  0.0634 -0.5455
 2755TIP3    H229757   3.760   5.081  11.830 -0.7805  0.4354 -0.2362
 2756TIP3   OH229758   5.785   5.875  12.342  0.5176 -0.2692 -0.6122
 2756TIP3    H129759   5.859   5.899  12.397  0.9024 -0.4758 -1.0313
 2756TIP3    H229760   5.709   5.912  12.386  0.8197 -0.4310  0.0491
 2757TIP3   OH229761   5.930   4.846  15.192  0.3930 -0.2180  0.0365
 2757TIP3    H129762   5.865   4.887  15.135  1.3468 -0.6759 -1.4288
 2757TIP3    H229763   5.880   4.778  15.239 -0.2664 -0.3373 -0.8031
 2758TIP3   OH229764   2.905   0.327  16.046  0.3234 -0.1105  0.2522
 2758TIP3    H129765   2.964   0.261  16.084  0.9350 -0.0606 -0.5846
 2758TIP3    H229766   2.847   0.351  16.118  1.0492 -0.4818  0.9843
 2759TIP3   OH229767   3.621   2.905   2.446  0.0172 -0.0062 -0.3876
 2759TIP3    H129768   3.600   2.997   2.455  0.2365  0.1145 -1.0899
 2759TIP3    H229769   3.537   2.862   2.430  0.1980  0.4460 -2.9766
 2760TIP3   OH229770   2.129   3.041   6.076  0.0871  0.1631  0.2582
 2760TIP3    H129771   2.159   2.951   6.068 -1.4106 -0.1773 -2.8599
 2760TIP3    H229772   2.034   3.036   6.062  0.3342  2.4546 -3.4596
 2761TIP3   OH229773   6.750   2.444  13.223 -0.4099  0.2015  0.4449
 2761TIP3    H129774   6.802   2.393  13.286 -0.7994  0.9240  1.3691
 2761TIP3    H229775   6.757   2.394  13.141  0.0413 -0.8045  1.0699
 2762TIP3   OH229776   5.751   4.231  11.533 -0.1542 -0.3206  0.3197
 2762TIP3    H129777   5.686   4.251  11.600 -2.5915  0.8604 -2.1714
 2762TIP3    H229778   5.827   4.285  11.555 -1.1818  0.6128  1.6802
 2763TIP3   OH229779   3.537   6.436  16.433  0.0065  0.0866  0.3640
 2763TIP3    H129780   3.626   6.403  16.426  0.0457  0.3628 -0.6323
 2763TIP3    H229781   3.545   6.521  16.475  0.2880  0.4090 -0.3360
 2764TIP3   OH229782   4.836   4.470  15.451  0.1882  0.5319 -0.0745
 2764TIP3    H129783   4.895   4.543  15.433 -1.2863  1.9305  0.4382
 2764TIP3    H229784   4.764   4.510  15.501 -1.6944 -0.8427 -1.5294
 2765TIP3   OH229785   5.156   4.372   5.531  0.1397  0.5898  0.3865
 2765TIP3    H129786   5.177   4.425   5.608 -0.0042 -0.7489  1.3864
 2765TIP3    H229787   5.061   4.360   5.534  0.3192 -0.9712  1.0729
 2766TIP3   OH229788   4.657   2.768  11.367  0.1760 -0.2142  0.1472
 2766TIP3    H129789   4.732   2.754  11.309 -0.5488 -0.9875 -0.6472
 2766TIP3    H229790   4.696   2.779  11.453  1.2331 -0.0979 -0.3182
 2767TIP3   OH229791   2.423   4.205   0.012  0.2456  0.3631 -0.5427
 2767TIP3    H129792   2.392   4.114   0.020 -0.1989  0.3984 -1.6552
 2767TIP3    H229793   2.349   4.252  -0.028 -0.1818  1.6151  1.5538
 2768TIP3   OH229794   4.902   3.861  14.008 -0.7369 -0.2527 -0.1498
 2768TIP3    H129795   4.880   3.799  13.939 -2.0378  0.1874 -0.1571
 2768TIP3    H229796   4.835   3.929  14.002 -0.7647 -0.0940  1.3964
 2769TIP3   OH229797   4.095   5.615  10.385  1.0454  0.3191 -0.5971
 2769TIP3    H129798   4.040   5.587  10.458  1.6590 -0.0021 -0.2475
 2769TIP3    H229799   4.035   5.626  10.311  0.3504  1.0865  0.0665
 2770TIP3   OH229800   6.370   4.073   2.662  0.6386 -0.2346  0.2304
 2770TIP3    H129801   6.422   3.998   2.689  1.2326  0.6490  1.6812
 2770TIP3    H229802   6.413   4.148   2.704 -1.6308  0.5717  1.2839
 2771TIP3   OH229803   3.046   4.689  11.940 -0.2123  0.0867 -0.5636
 2771TIP3    H129804   3.051   4.775  11.897  0.7258  1.0995  1.4096
 2771TIP3    H229805   3.004   4.707  12.024  1.6891 -0.9909  0.7045
 2772TIP3   OH229806   6.094   6.222   0.716 -0.2105 -0.0173 -0.4655
 2772TIP3    H129807   6.057   6.179   0.638  0.3086 -0.5554 -0.4183
 2772TIP3    H229808   6.046   6.305   0.722 -0.5051 -0.1276 -1.1553
 2773TIP3   OH229809   6.503   2.771  15.317 -0.0229  0.0046  0.0129
 2773TIP3    H129810   6.420   2.776  15.270 -0.3673  3.4400  0.7150
 2773TIP3    H229811   6.558   2.839  15.277  0.7013  1.0695  2.5775
 2774TIP3   OH229812   5.257   1.895  15.072  0.7067  0.1631  0.3949
 2774TIP3    H129813   5.304   1.975  15.095  0.0226  0.9196 -0.7026
 2774TIP3    H229814   5.172   1.903  15.115  1.1196 -0.6406  1.4025
 2775TIP3   OH229815   3.198   6.195   6.745 -0.5470  0.7062 -0.1167
 2775TIP3    H129816   3.222   6.118   6.797 -0.5899  1.0391  0.4001
 2775TIP3    H229817   3.104   6.185   6.729 -0.4406  0.3615 -0.5374
 2776TIP3   OH229818   4.397   5.270   2.750  0.0258 -0.7871 -0.2726
 2776TIP3    H129819   4.308   5.236   2.752  0.0060 -0.7225  0.0322
 2776TIP3    H229820   4.445   5.216   2.813  0.0312 -0.3646  0.0985
 2777TIP3   OH229821   3.541   1.758   0.787  0.1676 -0.2463 -0.3483
 2777TIP3    H129822   3.616   1.717   0.830 -0.2162 -0.2033  0.3683
 2777TIP3    H229823   3.498   1.686   0.741 -1.3546 -1.0095  2.1059
 2778TIP3   OH229824   6.770   3.160  14.989 -0.3846  0.0866 -0.1684
 2778TIP3    H129825   6.748   3.150  14.896 -2.1100 -0.3415  0.2422
 2778TIP3    H229826   6.800   3.250  14.997  1.0037 -0.2383 -1.3467
 2779TIP3   OH229827   5.371   4.760  17.036 -0.0574  0.2583  0.2732
 2779TIP3    H129828   5.313   4.761  16.960  1.2941 -0.7598 -0.8271
 2779TIP3    H229829   5.312   4.751  17.111 -1.4004  0.8560 -0.6577
 2780TIP3   OH229830   6.729   0.719   0.062  0.0070 -0.1677 -0.5729
 2780TIP3    H129831   6.761   0.808   0.077  0.6367 -0.4280 -0.3381
 2780TIP3    H229832   6.783   0.686  -0.009 -1.2620  0.1660 -1.7397
 2781TIP3   OH229833   4.630   3.655   2.565 -0.0397 -0.2707  0.0752
 2781TIP3    H129834   4.589   3.686   2.646 -1.2600  1.5750 -1.1792
 2781TIP3    H229835   4.721   3.640   2.590 -0.7944 -1.7702  2.2612
 2782TIP3   OH229836   3.597   1.512   6.377 -0.0274  0.0950 -0.8432
 2782TIP3    H129837   3.652   1.516   6.456  1.5380  2.6803 -1.9545
 2782TIP3    H229838   3.548   1.594   6.377 -2.9287 -1.5005 -0.6804
 2783TIP3   OH229839   4.127   6.249   4.134  0.2753  0.2735  0.2572
 2783TIP3    H129840   4.205   6.237   4.189  0.9916  0.1548 -0.7533
 2783TIP3    H229841   4.148   6.326   4.080  0.4179 -0.7559 -1.2030
 2784TIP3   OH229842   1.735   4.502  12.668 -0.2809 -0.0993  0.0924
 2784TIP3    H129843   1.682   4.581  12.682 -2.3768 -1.4674  0.2999
 2784TIP3    H229844   1.691   4.434  12.719  2.2445 -1.1606  1.0251
 2785TIP3   OH229845   1.403   4.766   2.721 -0.4766  0.0026  0.8439
 2785TIP3    H129846   1.408   4.703   2.793 -1.3431 -2.5971 -1.2171
 2785TIP3    H229847   1.474   4.741   2.662 -2.1943 -0.5739 -1.0959
 2786TIP3   OH229848   2.475   4.571   4.959  0.2426 -0.0431 -0.0309
 2786TIP3    H129849   2.389   4.606   4.937  0.5145  0.4934 -0.2736
 2786TIP3    H229850   2.458   4.481   4.988 -0.2340 -0.5040 -1.6262
 2787TIP3   OH229851   4.725   5.712   3.723  0.1539 -0.4638 -0.3939
 2787TIP3    H129852   4.815   5.682   3.726  1.1529  2.1267 -1.2586
 2787TIP3    H229853   4.727   5.788   3.665 -2.6953 -0.6192 -0.8540
 2788TIP3   OH229854   2.769   0.452  11.372  0.2560  0.6538  0.1431
 2788TIP3    H129855   2.819   0.426  11.450 -0.7928  1.5469  1.1499
 2788TIP3    H229856   2.685   0.481  11.406 -0.0815  1.4663 -1.3010
 2789TIP3   OH229857   2.164   4.037   5.868 -0.2254  0.3481  0.1744
 2789TIP3    H129858   2.219   4.064   5.942  1.1689 -0.2614 -0.6176
 2789TIP3    H229859   2.225   4.025   5.796 -1.3025 -1.0727 -0.5452
 2790TIP3   OH229860   1.789   5.049   5.406  0.7318  0.5019 -0.0743
 2790TIP3    H129861   1.815   4.987   5.474 -1.3614  0.6834  0.9939
 2790TIP3    H229862   1.747   5.120   5.454 -0.0705  1.0337 -1.5060
 2791TIP3   OH229863   3.560   1.217  14.301  0.2716  0.0774  0.0220
 2791TIP3    H129864   3.491   1.267  14.346 -0.0599  0.9413 -1.3645
 2791TIP3    H229865   3.627   1.202  14.368 -1.7611 -1.8851  1.7622
 2792TIP3   OH229866   0.882   5.842  12.261  0.0343  0.2465  0.1006
 2792TIP3    H129867   0.851   5.757  12.230 -0.4261  0.6261 -0.4846
 2792TIP3    H229868   0.976   5.827  12.278  0.1235 -0.1886 -0.6996
 2793TIP3   OH229869   5.093   4.980   0.349  0.2901 -0.0177  0.4951
 2793TIP3    H129870   5.175   5.007   0.307 -0.1542  0.6976  0.0720
 2793TIP3    H229871   5.075   4.893   0.312  0.4259  0.1761 -0.0315
 2794TIP3   OH229872   3.570   1.278  12.543 -0.0181  0.1550  0.3967
 2794TIP3    H129873   3.539   1.332  12.470 -1.0111  1.5753  1.7980
 2794TIP3    H229874   3.510   1.204  12.545 -2.1241  1.7637  1.7016
 2795TIP3   OH229875   6.109   4.606   3.199 -0.0447 -0.0823 -0.3521
 2795TIP3    H129876   6.026   4.623   3.243  0.6766 -0.8494  1.3978
 2795TIP3    H229877   6.155   4.689   3.200 -0.5230  0.1902 -0.7493
 2796TIP3   OH229878   3.963   1.565   4.358  0.3858 -0.4317  0.1838
 2796TIP3    H129879   4.007   1.595   4.437  0.7558  0.8608 -0.4800
 2796TIP3    H229880   4.023   1.500   4.320  1.6802  1.1781 -0.6165
 2797TIP3   OH229881   3.298   2.702  15.019 -0.2378  0.2695  0.3737
 2797TIP3    H129882   3.216   2.670  15.055 -0.5140  0.9168  0.3320
 2797TIP3    H229883   3.318   2.780  15.071 -0.1251  0.6402 -0.2148
 2798TIP3   OH229884   3.743   6.671   3.058  0.4220  0.4450  0.1947
 2798TIP3    H129885   3.826   6.696   3.099  0.6089 -1.1120  0.8014
 2798TIP3    H229886   3.711   6.597   3.109 -1.0124  0.5707 -0.4566
 2799TIP3   OH229887   4.567   3.765  14.955 -0.0691 -0.6561  0.5102
 2799TIP3    H129888   4.509   3.698  14.917 -0.3118 -0.5705  0.7243
 2799TIP3    H229889   4.512   3.844  14.959  0.0143 -0.6132  0.8554
 2800TIP3   OH229890   5.996   1.810   4.799 -0.0301  0.3986  0.5279
 2800TIP3    H129891   5.991   1.892   4.750  0.1561 -0.0818 -0.3248
 2800TIP3    H229892   5.981   1.835   4.890 -2.8186  1.0328  0.0033
 2801TIP3   OH229893   5.225   3.477  14.274 -0.9659  0.1820 -0.3975
 2801TIP3    H129894   5.149   3.535  14.264 -0.8512  0.1922 -1.2221
 2801TIP3    H229895   5.287   3.507  14.209 -0.7515 -0.6264 -0.5693
 2802TIP3   OH229896   5.439   4.316   3.019 -0.1257 -0.3988  0.2577
 2802TIP3    H129897   5.443   4.224   2.993  0.0283 -0.3030 -0.0665
 2802TIP3    H229898   5.406   4.314   3.109  2.0837 -0.9066  1.1239
 2803TIP3   OH229899   1.806   3.530  14.959 -0.4612 -0.6733  0.5404
 2803TIP3    H129900   1.781   3.481  14.881 -0.1724 -0.0249  0.0365
 2803TIP3    H229901   1.738   3.597  14.968  0.0671 -0.0908  0.2450
 2804TIP3   OH229902   0.287   6.273   2.898  0.0002  0.5292  0.1163
 2804TIP3    H129903   0.216   6.257   2.960 -0.7028 -0.4654 -0.9080
 2804TIP3    H229904   0.266   6.219   2.822  0.3521  2.3512 -1.3624
 2805TIP3   OH229905   3.744   5.363  11.899 -0.3064 -0.0863  0.3120
 2805TIP3    H129906   3.826   5.356  11.850  0.0954  0.3831  0.9031
 2805TIP3    H229907   3.726   5.274  11.930 -1.7698 -0.9087 -2.5370
 2806TIP3   OH229908   3.193   6.063  15.908  0.2391 -0.0035 -0.1674
 2806TIP3    H129909   3.201   6.132  15.974 -2.3632  0.7461 -0.5160
 2806TIP3    H229910   3.100   6.039  15.910  0.3591 -0.9582 -2.5725
 2807TIP3   OH229911   5.147   3.239   1.071  0.0782  0.0769 -0.2559
 2807TIP3    H129912   5.171   3.162   1.020 -1.2133 -1.0026  0.7232
 2807TIP3    H229913   5.094   3.292   1.011 -1.8216 -1.4035  0.0301
 2808TIP3   OH229914   6.297   1.197  15.361 -0.5576 -0.4360  0.4207
 2808TIP3    H129915   6.336   1.284  15.350 -1.7358  0.0547 -0.1098
 2808TIP3    H229916   6.302   1.158  15.274 -1.2683 -0.3385  0.3271
 2809TIP3   OH229917   3.134   3.178   1.218  0.5322  0.3818 -0.1381
 2809TIP3    H129918   3.039   3.193   1.222  0.0256 -2.3883  0.1683
 2809TIP3    H229919   3.167   3.218   1.299 -0.6588 -0.1376  0.6465
 2810TIP3   OH229920   0.588   1.873  16.146  0.8588  0.0265 -0.3713
 2810TIP3    H129921   0.515   1.932  16.126  1.8519  1.6291  0.4586
 2810TIP3    H229922   0.549   1.805  16.202 -0.5006 -0.6704 -2.0668
 2811TIP3   OH229923   3.336   4.964   1.253 -0.0729 -0.1029  0.4474
 2811TIP3    H129924   3.320   4.973   1.159 -2.6614 -2.5765  0.5095
 2811TIP3    H229925   3.332   5.053   1.287 -1.9682  0.6272 -1.4366
 2812TIP3   OH229926   4.560   3.272  10.566  0.4254 -0.1820  0.1726
 2812TIP3    H129927   4.585   3.230  10.483 -0.5229  1.7931 -1.1936
 2812TIP3    H229928   4.615   3.351  10.569 -0.5101  0.4541  0.7455
 2813TIP3   OH229929   0.998   0.374   1.023  0.3559  0.0838  0.3768
 2813TIP3    H129930   1.047   0.306   1.070 -1.5190 -0.5027  1.5946
 2813TIP3    H229931   1.010   0.453   1.075  1.2022  0.3079 -0.1456
 2814TIP3   OH229932   1.043   2.525   5.600  0.1145  0.2355  0.1487
 2814TIP3    H129933   1.021   2.463   5.670 -1.2514  0.0317 -0.4176
 2814TIP3    H229934   1.089   2.596   5.645 -2.3664  1.0458  1.6416
 2815TIP3   OH229935   0.683   3.742  12.340  0.2851 -0.2943 -0.0102
 2815TIP3    H129936   0.674   3.687  12.262 -0.6326  0.8418 -0.7508
 2815TIP3    H229937   0.765   3.715  12.380 -0.2159 -2.2894 -0.2526
 2816TIP3   OH229938   4.150   0.501  16.859 -0.0923  0.1404  0.2086
 2816TIP3    H129939   4.218   0.460  16.912  0.0468  1.6054  1.2126
 2816TIP3    H229940   4.121   0.431  16.800 -0.2396 -1.5565  2.1597
 2817TIP3   OH229941   4.980   2.530  11.250 -0.2975  0.3769 -0.6179
 2817TIP3    H129942   5.032   2.521  11.330 -1.3016  1.2753  0.1771
 2817TIP3    H229943   4.920   2.455  11.252  0.1584 -0.0040 -0.9224
 2818TIP3   OH229944   5.277   6.178   1.704 -0.6285  0.2336 -0.0772
 2818TIP3    H129945   5.207   6.242   1.715 -1.1683 -0.5934  1.6734
 2818TIP3    H229946   5.250   6.104   1.758  2.0871  0.3133  1.5582
 2819TIP3   OH229947   2.757   5.218   5.659 -0.0388 -0.0372 -0.0630
 2819TIP3    H129948   2.712   5.157   5.600  2.8748 -0.4541 -2.1163
 2819TIP3    H229949   2.731   5.305   5.629  0.3152 -0.2702 -1.0886
 2820TIP3   OH229950   6.419   4.914  14.842 -0.0844 -0.3813 -0.3858
 2820TIP3    H129951   6.396   4.841  14.785 -0.4553 -0.6606  0.1131
 2820TIP3    H229952   6.364   4.986  14.812 -1.4258 -0.9535  0.5878
 2821TIP3   OH229953   5.706   5.979  17.185  0.0240 -0.4260 -0.1338
 2821TIP3    H129954   5.717   5.896  17.231 -1.6261 -0.5935 -0.0025
 2821TIP3    H229955   5.656   5.957  17.106 -0.0482  0.3668 -0.3235
 2822TIP3   OH229956   2.075   1.049   0.972 -0.1684  0.1901 -0.7225
 2822TIP3    H129957   2.027   1.068   0.892  0.0642  0.2544 -0.8495
 2822TIP3    H229958   2.115   0.963   0.957 -0.7647 -0.1559 -0.3657
 2823TIP3   OH229959   2.699   1.571  12.072  0.3296  0.0139  0.0049
 2823TIP3    H129960   2.635   1.597  12.005  0.4358 -1.0326 -0.5102
 2823TIP3    H229961   2.742   1.494  12.036  0.0409 -0.8843  1.4831
 2824TIP3   OH229962   1.347   3.922   3.115  0.3034  0.4356  0.1633
 2824TIP3    H129963   1.395   3.857   3.064 -2.3627 -0.3581 -1.6050
 2824TIP3    H229964   1.305   3.872   3.185  0.8647  0.8410  0.7930
 2825TIP3   OH229965   5.250   4.452   1.340  0.1652  0.3047 -0.1029
 2825TIP3    H129966   5.302   4.452   1.259  0.3971  0.5496  0.0452
 2825TIP3    H229967   5.209   4.539   1.342  0.7847  0.5932  0.4388
 2826TIP3   OH229968   6.427   5.618  12.494 -0.9174  0.5638 -0.7085
 2826TIP3    H129969   6.333   5.627  12.505 -0.8598  2.5307 -1.5278
 2826TIP3    H229970   6.444   5.646  12.405  0.6575  2.1517  0.0284
 2827TIP3   OH229971   3.105   1.090  14.007  0.2435  0.0759  0.0217
 2827TIP3    H129972   3.162   1.106  13.931  1.1124  0.0120  0.6423
 2827TIP3    H229973   3.046   1.166  14.008 -0.5262 -0.4549 -1.3473
 2828TIP3   OH229974   4.068   0.602   4.079  0.2641  0.0072 -0.7821
 2828TIP3    H129975   4.157   0.581   4.052  0.4618  0.3911 -0.4368
 2828TIP3    H229976   4.016   0.596   3.999  0.3974 -1.2775 -0.8022
 2829TIP3   OH229977   2.369   2.672  12.119  0.1987  0.0136 -0.7413
 2829TIP3    H129978   2.339   2.763  12.110  0.0695 -0.0403 -0.8585
 2829TIP3    H229979   2.440   2.664  12.056  0.0278 -0.0458 -0.9257
 2830TIP3   OH229980   3.095   0.027  16.725 -0.2673 -0.3104 -0.0467
 2830TIP3    H129981   3.069  -0.058  16.688 -0.0559 -0.2530 -0.3279
 2830TIP3    H229982   3.152   0.005  16.798  0.9239 -0.3946 -0.9665
 2831TIP3   OH229983   0.686   2.547  15.109  0.0059  0.5456 -0.2208
 2831TIP3    H129984   0.740   2.614  15.151 -0.1490  2.1099 -2.3240
 2831TIP3    H229985   0.617   2.529  15.172  0.2242  2.1893  0.5419
 2832TIP3   OH229986   1.187   2.636  14.236 -0.3186  0.1104  0.2070
 2832TIP3    H129987   1.216   2.573  14.303 -0.9078  0.1817  0.5344
 2832TIP3    H229988   1.097   2.611  14.216 -0.0217 -0.1627 -0.8722
 2833TIP3   OH229989   0.518   3.366  15.743  0.2999 -0.2297 -0.6315
 2833TIP3    H129990   0.511   3.272  15.759  0.0677 -0.3264 -1.2667
 2833TIP3    H229991   0.605   3.377  15.705  0.8421 -0.0047  0.6380
 2834TIP3   OH229992   3.490   6.227  16.150  0.4614  0.1676  0.4614
 2834TIP3    H129993   3.570   6.185  16.184  0.0323  0.3419  1.7146
 2834TIP3    H229994   3.421   6.199  16.210 -0.9144 -1.8793 -1.8902
 2835TIP3   OH229995   1.271   2.262   4.846 -0.4077  0.0572  1.1822
 2835TIP3    H129996   1.270   2.304   4.932  0.6348  2.1612  0.2461
 2835TIP3    H229997   1.360   2.277   4.813 -0.9159 -0.2938 -0.4404
 2836TIP3   OH229998   0.986   2.405  11.555 -0.2834  0.3498 -0.3051
 2836TIP3    H129999   0.923   2.477  11.547 -0.9974  0.4458  3.9242
 2836TIP3    H230000   0.933   2.326  11.542  0.1240  0.4171 -2.9892
 2837TIP3   OH230001   0.839   0.029   3.549  0.1353  0.2611 -0.4406
 2837TIP3    H130002   0.791   0.094   3.600 -0.3587 -2.3727  2.8238
 2837TIP3    H230003   0.840  -0.049   3.604  1.5891 -2.2391 -3.6378
 2838TIP3   OH230004   3.693   2.123  12.963 -0.3385  0.2772 -0.2440
 2838TIP3    H130005   3.725   2.160  13.045  1.0632 -0.7204 -0.2986
 2838TIP3    H230006   3.598   2.130  12.968 -0.4028 -1.3249  2.2299
 2839TIP3   OH230007   2.522   6.751  17.131 -0.3523  0.0444 -0.1977
 2839TIP3    H130008   2.580   6.788  17.197 -1.0086 -0.3608  0.6219
 2839TIP3    H230009   2.509   6.822  17.068 -1.2911  1.1098  1.1473
 2840TIP3   OH230010   0.607   6.052  15.504 -0.0082 -0.0968 -0.3075
 2840TIP3    H130011   0.642   5.963  15.502 -0.3009 -0.2107 -0.3984
 2840TIP3    H230012   0.605   6.075  15.597  2.7417  0.8874 -0.4016
 2841TIP3   OH230013   6.039   1.009  13.832  0.0747  0.6369 -0.1601
 2841TIP3    H130014   6.083   0.930  13.800 -0.2724  0.5376 -0.4065
 2841TIP3    H230015   6.080   1.027  13.916 -1.0198 -0.8098  0.7236
 2842TIP3   OH230016   3.826   2.758  12.576 -0.4978  0.4358 -0.7930
 2842TIP3    H130017   3.856   2.849  12.585 -0.0318  0.2825 -0.7377
 2842TIP3    H230018   3.733   2.765  12.558 -0.4985  0.9220 -0.6239
 2843TIP3   OH230019   3.963   5.342   0.181 -0.9890  0.0679  0.2270
 2843TIP3    H130020   3.952   5.268   0.241 -1.1812 -0.2770 -0.2259
 2843TIP3    H230021   3.874   5.376   0.168 -1.1208 -0.5661 -0.7294
 2844TIP3   OH230022   6.392   3.013  13.119  0.1376 -0.2951  0.1359
 2844TIP3    H130023   6.416   3.013  13.027  0.8736  0.6084  0.3173
 2844TIP3    H230024   6.365   3.103  13.137 -1.0176 -0.7028  0.5555
 2845TIP3   OH230025   3.694   0.976   4.509  0.1096 -0.0292  0.1324
 2845TIP3    H130026   3.782   0.986   4.472  0.2889 -0.2785  0.4867
 2845TIP3    H230027   3.704   0.909   4.577 -0.5560 -0.7779 -0.4986
 2846TIP3   OH230028   3.873   3.043   5.161  0.0396  0.1714 -0.1229
 2846TIP3    H130029   3.867   3.136   5.182  0.9206 -0.1958  1.9851
 2846TIP3    H230030   3.792   3.024   5.114 -1.5960  1.3745  2.0382
 2847TIP3   OH230031   4.065   2.465  11.039  0.1021  0.9242  0.2218
 2847TIP3    H130032   4.137   2.406  11.017 -0.4505  0.1011  0.5772
 2847TIP3    H230033   4.081   2.543  10.985 -0.3221 -0.3933 -1.9210
 2848TIP3   OH230034   5.819   1.887  16.590  0.4535 -0.4280  0.0367
 2848TIP3    H130035   5.730   1.909  16.619  0.2293 -1.0344 -0.1900
 2848TIP3    H230036   5.874   1.956  16.628  0.0842 -0.8463  1.3580
 2849TIP3   OH230037   3.171   5.642   0.573 -0.2857 -0.4553  0.5242
 2849TIP3    H130038   3.107   5.588   0.620 -1.4583  0.3626 -0.0822
 2849TIP3    H230039   3.119   5.692   0.510  0.9342  0.4121  0.1621
 2850TIP3   OH230040   5.383   4.443  15.373  0.0425  0.2943  0.2507
 2850TIP3    H130041   5.409   4.487  15.454  1.3254  0.5743 -0.2853
 2850TIP3    H230042   5.411   4.352  15.386  1.3433  0.5835 -0.3030
 2851TIP3   OH230043   2.481   0.917   5.711  0.2408 -0.3221 -0.2652
 2851TIP3    H130044   2.541   0.937   5.783  0.1279  1.1959 -0.5453
 2851TIP3    H230045   2.485   0.995   5.655 -0.8112 -0.8464 -1.1053
 2852TIP3   OH230046   3.762   1.789  15.238 -0.1583 -0.1491  0.3695
 2852TIP3    H130047   3.754   1.855  15.307  1.4945 -0.1829  0.6405
 2852TIP3    H230048   3.801   1.713  15.283  0.9107 -0.1828 -0.5866
 2853TIP3   OH230049   2.218   1.353   3.646  0.4034 -0.4731  0.5602
 2853TIP3    H130050   2.250   1.267   3.673  0.5279 -0.9994 -1.1543
 2853TIP3    H230051   2.164   1.335   3.569 -0.3488  0.8922  0.7463
 2854TIP3   OH230052   4.943   4.615  16.806  0.4151 -0.8617 -0.2760
 2854TIP3    H130053   4.873   4.669  16.770  0.7761 -0.6463 -0.6680
 2854TIP3    H230054   4.935   4.624  16.901  0.1322 -0.5551 -0.3307
 2855TIP3   OH230055   6.389   6.422  15.513  0.0333 -0.0249 -0.0965
 2855TIP3    H130056   6.344   6.373  15.582  0.0826  1.7591  1.2513
 2855TIP3    H230057   6.434   6.354  15.462 -0.7181 -1.4733  1.0793
 2856TIP3   OH230058   4.944   2.922   1.312 -0.1786 -0.4740 -0.5640
 2856TIP3    H130059   5.011   2.891   1.252  1.5557  0.3721  0.8375
 2856TIP3    H230060   4.902   2.842   1.345 -0.3314 -0.9833 -1.9398
 2857TIP3   OH230061   0.386   1.187  12.659  0.0628 -0.4472  0.1670
 2857TIP3    H130062   0.466   1.209  12.611  0.5389  0.2612  1.2388
 2857TIP3    H230063   0.316   1.231  12.611  0.4831 -0.0093 -0.0483
 2858TIP3   OH230064   2.015   6.297  11.484 -0.3815  0.4845 -0.0499
 2858TIP3    H130065   2.015   6.201  11.490 -0.6481  0.4411 -0.6664
 2858TIP3    H230066   2.045   6.326  11.570 -2.2363 -0.0956  0.8466
 2859TIP3   OH230067   4.085   5.216  11.372 -0.0476 -0.2291 -0.6552
 2859TIP3    H130068   4.127   5.164  11.440  1.7165  0.5966 -1.0263
 2859TIP3    H230069   4.003   5.246  11.411 -0.8979 -2.7950 -0.2673
 2860TIP3   OH230070   1.141   0.041   3.171  0.7500  0.3639  0.1181
 2860TIP3    H130071   1.113   0.124   3.134 -0.9094 -0.5276 -0.7161
 2860TIP3    H230072   1.106   0.040   3.260 -1.0229 -0.2617 -0.5445
 2861TIP3   OH230073   5.992   2.161  13.909 -0.7803  0.3411  0.4890
 2861TIP3    H130074   5.965   2.247  13.878 -2.4065 -0.7521 -1.3701
 2861TIP3    H230075   6.076   2.146  13.866 -1.3413  0.3155 -0.6660
 2862TIP3   OH230076   6.231   4.280   5.398 -0.2924 -0.1838 -0.5045
 2862TIP3    H130077   6.312   4.317   5.363  0.8280 -1.8080  0.2131
 2862TIP3    H230078   6.181   4.355   5.429  0.7369  0.8930 -1.3680
 2863TIP3   OH230079   1.577   4.748  15.541  0.0478 -0.0637 -0.0713
 2863TIP3    H130080   1.654   4.741  15.599 -0.0242  0.1421  0.0502
 2863TIP3    H230081   1.513   4.796  15.593 -0.5893 -1.2251  0.2717
 2864TIP3   OH230082   5.346   4.947  13.212 -0.4409 -0.1823  0.1862
 2864TIP3    H130083   5.390   5.019  13.168 -0.3245 -0.3436  0.0357
 2864TIP3    H230084   5.387   4.868  13.176 -0.5697 -0.3232  0.3447
 2865TIP3   OH230085   3.129   2.998  11.987 -0.2169  0.1440 -0.2800
 2865TIP3    H130086   3.110   2.966  11.898 -0.4265  1.9312 -0.9291
 2865TIP3    H230087   3.097   2.929  12.045 -1.3877 -0.4514 -1.5670
 2866TIP3   OH230088   1.402   4.031  11.388 -0.2941  0.3778  0.2783
 2866TIP3    H130089   1.422   4.123  11.370  0.9339  0.3263  1.2874
 2866TIP3    H230090   1.358   4.001  11.309  0.0784  1.5983 -0.4224
 2867TIP3   OH230091   2.797   0.202   0.584  0.3394  0.3611 -0.4657
 2867TIP3    H130092   2.795   0.163   0.497 -0.4722  3.0041 -1.7136
 2867TIP3    H230093   2.732   0.152   0.634 -1.4278  0.7490 -2.2865
 2868TIP3   OH230094   4.659   0.857   1.373  0.2066 -0.3556 -0.2905
 2868TIP3    H130095   4.625   0.849   1.283 -2.0700 -2.5931  0.6283
 2868TIP3    H230096   4.625   0.941   1.404 -2.5939 -1.3554 -0.3003
 2869TIP3   OH230097   4.204   1.680  11.295 -0.3483  0.2435 -0.4699
 2869TIP3    H130098   4.240   1.628  11.367 -1.1201 -2.2465 -1.7446
 2869TIP3    H230099   4.279   1.725  11.258  0.4603 -0.3419  0.4019
 2870TIP3   OH230100   6.287   0.020  13.854 -0.7617 -0.8284 -0.4413
 2870TIP3    H130101   6.248   0.082  13.793 -0.4012  2.8675  2.6511
 2870TIP3    H230102   6.379   0.046  13.860 -0.5765 -1.6709  0.9729
 2871TIP3   OH230103   4.659   6.028  11.797 -0.2730 -0.2961 -0.3430
 2871TIP3    H130104   4.653   6.065  11.886  2.8797  2.6617 -1.1520
 2871TIP3    H230105   4.593   6.075  11.747  0.1844  0.4810 -0.2330
 2872TIP3   OH230106   2.817   6.797  10.572  0.0825 -0.1260  0.2492
 2872TIP3    H130107   2.759   6.721  10.584  0.1180 -0.1245  0.4391
 2872TIP3    H230108   2.801   6.825  10.482 -0.6784  0.2635  0.4989
 2873TIP3   OH230109   5.690   6.653  12.573 -0.2150 -0.1543  0.0412
 2873TIP3    H130110   5.689   6.744  12.544  1.3477 -0.0086  0.3371
 2873TIP3    H230111   5.609   6.642  12.622 -0.1550  1.2465  0.4882
 2874TIP3   OH230112   3.772   4.727  17.271 -1.2129  0.1315 -0.1383
 2874TIP3    H130113   3.709   4.656  17.274 -0.7036 -0.3107  1.1144
 2874TIP3    H230114   3.720   4.806  17.279 -1.8021 -0.0700 -1.7518
 2875TIP3   OH230115   6.323   4.894  12.338 -0.3494 -0.0266  0.4638
 2875TIP3    H130116   6.367   4.809  12.332  0.0092  0.1873  0.0064
 2875TIP3    H230117   6.239   4.875  12.380 -1.6107 -1.1154 -2.3017
 2876TIP3   OH230118   6.777   4.771   2.987  0.5827  0.4529  0.3155
 2876TIP3    H130119   6.860   4.725   3.000  0.3258  0.4903  2.4672
 2876TIP3    H230120   6.798   4.841   2.924  1.1182 -2.0820 -2.5870
 2877TIP3   OH230121   3.695   4.189  15.282  0.0531 -0.3357 -0.2113
 2877TIP3    H130122   3.767   4.236  15.322 -0.2724  0.9244 -1.0351
 2877TIP3    H230123   3.720   4.097  15.287  1.3650  0.0250  0.1762
 2878TIP3   OH230124   3.502   0.138   2.900  0.3289 -0.6508  0.6069
 2878TIP3    H130125   3.491   0.138   2.995  0.3796 -1.1631  0.6170
 2878TIP3    H230126   3.595   0.116   2.887  1.4329  3.2929  0.5233
 2879TIP3   OH230127   0.507   4.990  14.594  0.0602 -0.4898  0.2909
 2879TIP3    H130128   0.559   4.929  14.541  1.2434 -0.1234  0.9883
 2879TIP3    H230129   0.465   5.047  14.530  2.3160  0.6397 -0.3127
 2880TIP3   OH230130   2.994   1.297  13.338  0.7191 -0.0733 -0.4021
 2880TIP3    H130131   2.953   1.211  13.334  0.6581 -0.0068 -3.9305
 2880TIP3    H230132   2.920   1.359  13.334  0.8991  0.1020 -1.0532
 2881TIP3   OH230133   6.350   2.438  10.492  0.4381  0.3575  0.5082
 2881TIP3    H130134   6.261   2.474  10.490  0.1553 -0.3036  1.0036
 2881TIP3    H230135   6.347   2.364  10.431  0.0683 -0.9561  2.0716
 2882TIP3   OH230136   1.806   4.566  17.212  0.6562  0.0046 -0.4407
 2882TIP3    H130137   1.801   4.632  17.143  1.0949 -1.3622 -1.8367
 2882TIP3    H230138   1.795   4.615  17.293  1.1775  1.8172 -1.4124
 2883TIP3   OH230139   0.373   3.061  13.185  0.0736 -0.2358 -0.4579
 2883TIP3    H130140   0.369   3.106  13.269 -0.4236 -0.7819 -0.1854
 2883TIP3    H230141   0.445   3.104  13.139 -0.3264  0.7742 -0.1693
 2884TIP3   OH230142   4.103   0.296  11.487  0.1121  0.2914 -0.2494
 2884TIP3    H130143   4.073   0.380  11.453 -2.2245  0.3834  1.7869
 2884TIP3    H230144   4.161   0.319  11.559 -2.2731  0.3465  1.8065
 2885TIP3   OH230145   5.699   2.485   4.019  0.3867 -0.0343  0.0175
 2885TIP3    H130146   5.749   2.546   3.964  1.6167 -1.4084 -0.4570
 2885TIP3    H230147   5.712   2.400   3.978 -2.1037 -0.5196  0.1097
 2886TIP3   OH230148   6.753   1.298   5.683 -0.4743  0.1929 -0.1585
 2886TIP3    H130149   6.848   1.305   5.671 -0.4766  0.2299 -0.1534
 2886TIP3    H230150   6.740   1.212   5.724 -0.3232  0.7992  1.2113
 2887TIP3   OH230151   0.581   0.830   6.156 -0.2746 -0.1455 -0.0896
 2887TIP3    H130152   0.491   0.797   6.153  0.2042 -1.5799  0.4589
 2887TIP3    H230153   0.608   0.818   6.247  0.0422  1.5394  0.0693
 2888TIP3   OH230154   4.973   3.738   2.511 -0.0989 -1.0492 -0.0355
 2888TIP3    H130155   4.968   3.790   2.591 -1.1312  0.3462 -0.9714
 2888TIP3    H230156   4.961   3.648   2.540 -1.8087 -0.4450  1.2551
 2889TIP3   OH230157   6.336   5.783   1.655 -0.6980 -0.0294  0.1200
 2889TIP3    H130158   6.414   5.734   1.630  0.1923  0.8273  1.1164
 2889TIP3    H230159   6.263   5.723   1.638  0.2772 -1.3764  0.5250
 2890TIP3   OH230160   3.887   3.789   5.675  0.2929 -0.4986 -0.4024
 2890TIP3    H130161   3.919   3.853   5.738  1.1829  0.1644 -1.4922
 2890TIP3    H230162   3.891   3.705   5.721  1.7315 -0.1483  0.1583
 2891TIP3   OH230163   4.827   3.365  11.283 -0.4916 -0.1121  0.5703
 2891TIP3    H130164   4.857   3.455  11.296  0.6309  0.0841 -2.4627
 2891TIP3    H230165   4.731   3.372  11.282 -0.4989  0.6023  2.6469
 2892TIP3   OH230166   3.029   6.646  16.565 -0.4082  0.1788 -0.0322
 2892TIP3    H130167   3.048   6.648  16.471 -0.5012 -0.1852 -0.0608
 2892TIP3    H230168   2.952   6.590  16.573 -1.0394  1.0550  0.1575
 2893TIP3   OH230169   5.350   2.620   1.214 -0.2404  0.2925  0.2147
 2893TIP3    H130170   5.414   2.691   1.211  0.4501 -0.3114  0.3677
 2893TIP3    H230171   5.321   2.618   1.305 -0.5833  0.6551  0.1156
 2894TIP3   OH230172   5.208   0.693   3.699  0.4890  0.5993  0.1540
 2894TIP3    H130173   5.290   0.738   3.680  1.1335 -0.6848 -0.2255
 2894TIP3    H230174   5.156   0.704   3.620  0.7168  0.5192 -0.0074
 2895TIP3   OH230175   5.957   6.088   3.389 -0.3480  0.2279 -0.3880
 2895TIP3    H130176   5.960   6.008   3.442 -0.9492  0.3889 -0.0886
 2895TIP3    H230177   6.035   6.137   3.415  0.3800 -0.5438 -1.0563
 2896TIP3   OH230178   5.269   4.092   5.775  0.5960  0.1998  0.2013
 2896TIP3    H130179   5.342   4.107   5.835  0.0913  0.4365  0.7589
 2896TIP3    H230180   5.199   4.149   5.807  0.5622  0.8914 -1.0392
 2897TIP3   OH230181   2.604   1.220   1.263  0.1115  0.7239 -0.1108
 2897TIP3    H130182   2.645   1.226   1.350  0.9086  2.6451 -0.5562
 2897TIP3    H230183   2.549   1.298   1.257  0.7340  1.0887 -1.6374
 2898TIP3   OH230184   0.384   0.450   4.492 -0.1892 -0.0980 -0.8242
 2898TIP3    H130185   0.385   0.408   4.578  0.0095  3.2408  0.9719
 2898TIP3    H230186   0.293   0.477   4.480 -0.1250 -0.1544 -1.4465
 2899TIP3   OH230187   1.451   1.332   2.372 -0.2191  0.8745 -0.8537
 2899TIP3    H130188   1.420   1.330   2.463  2.7429 -1.1929  0.2625
 2899TIP3    H230189   1.451   1.425   2.348  1.3770  1.8121  2.2481
 2900TIP3   OH230190   2.961   3.095   1.691 -0.4670 -0.6063 -0.0009
 2900TIP3    H130191   2.866   3.092   1.677 -0.5544  0.7425  0.2072
 2900TIP3    H230192   2.995   3.026   1.634 -1.3733  0.4358 -1.8682
 2901TIP3   OH230193   3.614   2.389  12.791 -0.2852 -0.1653 -0.0058
 2901TIP3    H130194   3.536   2.336  12.804 -0.0984 -0.0453  1.9057
 2901TIP3    H230195   3.608   2.420  12.700 -1.5402 -1.5801 -0.4354
 2902TIP3   OH230196   5.507   1.775  11.184 -0.4311 -0.0319  0.3360
 2902TIP3    H130197   5.432   1.749  11.236  1.1061 -1.0248  2.1775
 2902TIP3    H230198   5.528   1.697  11.133 -0.5788  0.2153 -0.1094
 2903TIP3   OH230199   3.288   1.451   2.808 -0.4184 -0.3359 -0.5584
 2903TIP3    H130200   3.273   1.374   2.863 -0.5974  1.1988  1.6740
 2903TIP3    H230201   3.207   1.460   2.757 -1.5087 -0.1336  1.1320
 2904TIP3   OH230202   0.729   2.117  13.879 -0.6533 -0.2604  0.1851
 2904TIP3    H130203   0.754   2.171  13.804 -0.4641  1.8225  1.6532
 2904TIP3    H230204   0.811   2.087  13.916 -0.7195 -0.7827 -0.0902
 2905TIP3   OH230205   5.746   6.675  16.988 -0.1190  0.2851  0.3579
 2905TIP3    H130206   5.814   6.718  16.937 -0.9292 -0.1885 -1.1898
 2905TIP3    H230207   5.744   6.722  17.071  0.5200  1.7790 -0.4480
 2906TIP3   OH230208   2.040   5.958   4.760 -0.9567 -0.4396  0.2750
 2906TIP3    H130209   2.014   6.011   4.835  0.3735  0.1876  0.3276
 2906TIP3    H230210   2.055   6.022   4.689  3.9927 -0.1281  1.2318
 2907TIP3   OH230211   2.257   3.716  12.829 -0.1926 -0.0241 -0.7572
 2907TIP3    H130212   2.180   3.727  12.884  0.4956 -1.5725  0.5689
 2907TIP3    H230213   2.239   3.770  12.752 -2.1662  0.3967 -0.0492
 2908TIP3   OH230214   5.318   0.026  11.341  0.0415  0.2445  0.3743
 2908TIP3    H130215   5.332   0.100  11.400  0.8194 -0.4754  1.1194
 2908TIP3    H230216   5.402   0.016  11.295 -0.1484 -0.0039  0.0818
 2909TIP3   OH230217   1.871   1.607  15.734 -0.0791 -0.4446 -0.2687
 2909TIP3    H130218   1.875   1.686  15.787  2.1228 -1.3505  1.0033
 2909TIP3    H230219   1.896   1.636  15.646  1.9227  0.1289  0.4349
 2910TIP3   OH230220   1.856   4.300  13.160 -0.5957  0.1253 -0.1983
 2910TIP3    H130221   1.834   4.391  13.141 -0.4422  0.0927 -0.5259
 2910TIP3    H230222   1.850   4.293  13.256  0.9311  0.8785 -0.0274
 2911TIP3   OH230223   4.799   1.557  14.503  0.2227  0.1205  0.2711
 2911TIP3    H130224   4.732   1.563  14.571  0.2578  0.0840  0.3087
 2911TIP3    H230225   4.881   1.575  14.549  0.0822  1.8620 -0.0785
 2912TIP3   OH230226   3.656   2.315   3.185  0.3708 -0.1546 -0.4457
 2912TIP3    H130227   3.622   2.296   3.272  1.0520  0.3021 -0.0681
 2912TIP3    H230228   3.709   2.238   3.163  3.1168  1.1420  1.0766
 2913TIP3   OH230229   3.661   3.966   3.177  0.0462 -0.2383  0.1684
 2913TIP3    H130230   3.678   3.872   3.169 -0.5367 -0.5356  1.8974
 2913TIP3    H230231   3.660   3.998   3.087 -0.9259 -2.1059 -0.5574
 2914TIP3   OH230232   3.259   6.764   0.297 -0.1837 -0.5008  0.8761
 2914TIP3    H130233   3.353   6.750   0.286 -0.4191 -1.6724  0.0920
 2914TIP3    H230234   3.242   6.849   0.256  0.2679 -1.1384 -0.7114
 2915TIP3   OH230235   5.853   0.869   1.766 -0.0877 -0.4468  0.5250
 2915TIP3    H130236   5.910   0.818   1.708 -0.0522 -0.5910  0.6863
 2915TIP3    H230237   5.778   0.810   1.782 -1.1983  0.4078 -1.1794
 2916TIP3   OH230238   0.082   5.328   0.677 -0.0132 -0.0343 -0.4103
 2916TIP3    H130239   0.152   5.288   0.626 -0.3842 -0.4450 -0.6042
 2916TIP3    H230240   0.125   5.398   0.726  0.9411 -1.4630  0.9173
 2917TIP3   OH230241   2.455   5.916   1.694 -0.8903  0.1917  0.3820
 2917TIP3    H130242   2.453   5.822   1.706 -1.9856  0.1018 -0.4015
 2917TIP3    H230243   2.549   5.938   1.688 -0.6427 -1.1720 -1.8272
 2918TIP3   OH230244   1.588   3.573  11.683 -0.3869  0.1261 -0.0281
 2918TIP3    H130245   1.623   3.573  11.772 -1.1747  2.5342  0.3704
 2918TIP3    H230246   1.651   3.522  11.632  0.3106 -0.9272  1.8124
 2919TIP3   OH230247   6.639   1.526   6.164  0.3906 -0.0981  0.0866
 2919TIP3    H130248   6.579   1.526   6.089  0.2094 -2.4321  0.1599
 2919TIP3    H230249   6.675   1.614   6.166 -1.8102  0.8944 -0.9615
 2920TIP3   OH230250   2.893   3.038   2.852  0.1062 -0.2072  0.0570
 2920TIP3    H130251   2.901   2.958   2.904 -0.1508 -0.9491 -1.0086
 2920TIP3    H230252   2.801   3.063   2.861  0.0997 -0.2433  0.0935
 2921TIP3   OH230253   3.145   0.773  14.060  0.2199  0.2626  0.0612
 2921TIP3    H130254   3.218   0.835  14.052 -0.8113  1.4372 -0.6003
 2921TIP3    H230255   3.141   0.729  13.975  0.7247 -0.4940  0.4122
 2922TIP3   OH230256   2.163   6.124  13.781  0.0480  0.1426 -0.3283
 2922TIP3    H130257   2.108   6.198  13.805  1.5384  0.6404  1.7998
 2922TIP3    H230258   2.182   6.137  13.688 -0.7527  1.7258 -0.2967
 2923TIP3   OH230259   3.033   5.660  12.876 -0.2223  0.1922 -0.6388
 2923TIP3    H130260   3.093   5.585  12.879  0.1834  0.5318  0.1824
 2923TIP3    H230261   2.947   5.621  12.864 -0.1295 -0.4897  0.7175
 2924TIP3   OH230262   4.845   5.423   5.339 -0.4367  0.2454  0.1818
 2924TIP3    H130263   4.877   5.423   5.429  0.6889  1.0027 -0.1991
 2924TIP3    H230264   4.786   5.347   5.334 -0.5238  0.2111  1.5483
 2925TIP3   OH230265   6.176   5.456   3.417  0.5564  0.2575 -0.4304
 2925TIP3    H130266   6.110   5.392   3.391  0.0695  0.4693  0.2502
 2925TIP3    H230267   6.258   5.406   3.420  0.1137 -0.4583  0.5308
 2926TIP3   OH230268   2.406   4.948   4.269  0.1707  0.0280 -0.0001
 2926TIP3    H130269   2.442   4.860   4.279 -1.7251 -0.9042 -0.7576
 2926TIP3    H230270   2.442   4.980   4.187 -0.2668 -0.6810 -0.4860
 2927TIP3   OH230271   0.237   0.574  14.924  0.4226 -0.3281 -0.3952
 2927TIP3    H130272   0.151   0.534  14.922 -0.1498  0.8997 -1.9896
 2927TIP3    H230273   0.297   0.502  14.944 -0.9131 -1.2453  0.4491
 2928TIP3   OH230274   2.081   1.682  10.768  0.1221  0.3538 -0.4824
 2928TIP3    H130275   2.157   1.701  10.714 -0.4920  0.2440 -1.3971
 2928TIP3    H230276   2.051   1.596  10.739 -0.3398  0.3831 -0.1117
 2929TIP3   OH230277   5.441   5.663  11.551 -0.2435 -0.4040 -0.2802
 2929TIP3    H130278   5.503   5.594  11.572 -0.5854  0.0609  2.6424
 2929TIP3    H230279   5.416   5.646  11.460 -0.0093 -3.8655  0.1683
 2930TIP3   OH230280   2.479   5.601   2.506 -0.1280 -0.2771  0.1312
 2930TIP3    H130281   2.413   5.552   2.457 -0.5938  0.4908 -0.0148
 2930TIP3    H230282   2.557   5.599   2.450 -0.2965 -0.4068 -0.1018
 2931TIP3   OH230283   4.150   4.029  11.404  0.5004 -0.2933  0.6690
 2931TIP3    H130284   4.105   3.961  11.455 -1.4527 -1.0752 -1.8887
 2931TIP3    H230285   4.084   4.097  11.392  1.2919  0.4042  0.1534
 2932TIP3   OH230286   3.167   6.273   0.905  0.0448 -0.0284 -0.4973
 2932TIP3    H130287   3.176   6.353   0.854 -1.6144  0.2185 -0.4383
 2932TIP3    H230288   3.171   6.301   0.996 -0.1958 -0.0525 -0.4785
 2933TIP3   OH230289   3.184   2.689   1.210  0.0675  0.1996  0.0785
 2933TIP3    H130290   3.131   2.610   1.222 -0.7204  0.4381 -1.5521
 2933TIP3    H230291   3.217   2.709   1.298 -1.6850 -0.5478  0.9628
 2934TIP3   OH230292   3.545   3.365  10.938 -0.0603  0.0345 -0.1461
 2934TIP3    H130293   3.640   3.373  10.930 -0.3183  1.6878 -3.3445
 2934TIP3    H230294   3.516   3.453  10.963 -0.8063 -0.1341 -0.4165
 2935TIP3   OH230295   6.347   3.066   6.272 -0.0401  0.7205  0.7143
 2935TIP3    H130296   6.255   3.061   6.300 -0.3973 -0.9775 -0.6151
 2935TIP3    H230297   6.394   3.014   6.336 -0.2563  0.2200  0.4701
 2936TIP3   OH230298   5.320   5.785  12.247 -0.3979  0.0504  0.1257
 2936TIP3    H130299   5.243   5.794  12.303 -0.7247  1.4934 -0.4891
 2936TIP3    H230300   5.389   5.833  12.293  0.1438 -1.1956  0.6502
 2937TIP3   OH230301   5.084   5.255  17.015 -0.0706 -0.7100  0.0824
 2937TIP3    H130302   5.087   5.233  17.108 -1.0108  0.4600  0.4204
 2937TIP3    H230303   5.143   5.330  17.006 -0.3230 -0.5400 -0.1736
 2938TIP3   OH230304   0.503   3.762   2.370 -0.7343  0.4318 -0.0777
 2938TIP3    H130305   0.516   3.667   2.374  1.6186  0.7190  0.8730
 2938TIP3    H230306   0.466   3.784   2.456  0.4237  0.5364  0.4205
 2939TIP3   OH230307   5.353   3.944   1.539 -0.3994  0.0881 -0.2265
 2939TIP3    H130308   5.428   3.972   1.488  0.6587 -1.2745  0.5295
 2939TIP3    H230309   5.348   4.007   1.611  0.2913 -0.0747 -0.0363
 2940TIP3   OH230310   6.278   4.017   3.589 -0.0079  0.0705 -0.5938
 2940TIP3    H130311   6.295   3.939   3.641 -2.5744  1.5000  2.7491
 2940TIP3    H230312   6.352   4.075   3.608  0.5704 -0.5280 -0.9777
 2941TIP3   OH230313   1.204   4.775  11.776 -0.1252 -0.2996  0.4088
 2941TIP3    H130314   1.270   4.844  11.783  1.8664 -2.2045  1.4209
 2941TIP3    H230315   1.169   4.766  11.865  0.0522 -0.9837  0.4121
 2942TIP3   OH230316   0.869   3.563  13.039 -0.2499  0.2304  0.2731
 2942TIP3    H130317   0.791   3.529  13.083 -1.2511  1.3462 -0.5803
 2942TIP3    H230318   0.860   3.658  13.043  0.9497  0.3741 -0.0628
 2943TIP3   OH230319   5.489   1.892  10.637  0.1086  0.0213  0.5613
 2943TIP3    H130320   5.474   1.915  10.545 -1.7740 -0.7710  0.6264
 2943TIP3    H230321   5.583   1.877  10.643  0.6422  2.3882 -0.6715
 2944TIP3   OH230322   2.517   5.283  13.700  0.0164 -0.0048  0.1203
 2944TIP3    H130323   2.497   5.294  13.793  0.8362  0.4498  0.2506
 2944TIP3    H230324   2.432   5.288  13.657 -0.3111  0.3789  0.7933
 2945TIP3   OH230325   3.611   1.453  10.225 -0.0742 -0.1025  0.0075
 2945TIP3    H130326   3.519   1.455  10.198 -0.9151  1.3081  2.6042
 2945TIP3    H230327   3.621   1.532  10.278  2.3682 -0.7921  0.6683
 2946TIP3   OH230328   0.488   1.352  13.087  0.9241 -0.4883  0.2885
 2946TIP3    H130329   0.487   1.276  13.028 -1.8819 -0.1246 -0.2920
 2946TIP3    H230330   0.525   1.422  13.034  0.5596 -0.7101 -0.2732
 2947TIP3   OH230331   1.946   0.494   3.390 -0.4211  0.4145 -0.2112
 2947TIP3    H130332   1.964   0.494   3.484  0.5333 -1.4114 -0.3600
 2947TIP3    H230333   1.953   0.403   3.363  0.5669  1.0278 -2.2848
 2948TIP3   OH230334   2.861   0.136  13.777 -0.6422 -0.7556  0.1041
 2948TIP3    H130335   2.870   0.217  13.829  1.3591 -1.6728  1.3047
 2948TIP3    H230336   2.948   0.122  13.740 -1.0315 -2.2127 -0.3008
 2949TIP3   OH230337   1.963   0.312  12.587 -0.0096 -0.2496  0.1553
 2949TIP3    H130338   1.957   0.217  12.576  0.1016 -0.3448  0.8288
 2949TIP3    H230339   2.032   0.339  12.527  1.3656 -0.8823  1.3878
 2950TIP3   OH230340   1.869   3.074   4.731  0.6004  0.3355 -0.3359
 2950TIP3    H130341   1.788   3.025   4.719 -0.2169  1.6512 -0.3859
 2950TIP3    H230342   1.911   3.033   4.807 -0.2552 -0.1810 -0.1293
 2951TIP3   OH230343   0.456   3.861   5.077 -0.4930 -0.1019  0.3552
 2951TIP3    H130344   0.462   3.829   4.987 -1.2077 -0.2004  0.3350
 2951TIP3    H230345   0.388   3.806   5.117 -0.3983  0.1477  0.8653
 2952TIP3   OH230346   0.595   6.323   0.116  0.1249  0.0831  0.5992
 2952TIP3    H130347   0.515   6.374   0.106 -0.0076 -0.4200 -1.3446
 2952TIP3    H230348   0.566   6.232   0.121  0.4735  0.0239  2.2181
 2953TIP3   OH230349   1.620   0.081  12.642 -0.4257 -0.2217  0.1599
 2953TIP3    H130350   1.651  -0.003  12.676  0.3355  0.9450  2.5800
 2953TIP3    H230351   1.652   0.084  12.551  1.0004 -1.8077  0.5661
 2954TIP3   OH230352   2.396   5.535  14.200 -0.1840  0.0938 -0.4401
 2954TIP3    H130353   2.320   5.477  14.201 -1.4407  1.6632  0.4547
 2954TIP3    H230354   2.371   5.608  14.143  0.5287  0.7715  0.0775
 2955TIP3   OH230355   2.668   3.875  14.540 -0.8772  0.4681  0.0027
 2955TIP3    H130356   2.704   3.904  14.456  1.6520 -0.7202  0.5893
 2955TIP3    H230357   2.719   3.922  14.606 -0.9906 -0.6021  0.8864
 2956TIP3   OH230358   6.145   0.708   6.295 -0.4979 -0.4401 -0.1088
 2956TIP3    H130359   6.132   0.615   6.313 -1.1306  0.0259  2.1703
 2956TIP3    H230360   6.066   0.735   6.249  0.5835 -1.4050 -2.7051
 2957TIP3   OH230361   3.693   1.627   0.983 -0.0226 -0.1051  0.2104
 2957TIP3    H130362   3.713   1.683   1.058  0.6275  0.2160 -0.1937
 2957TIP3    H230363   3.778   1.613   0.941 -0.4517  0.1496 -0.7635
 2958TIP3   OH230364   5.586   0.532   4.393  0.1341  0.8859  0.2688
 2958TIP3    H130365   5.513   0.559   4.450 -0.4777 -1.7711  0.8638
 2958TIP3    H230366   5.550   0.462   4.339  2.4439 -1.2561  1.3124
 2959TIP3   OH230367   2.518   0.784  11.738  0.0439 -0.3608 -0.7427
 2959TIP3    H130368   2.503   0.697  11.702 -1.4587  0.2273 -1.6059
 2959TIP3    H230369   2.536   0.768  11.831  2.2953 -1.7604 -1.3525
 2960TIP3   OH230370   5.617   1.783  17.175  0.1776  0.5409  0.2122
 2960TIP3    H130371   5.667   1.816  17.101  1.0221  1.8153  1.3201
 2960TIP3    H230372   5.683   1.760  17.241 -0.5405 -0.8243  0.4968
 2961TIP3   OH230373   0.613   5.322   3.548  0.5035  0.3349 -0.1046
 2961TIP3    H130374   0.689   5.368   3.584  0.1155 -1.2847  3.0787
 2961TIP3    H230375   0.538   5.367   3.586 -0.1058  0.5593 -1.5124
 2962TIP3   OH230376   2.714   5.833  13.570  0.3482  0.3183 -0.2212
 2962TIP3    H130377   2.643   5.819  13.633  0.8630  1.2232  0.5768
 2962TIP3    H230378   2.792   5.796  13.613  0.3771 -0.6581 -1.0837
 2963TIP3   OH230379   1.633   3.025   0.962  0.6424  0.4535  0.3727
 2963TIP3    H130380   1.654   3.107   0.917  1.1961 -1.5359 -3.4382
 2963TIP3    H230381   1.714   2.975   0.961 -0.4917 -1.5044 -0.7917
 2964TIP3   OH230382   5.711   0.304  14.637  0.4304  0.1509  0.3050
 2964TIP3    H130383   5.699   0.219  14.595  0.0505 -0.9318  2.4875
 2964TIP3    H230384   5.652   0.362  14.589  0.2179 -0.9352 -0.8184
 2965TIP3   OH230385   4.525   2.204  15.345  0.2611  0.1681 -0.2609
 2965TIP3    H130386   4.621   2.209  15.338  0.3079  1.5299  0.9375
 2965TIP3    H230387   4.497   2.295  15.342 -0.7359  0.0437  2.5788
 2966TIP3   OH230388   1.394   6.334   3.837 -0.5895  0.9280 -0.3319
 2966TIP3    H130389   1.390   6.430   3.837 -1.7515  0.8960 -0.0218
 2966TIP3    H230390   1.338   6.307   3.910  0.3816  0.0172  0.1138
 2967TIP3   OH230391   2.034   4.168  12.656 -0.4407 -0.2271  0.1243
 2967TIP3    H130392   1.968   4.199  12.718 -1.1585 -0.0537 -0.6917
 2967TIP3    H230393   2.026   4.228  12.582  0.8807  0.0000  0.1491
 2968TIP3   OH230394   4.351   0.357   2.142  0.1475 -0.0204 -0.1189
 2968TIP3    H130395   4.445   0.351   2.127  0.5058 -0.6127  2.0143
 2968TIP3    H230396   4.342   0.425   2.208 -1.2716  2.3096 -2.5343
 2969TIP3   OH230397   2.506   4.999   1.571 -0.0976  0.2600  0.1468
 2969TIP3    H130398   2.491   5.088   1.539  0.8114 -0.1155 -1.4368
 2969TIP3    H230399   2.538   5.011   1.660  0.4689  1.5492 -0.2073
 2970TIP3   OH230400   1.941   5.450  16.574  0.4103 -0.4361 -0.1588
 2970TIP3    H130401   1.864   5.506  16.563  0.3392 -0.2427  1.2286
 2970TIP3    H230402   1.996   5.496  16.638 -0.2211 -2.4895  1.9947
 2971TIP3   OH230403   5.744   1.090  10.848 -0.0979 -0.4835  0.0227
 2971TIP3    H130404   5.836   1.065  10.845  0.2036  0.4425  0.8605
 2971TIP3    H230405   5.727   1.108  10.940 -0.8281  0.3671 -0.2584
 2972TIP3   OH230406   6.673   2.417   5.237  0.1074 -0.1851 -0.2554
 2972TIP3    H130407   6.589   2.416   5.189 -0.3029  1.5911  0.3517
 2972TIP3    H230408   6.731   2.361   5.185 -1.8334 -2.7202  0.0887
 2973TIP3   OH230409   4.831   4.249  12.044  0.4528 -0.0236  0.1495
 2973TIP3    H130410   4.824   4.185  11.974  0.4274  0.5397 -0.3768
 2973TIP3    H230411   4.783   4.326  12.012 -0.6983 -0.2057  1.3368
 2974TIP3   OH230412   1.466   0.639   1.263  0.0265 -0.1398 -0.7252
 2974TIP3    H130413   1.416   0.593   1.331 -1.2172 -1.7883 -2.6166
 2974TIP3    H230414   1.557   0.620   1.283 -0.3614 -1.5120 -0.0957
 2975TIP3   OH230415   1.482   1.044  16.247  1.3043  0.6847 -0.1589
 2975TIP3    H130416   1.417   1.004  16.305 -1.8009  1.3652 -2.8609
 2975TIP3    H230417   1.559   0.988  16.256 -0.0370 -0.9673  2.3058
 2976TIP3   OH230418   1.487   4.308  11.609 -0.0762 -0.2539 -0.2417
 2976TIP3    H130419   1.431   4.352  11.672  0.1707  0.9119 -0.8074
 2976TIP3    H230420   1.449   4.330  11.524  0.6908 -0.2218 -0.5840
 2977TIP3   OH230421   3.899   0.357  12.378  0.2182 -0.0795  0.4618
 2977TIP3    H130422   3.887   0.448  12.403 -2.6827 -0.6249  1.5162
 2977TIP3    H230423   3.867   0.352  12.288  1.7029  0.1660 -0.0963
 2978TIP3   OH230424   5.892   1.406  10.939  0.1059 -0.2988 -0.0961
 2978TIP3    H130425   5.898   1.371  10.850  0.7856 -0.6117  0.0659
 2978TIP3    H230426   5.963   1.363  10.987  0.4574  0.7072  0.3169
 2979TIP3   OH230427   2.398   3.073   6.596 -0.1033 -0.8682 -0.4558
 2979TIP3    H130428   2.353   3.030   6.523 -0.3425 -1.5907  0.0937
 2979TIP3    H230429   2.442   3.001   6.642 -0.1017 -0.4529  0.2061
 2980TIP3   OH230430   1.572   6.781   3.042  0.3098 -0.6249  0.2316
 2980TIP3    H130431   1.489   6.782   2.994 -0.4465 -1.0777  1.4669
 2980TIP3    H230432   1.551   6.822   3.126  1.0836 -1.6558  0.9492
 2981TIP3   OH230433   3.082   5.162  12.889 -0.0991  0.0846  0.1747
 2981TIP3    H130434   3.152   5.160  12.824  0.4124  1.2862  0.6649
 2981TIP3    H230435   3.094   5.245  12.935 -1.9574  0.3882  0.1622
 2982TIP3   OH230436   3.402   5.378  15.782  0.3851  0.2978 -0.6570
 2982TIP3    H130437   3.466   5.394  15.852  0.5333  2.0052 -1.1523
 2982TIP3    H230438   3.368   5.464  15.760 -3.8727 -0.6343  1.1651
 2983TIP3   OH230439   0.603   0.831  14.839 -0.1542  0.3808 -0.6386
 2983TIP3    H130440   0.671   0.788  14.890 -0.9920  0.1094  0.3027
 2983TIP3    H230441   0.589   0.915  14.884 -1.6667 -0.3216  0.2968
 2984TIP3   OH230442   3.550   1.929   1.514 -0.0044  0.4404 -0.5320
 2984TIP3    H130443   3.616   1.943   1.581  1.6219 -2.3710 -1.4125
 2984TIP3    H230444   3.520   2.017   1.492  1.1966  1.6108  2.0480
 2985TIP3   OH230445   5.778   4.029  14.593 -0.3803  0.1638  0.2879
 2985TIP3    H130446   5.736   3.943  14.597 -0.3288  0.1900  2.0191
 2985TIP3    H230447   5.715   4.088  14.634  0.7500  0.4374  1.7027
 2986TIP3   OH230448   1.576   4.172  13.993 -0.2959 -0.2539  0.0727
 2986TIP3    H130449   1.621   4.215  13.921 -1.9789 -0.3982 -1.1175
 2986TIP3    H230450   1.548   4.243  14.051  0.4914 -0.0881  0.2560
 2987TIP3   OH230451   0.992   1.459  12.988 -0.9528  0.4856  0.3704
 2987TIP3    H130452   1.021   1.457  12.896 -1.3548  0.0418  0.2481
 2987TIP3    H230453   0.991   1.552  13.011  0.5013  0.5310  0.3558
 2988TIP3   OH230454   6.227   5.317   2.687  0.0979 -0.2243  0.0183
 2988TIP3    H130455   6.269   5.395   2.724 -0.1399 -0.0350 -0.1052
 2988TIP3    H230456   6.295   5.276   2.634 -0.1407  0.6120 -0.9809
 2989TIP3   OH230457   2.742   6.453  10.859  0.5568  0.2855  0.5868
 2989TIP3    H130458   2.802   6.406  10.917  2.2063 -1.9893 -2.5715
 2989TIP3    H230459   2.799   6.510  10.807 -0.4828  0.6011 -0.2458
 2990TIP3   OH230460   6.418   4.582   4.594  0.1509  0.0682 -0.1812
 2990TIP3    H130461   6.338   4.556   4.550  1.0714 -1.6664 -0.9236
 2990TIP3    H230462   6.486   4.576   4.527  1.1229  0.1014  0.7656
 2991TIP3   OH230463   0.693   3.636   6.384 -0.1148 -0.0851  0.3433
 2991TIP3    H130464   0.600   3.656   6.390 -0.3630 -1.3711  1.3077
 2991TIP3    H230465   0.736   3.708   6.431 -0.6805  0.0996  0.5883
 2992TIP3   OH230466   6.106   2.856   1.575 -0.3302  0.9856  0.1516
 2992TIP3    H130467   6.025   2.824   1.614 -0.9813  0.4611 -1.5454
 2992TIP3    H230468   6.154   2.896   1.648 -2.2894  1.6883  1.1238
 2993TIP3   OH230469   0.783   6.440  15.618 -0.7094 -0.1481  0.2670
 2993TIP3    H130470   0.816   6.357  15.583  0.6730  1.4318 -2.5120
 2993TIP3    H230471   0.838   6.458  15.694  0.0116 -1.0509 -0.0231
 2994TIP3   OH230472   3.187   2.181   0.403  0.4840  0.4717  0.0648
 2994TIP3    H130473   3.194   2.192   0.308 -2.0168 -0.0652 -0.2502
 2994TIP3    H230474   3.179   2.086   0.416 -1.3426  0.6590  0.5703
 2995TIP3   OH230475   3.095   1.548  12.235 -0.1188 -0.6348  0.6399
 2995TIP3    H130476   3.014   1.595  12.254  0.1324 -0.1945  0.6264
 2995TIP3    H230477   3.136   1.598  12.165 -0.0366 -1.0899  0.3634
 2996TIP3   OH230478   4.847   1.631  15.754  0.0523 -0.1397 -0.3512
 2996TIP3    H130479   4.774   1.641  15.693 -0.0001 -2.8535 -0.8580
 2996TIP3    H230480   4.828   1.551  15.802  1.7446  0.1634  0.9201
 2997TIP3   OH230481   1.679   6.645  11.004 -0.2936 -0.1312  0.2372
 2997TIP3    H130482   1.587   6.671  11.006  0.0838  1.7821 -2.3325
 2997TIP3    H230483   1.688   6.596  10.922  1.0394 -0.1075  0.3569
 2998TIP3   OH230484   4.860   2.458   0.408 -0.2129 -0.1746 -0.1672
 2998TIP3    H130485   4.854   2.412   0.492  1.9846 -0.6570 -0.2252
 2998TIP3    H230486   4.892   2.392   0.347 -0.2709  0.5844 -1.0380
 2999TIP3   OH230487   3.889   4.021   2.144  0.2817  0.0277 -0.6963
 2999TIP3    H130488   3.928   3.981   2.067 -0.8469 -2.0653 -0.2502
 2999TIP3    H230489   3.956   4.013   2.212  0.3900 -0.2787 -0.8401
 3000TIP3   OH230490   1.960   6.600   4.857 -0.3517 -0.1845 -0.0376
 3000TIP3    H130491   2.007   6.636   4.932 -0.4245  0.1199 -0.1379
 3000TIP3    H230492   1.927   6.677   4.810 -0.2373 -0.3694 -0.4246
 3001TIP3   OH230493   5.177   1.563  13.549 -0.2682 -0.2674  0.0220
 3001TIP3    H130494   5.268   1.593  13.540 -0.8648  1.5508 -0.4230
 3001TIP3    H230495   5.180   1.499  13.620  1.3566 -0.2406  0.0227
 3002TIP3   OH230496   1.448   3.599   5.376 -0.2769  0.0932  0.1378
 3002TIP3    H130497   1.419   3.686   5.347  0.6544  0.3197 -0.1393
 3002TIP3    H230498   1.449   3.605   5.471  1.5156  0.9825  0.0881
 3003TIP3   OH230499   3.833   0.741  13.921 -0.1784 -0.4372  0.0554
 3003TIP3    H130500   3.925   0.734  13.945 -0.1199 -0.5383 -0.1923
 3003TIP3    H230501   3.821   0.676  13.852 -0.0619  0.6395 -1.0088
 3004TIP3   OH230502   4.192   6.132  12.954 -0.3810 -0.0282 -0.1698
 3004TIP3    H130503   4.101   6.146  12.980 -0.7395  2.9029 -2.4487
 3004TIP3    H230504   4.240   6.135  13.037 -2.1650  0.4428  0.9231
 3005TIP3   OH230505   0.764   0.719   1.402 -0.1159  0.4333 -0.2228
 3005TIP3    H130506   0.721   0.758   1.326 -0.9347  0.0422  0.0320
 3005TIP3    H230507   0.747   0.626   1.394  1.1837  0.2039 -0.4225
 3006TIP3   OH230508   0.560   1.196   2.389  0.3344  0.3254 -0.2073
 3006TIP3    H130509   0.623   1.176   2.319 -0.4064 -0.1575 -0.7504
 3006TIP3    H230510   0.477   1.206   2.344 -0.5590 -1.9452  0.7679
 3007TIP3   OH230511   4.052   2.884  12.235  0.2720 -0.3806  0.0293
 3007TIP3    H130512   4.114   2.864  12.164  0.3264  0.1566 -0.0747
 3007TIP3    H230513   4.064   2.812  12.298  0.7938 -0.4344 -0.1273
 3008TIP3   OH230514   0.053   6.577   2.452 -0.1481 -0.1292  0.6317
 3008TIP3    H130515   0.060   6.653   2.395 -0.5802 -1.4535 -1.3013
 3008TIP3    H230516   0.137   6.572   2.497  0.9279 -0.0229 -1.2604
 3009TIP3   OH230517   1.895   4.664  16.188 -0.1837 -0.4843  0.4991
 3009TIP3    H130518   1.952   4.737  16.166  0.5269 -0.7858  1.2711
 3009TIP3    H230519   1.854   4.640  16.105 -0.0350  0.4499  0.1394
 3010TIP3   OH230520   4.574   1.065   4.659  0.4311  0.0684  0.2149
 3010TIP3    H130521   4.660   1.029   4.680  0.8249  0.7337 -0.2052
 3010TIP3    H230522   4.575   1.078   4.564 -0.0367  0.3032  0.2377
 3011TIP3   OH230523   4.911   5.158   4.960 -0.3199 -0.1777 -0.6502
 3011TIP3    H130524   4.998   5.166   4.920  0.2050  0.3281  0.5299
 3011TIP3    H230525   4.916   5.077   5.010  0.1664  0.8031  0.9669
 3012TIP3   OH230526   0.073   3.209  13.976 -0.3756 -0.8052 -0.2661
 3012TIP3    H130527   0.009   3.244  14.038  0.6102  0.7153 -0.0426
 3012TIP3    H230528   0.047   3.246  13.892  1.6545  2.1187  0.2270
 3013TIP3   OH230529   0.518   2.950  16.065  0.5506 -0.1578  0.4434
 3013TIP3    H130530   0.544   3.014  16.132 -0.7179  1.3525 -0.4206
 3013TIP3    H230531   0.599   2.906  16.041  1.2355  0.1122  2.0850
 3014TIP3   OH230532   1.252   2.208  13.098  0.1625 -0.0525 -0.5934
 3014TIP3    H130533   1.226   2.215  13.190 -0.3475 -1.5001 -0.5994
 3014TIP3    H230534   1.347   2.220  13.099  0.0816  0.6284  0.0261
 3015TIP3   OH230535   5.773   6.152  13.117  0.4058 -0.1822 -0.2116
 3015TIP3    H130536   5.711   6.127  13.185 -0.6767  1.5716 -0.4857
 3015TIP3    H230537   5.793   6.070  13.072  2.5131 -1.7336  3.1964
 3016TIP3   OH230538   6.736   6.398  16.352 -0.5359 -0.3828  0.2236
 3016TIP3    H130539   6.771   6.356  16.431 -2.2501  0.9781  1.8095
 3016TIP3    H230540   6.788   6.478  16.342 -0.1147 -0.7077 -0.2333
 3017TIP3   OH230541   0.750   1.671   3.923 -0.0569 -0.1624 -0.1014
 3017TIP3    H130542   0.775   1.761   3.904 -0.3979  0.3127  1.5867
 3017TIP3    H230543   0.684   1.650   3.857 -1.7977  1.6982  0.9444
 3018TIP3   OH230544   3.613   1.309  16.928 -0.2125  0.2893 -0.4655
 3018TIP3    H130545   3.541   1.335  16.985  0.5065  1.6270 -0.1297
 3018TIP3    H230546   3.691   1.348  16.967  0.6660 -0.8717 -0.9919
 3019TIP3   OH230547   3.250   4.108  17.083  0.2883  0.4545 -0.3033
 3019TIP3    H130548   3.179   4.085  17.143 -0.6435  3.5066 -0.0765
 3019TIP3    H230549   3.312   4.157  17.136  0.6046  1.2171 -1.3487
 3020TIP3   OH230550   2.731   1.485  14.660  0.3854  0.0774  0.1700
 3020TIP3    H130551   2.739   1.522  14.572  1.3392 -0.0707  0.1820
 3020TIP3    H230552   2.798   1.417  14.663  0.1320 -0.1425  0.9014
 3021TIP3   OH230553   5.507   4.950   3.483 -0.1654 -0.2076  0.0411
 3021TIP3    H130554   5.421   4.992   3.481  0.3692  0.8968 -0.5075
 3021TIP3    H230555   5.566   5.017   3.519  0.2677 -1.3460  1.5370
 3022TIP3   OH230556   5.482   1.363  14.409  0.1345 -0.0659  0.2024
 3022TIP3    H130557   5.420   1.327  14.473 -0.1665  0.4197  0.1850
 3022TIP3    H230558   5.539   1.420  14.460  0.8493 -0.8433  0.2950
 3023TIP3   OH230559   1.149   0.616   4.393 -0.3913 -0.1119 -0.4339
 3023TIP3    H130560   1.106   0.672   4.328  1.3634  0.8850 -0.7870
 3023TIP3    H230561   1.135   0.527   4.360 -1.3956  0.2288 -0.9931
 3024TIP3   OH230562   6.699   6.571  13.325 -0.4103  0.2464 -0.2389
 3024TIP3    H130563   6.756   6.628  13.378 -0.0887 -1.6846  1.6129
 3024TIP3    H230564   6.741   6.570  13.239  0.6522  1.2810  0.2309
 3025TIP3   OH230565   5.126   4.829  12.797 -0.4426 -0.0738  0.2908
 3025TIP3    H130566   5.146   4.754  12.853 -0.0285  0.4129  0.8092
 3025TIP3    H230567   5.139   4.905  12.854 -1.4879  0.3669 -0.0420
 3026TIP3   OH230568   6.585   3.811  13.585  0.9616  0.3081 -0.3577
 3026TIP3    H130569   6.554   3.729  13.547  1.2967  0.1951 -0.3909
 3026TIP3    H230570   6.515   3.837  13.645 -0.3097  1.3000 -2.1689
 3027TIP3   OH230571   0.121   5.953  12.631  0.3643 -0.4802 -0.5397
 3027TIP3    H130572   0.078   5.975  12.713  1.2769  1.4605 -0.5226
 3027TIP3    H230573   0.162   5.868  12.647 -1.1192 -1.0570  0.3330
 3028TIP3   OH230574   6.222   1.795   0.541  0.5143 -0.1023  0.2868
 3028TIP3    H130575   6.282   1.846   0.487  0.2102 -0.3283 -0.2703
 3028TIP3    H230576   6.255   1.806   0.630  1.1251  0.1304  0.0376
 3029TIP3   OH230577   5.292   5.618   2.357  0.4819 -0.0706  0.6767
 3029TIP3    H130578   5.220   5.674   2.329  1.4179  0.6361 -0.4204
 3029TIP3    H230579   5.255   5.529   2.359 -0.3802  0.2659  0.0220
 3030TIP3   OH230580   0.388   0.737   3.620 -0.4515 -0.4270 -0.8146
 3030TIP3    H130581   0.426   0.803   3.562 -1.5759 -0.1544 -1.2626
 3030TIP3    H230582   0.382   0.780   3.705 -1.9214  0.3549 -1.2827
 3031TIP3   OH230583   1.756   5.675  12.236 -0.1200  0.2080  0.1446
 3031TIP3    H130584   1.662   5.659  12.248 -0.8970  2.7864 -1.7170
 3031TIP3    H230585   1.761   5.763  12.201  2.7726 -1.0152 -3.0400
 3032TIP3   OH230586   0.525   0.596  15.710  0.3120 -0.1835 -0.3126
 3032TIP3    H130587   0.603   0.646  15.684  0.4943  0.0926  0.7011
 3032TIP3    H230588   0.559   0.526  15.765 -0.1436 -0.0803  0.1084
 3033TIP3   OH230589   4.076   5.983   4.716 -0.7347 -0.5161  0.8400
 3033TIP3    H130590   4.047   6.062   4.671  3.1426  0.0743 -1.0402
 3033TIP3    H230591   4.026   5.912   4.677 -1.7014  0.6288 -0.0590
 3034TIP3   OH230592   5.988   4.864  16.627 -0.1969  0.6365  0.0928
 3034TIP3    H130593   5.892   4.857  16.622 -0.1252 -0.4159  0.0550
 3034TIP3    H230594   6.010   4.827  16.713  0.2996 -0.6773 -0.5754
 3035TIP3   OH230595   3.866   0.724  13.054 -0.3863 -0.1491  0.0682
 3035TIP3    H130596   3.807   0.681  12.992  0.1008  0.1716 -0.6247
 3035TIP3    H230597   3.950   0.730  13.008 -0.2768  0.9760  0.3795
 3036TIP3   OH230598   2.760   0.130   3.474 -0.4038 -0.3616 -0.0986
 3036TIP3    H130599   2.818   0.195   3.513 -0.4410  0.8106 -1.8734
 3036TIP3    H230600   2.818   0.071   3.425 -0.4716 -0.9817  0.5540
 3037TIP3   OH230601   2.256   3.496   0.926 -0.1652 -0.2174  0.1716
 3037TIP3    H130602   2.349   3.484   0.945 -0.3717 -1.0311  0.6973
 3037TIP3    H230603   2.241   3.590   0.936  0.6703 -0.0319 -0.2517
 3038TIP3   OH230604   4.064   0.510   4.763 -0.1854 -0.0925  0.1711
 3038TIP3    H130605   4.015   0.514   4.845  0.0246  1.7440  0.2366
 3038TIP3    H230606   4.155   0.519   4.789 -0.1209  0.5209 -0.2495
 3039TIP3   OH230607   0.399   0.113  13.864 -0.2145 -0.3751  0.9290
 3039TIP3    H130608   0.372   0.163  13.787 -0.7043 -2.1968 -0.1410
 3039TIP3    H230609   0.319   0.104  13.916 -0.1282 -0.0580  1.1179
 3040TIP3   OH230610   6.191   1.929  17.196  0.3372  0.3058  0.1919
 3040TIP3    H130611   6.261   1.992  17.181 -0.4830  1.2991  0.3578
 3040TIP3    H230612   6.213   1.887  17.280  0.7445  0.5835  0.2237
 3041TIP3   OH230613   5.274   3.128  12.229 -0.1285 -0.5033 -0.6108
 3041TIP3    H130614   5.345   3.186  12.255 -0.5912 -0.7578  1.3773
 3041TIP3    H230615   5.203   3.187  12.201  0.5008 -0.2274 -1.6644
 3042TIP3   OH230616   2.127   5.560  13.765 -0.1931  0.0079  0.0376
 3042TIP3    H130617   2.060   5.523  13.824 -0.2406 -0.0742 -0.0687
 3042TIP3    H230618   2.125   5.654  13.784 -0.3994  0.0179 -0.0263
 3043TIP3   OH230619   2.282   2.970  16.424 -0.0021 -0.7473  0.4126
 3043TIP3    H130620   2.252   3.022  16.350 -0.7108 -2.1665 -0.3288
 3043TIP3    H230621   2.378   2.978  16.420 -0.0481 -0.4044 -0.3462
 3044TIP3   OH230622   3.116   6.320   4.561  0.3595  0.3302 -0.2997
 3044TIP3    H130623   3.048   6.252   4.567  1.2832 -0.6706 -0.7602
 3044TIP3    H230624   3.135   6.343   4.652 -0.1668  0.1848 -0.1475
 3045TIP3   OH230625   0.429   3.071   5.485  0.6251  0.0464 -0.4919
 3045TIP3    H130626   0.363   3.123   5.531 -0.4254 -1.8234  0.2348
 3045TIP3    H230627   0.511   3.092   5.529 -0.2819 -1.4083  2.1222
 3046TIP3   OH230628   0.842   5.162  14.969  0.1136 -0.1867 -0.1021
 3046TIP3    H130629   0.846   5.181  14.875  2.5197  2.6208  0.3973
 3046TIP3    H230630   0.762   5.112  14.980 -0.0328 -1.0432 -3.6936
 3047TIP3   OH230631   0.447   3.716   0.595  0.0897  0.2079  0.1234
 3047TIP3    H130632   0.490   3.723   0.680  0.1846 -1.0145  0.1906
 3047TIP3    H230633   0.379   3.651   0.607 -0.1434  0.2945 -0.6430
 3048TIP3   OH230634   5.512   5.011   6.506  0.4440 -0.1337  0.2189
 3048TIP3    H130635   5.514   4.937   6.567 -0.4037  0.4760  1.0187
 3048TIP3    H230636   5.603   5.029   6.486  0.7869  0.0102  1.7786
 3049TIP3   OH230637   3.259   3.457   3.161 -0.1297  0.0554 -0.2511
 3049TIP3    H130638   3.252   3.471   3.255 -0.7073 -0.2879 -0.2388
 3049TIP3    H230639   3.179   3.496   3.125  0.8086  1.5689 -0.7660
 3050TIP3   OH230640   1.450   1.191  11.504  0.6057  0.1768  0.3767
 3050TIP3    H130641   1.397   1.185  11.584  1.6311 -0.5020  1.0206
 3050TIP3    H230642   1.395   1.152  11.436 -0.8839  2.0927  0.3955
 3051TIP3   OH230643   0.516   1.082  14.936  0.0437 -0.3599 -0.3017
 3051TIP3    H130644   0.424   1.101  14.954 -0.8895 -0.5960 -3.9342
 3051TIP3    H230645   0.559   1.167  14.939 -0.5776 -0.0562  0.0991
 3052TIP3   OH230646   2.513   1.047  15.325  0.0929  0.0561 -0.2298
 3052TIP3    H130647   2.445   0.983  15.348 -0.0861 -0.0776 -1.1103
 3052TIP3    H230648   2.523   1.100  15.405  0.2089 -1.0196  0.4927
 3053TIP3   OH230649   4.352   5.057  16.311  0.3287  0.0354 -0.9425
 3053TIP3    H130650   4.336   5.128  16.249  0.6940 -0.8977 -2.1616
 3053TIP3    H230651   4.438   5.023  16.286 -0.1933 -1.3518 -0.9339
 3054TIP3   OH230652   5.034   6.228  12.965  0.2096  0.6164  0.7862
 3054TIP3    H130653   5.022   6.186  13.051  1.2417 -1.3528  0.0447
 3054TIP3    H230654   5.126   6.212  12.944  0.3061  2.1898 -0.1624
 3055TIP3   OH230655   4.791   2.984   3.162  0.1112  0.2805  0.0902
 3055TIP3    H130656   4.781   3.021   3.249  0.5164 -0.1792  0.3436
 3055TIP3    H230657   4.707   2.998   3.119 -0.0180  0.7079  0.4765
 3056TIP3   OH230658   4.549   3.945  16.282 -0.1687  0.4482 -0.8143
 3056TIP3    H130659   4.513   3.866  16.322  1.1613  0.1251 -0.1701
 3056TIP3    H230660   4.495   4.016  16.316  2.8534  0.7153  4.7142
 3057TIP3   OH230661   2.255   0.024   3.895  0.0700 -0.0761 -0.3790
 3057TIP3    H130662   2.257  -0.012   3.983  0.4099  1.1328  0.1229
 3057TIP3    H230663   2.177  -0.014   3.855 -0.3205 -0.3052  0.5831
 3058TIP3   OH230664   2.567   6.114   5.382  0.9992 -0.3616  0.0747
 3058TIP3    H130665   2.521   6.058   5.444  0.2547 -0.4322 -0.5265
 3058TIP3    H230666   2.617   6.054   5.327  0.4653 -0.4154 -0.3558
 3059TIP3   OH230667   6.470   4.657  12.272  0.1969  0.2381 -0.0620
 3059TIP3    H130668   6.538   4.714  12.311  1.5618 -1.4501  0.1346
 3059TIP3    H230669   6.479   4.670  12.178  1.0466 -0.2260 -0.0534
 3060TIP3   OH230670   6.348   4.366  15.723 -0.4185 -0.3132  0.6108
 3060TIP3    H130671   6.356   4.271  15.727  1.7623 -0.3012 -1.0359
 3060TIP3    H230672   6.290   4.383  15.649 -2.4236 -0.3025  2.1033
 3061TIP3   OH230673   6.705   4.451  16.549 -0.3057 -0.0376  0.4937
 3061TIP3    H130674   6.653   4.371  16.555 -0.9336  0.4574  2.7331
 3061TIP3    H230675   6.793   4.422  16.527 -0.5452 -1.3577  1.2022
 3062TIP3   OH230676   4.242   0.427   1.559  0.0355  0.0254 -0.2295
 3062TIP3    H130677   4.279   0.456   1.475  0.8945  1.1578  0.5156
 3062TIP3    H230678   4.223   0.508   1.606 -1.0901 -0.5841  0.4108
 3063TIP3   OH230679   1.274   1.958  12.705  0.0844 -0.0668  0.6510
 3063TIP3    H130680   1.241   2.030  12.651 -1.0105  0.1939  1.6238
 3063TIP3    H230681   1.304   1.892  12.642  1.3484  1.3195 -0.2595
 3064TIP3   OH230682   4.789   2.654   1.873 -0.4012 -0.3099  0.0442
 3064TIP3    H130683   4.754   2.678   1.787  1.0595 -1.2784 -0.8527
 3064TIP3    H230684   4.835   2.572   1.859  3.2730  1.4019  0.8328
 3065TIP3   OH230685   3.648   3.632  13.053 -0.4049 -0.7508 -0.1621
 3065TIP3    H130686   3.736   3.637  13.015 -0.4490  0.8931 -0.1345
 3065TIP3    H230687   3.663   3.635  13.148 -0.4682 -0.5408 -0.1565
 3066TIP3   OH230688   6.195   2.586   3.216  0.2807 -0.2728 -0.3727
 3066TIP3    H130689   6.139   2.653   3.255  1.0238  0.6490 -0.8566
 3066TIP3    H230690   6.138   2.542   3.152 -0.2194 -0.1274 -0.0381
 3067TIP3   OH230691   4.070   5.603  16.612  0.1337 -0.2044  0.1864
 3067TIP3    H130692   4.060   5.677  16.552 -1.0364 -2.3133 -2.4423
 3067TIP3    H230693   4.149   5.623  16.663  0.4123  2.3458 -1.1119
 3068TIP3   OH230694   1.123   6.473  11.455 -0.7669  0.0901  0.6223
 3068TIP3    H130695   1.040   6.429  11.434  0.6075 -1.0728 -3.4484
 3068TIP3    H230696   1.186   6.401  11.465  0.7187  0.8957 -1.9489
 3069TIP3   OH230697   5.981   3.065   0.303 -0.0328  0.4412  0.2973
 3069TIP3    H130698   5.928   3.125   0.355 -0.2969  0.3999  0.0754
 3069TIP3    H230699   5.942   2.979   0.318  0.0388  0.3940  0.2163
 3070TIP3   OH230700   4.620   1.457  16.140  0.0246  0.3864 -0.0332
 3070TIP3    H130701   4.661   1.539  16.168 -0.1340  0.4323  0.0634
 3070TIP3    H230702   4.658   1.440  16.054  0.7766  0.0661  0.3573
 3071TIP3   OH230703   0.721   1.406   3.822  0.4124 -0.3573 -0.0825
 3071TIP3    H130704   0.725   1.388   3.728 -0.6349 -0.8347 -0.0592
 3071TIP3    H230705   0.788   1.472   3.837 -1.2542  1.8752 -1.6769
 3072TIP3   OH230706   6.407   3.896   0.845  0.1810 -0.0896  0.0437
 3072TIP3    H130707   6.327   3.843   0.849  0.5669 -0.6334  0.7096
 3072TIP3    H230708   6.389   3.961   0.776 -0.3872 -0.9424 -0.6369
 3073TIP3   OH230709   0.340   4.017   3.564 -0.8571 -0.1385  0.6021
 3073TIP3    H130710   0.323   4.037   3.656  2.2241 -0.7185  1.4263
 3073TIP3    H230711   0.358   3.922   3.563 -0.4549 -0.0650 -0.4968
 3074TIP3   OH230712   4.379   6.184   0.729  0.1034 -0.1540 -0.0161
 3074TIP3    H130713   4.359   6.090   0.725 -0.0209 -0.2293  1.6779
 3074TIP3    H230714   4.454   6.195   0.671  0.2779 -1.3504 -0.0382
 3075TIP3   OH230715   0.324   3.427  16.201  0.6271  0.0815 -0.0701
 3075TIP3    H130716   0.340   3.334  16.213  0.3652 -0.0197 -0.4712
 3075TIP3    H230717   0.363   3.447  16.116  0.4019  0.2651 -0.1317
 3076TIP3   OH230718   6.796   4.002  15.930 -1.0577 -0.3001 -0.1921
 3076TIP3    H130719   6.842   3.991  15.847  0.3938  0.4982  0.4670
 3076TIP3    H230720   6.797   4.096  15.945 -0.4993 -0.4934  1.1424
 3077TIP3   OH230721   0.437   5.219  13.571  0.2050 -0.2338 -0.4194
 3077TIP3    H130722   0.371   5.254  13.511  0.3270 -0.7004 -0.8248
 3077TIP3    H230723   0.520   5.229  13.524  0.4423  0.4106  0.1149
 3078TIP3   OH230724   3.028   0.747   0.525  0.1463  0.3175 -0.8052
 3078TIP3    H130725   3.027   0.817   0.590  1.1721  0.3178 -0.7630
 3078TIP3    H230726   2.969   0.777   0.456 -0.0496  0.8550 -0.4120
 3079TIP3   OH230727   0.697   2.636  11.304  0.3973 -0.6609  0.3675
 3079TIP3    H130728   0.613   2.678  11.322  0.6136 -0.7517  1.7401
 3079TIP3    H230729   0.679   2.543  11.308  0.6721 -0.6913  1.4222
 3080TIP3   OH230730   3.838   0.900  16.355  0.1206  0.6664  0.3972
 3080TIP3    H130731   3.933   0.893  16.363  0.1763 -0.9028 -0.9870
 3080TIP3    H230732   3.804   0.845  16.425  0.2987 -0.3920 -0.3197
 3081TIP3   OH230733   2.333   3.116   3.571 -0.0110  0.3141 -0.1473
 3081TIP3    H130734   2.298   3.080   3.489 -0.9189 -0.0519  0.3849
 3081TIP3    H230735   2.379   3.043   3.611 -2.0641 -0.4044  1.0527
 3082TIP3   OH230736   2.188   5.729   3.308  0.1885 -0.3006 -0.4126
 3082TIP3    H130737   2.232   5.704   3.227 -0.1457  0.9495 -1.0085
 3082TIP3    H230738   2.255   5.721   3.376  1.2749  1.2365 -1.2403
 3083TIP3   OH230739   2.476   0.255   2.554  0.2909 -0.0086  0.3164
 3083TIP3    H130740   2.498   0.195   2.624 -2.1411 -2.3153 -0.7084
 3083TIP3    H230741   2.383   0.275   2.567 -0.1631 -0.2746 -2.0084
 3084TIP3   OH230742   0.523   6.128  13.410 -0.0136 -0.0879  0.1381
 3084TIP3    H130743   0.522   6.064  13.481 -0.6192  1.0774  1.2281
 3084TIP3    H230744   0.602   6.108  13.360 -0.4071 -1.9431  0.1776
 3085TIP3   OH230745   5.163   2.044   0.190  0.7625  0.2900  0.4011
 3085TIP3    H130746   5.155   1.975   0.123 -2.5346 -0.7817  1.7018
 3085TIP3    H230747   5.170   1.996   0.273  1.6446  1.5797  1.1011
 3086TIP3   OH230748   6.116   2.352   5.773  0.2548 -0.0155 -0.7826
 3086TIP3    H130749   6.128   2.404   5.853  0.9049 -1.2867 -0.0167
 3086TIP3    H230750   6.048   2.289   5.796 -0.2844  0.2597 -1.5869
 3087TIP3   OH230751   2.410   4.875  13.169 -0.5701 -0.0808  0.2592
 3087TIP3    H130752   2.368   4.868  13.083  1.1958 -0.7008 -0.5848
 3087TIP3    H230753   2.390   4.965  13.198  1.3960  1.3015 -2.2373
 3088TIP3   OH230754   4.430   2.875   2.692  0.2826 -0.4390 -0.5642
 3088TIP3    H130755   4.361   2.937   2.714  0.4762  0.2060 -1.6301
 3088TIP3    H230756   4.463   2.906   2.607  2.4590 -0.1887  0.2944
 3089TIP3   OH230757   5.930   5.364   2.695  0.0101 -0.4774 -0.0332
 3089TIP3    H130758   5.924   5.457   2.719 -0.6268 -0.6915  0.6897
 3089TIP3    H230759   6.023   5.350   2.678  0.0057  0.4717 -0.9076
 3090TIP3   OH230760   1.060   3.549   5.024  0.5599 -0.7375 -0.0594
 3090TIP3    H130761   1.103   3.564   5.108  0.0777 -0.0200  0.0660
 3090TIP3    H230762   1.130   3.515   4.967  0.9794 -0.8457  0.5110
 3091TIP3   OH230763   6.628   0.251  13.311 -0.1245  0.3193  0.0682
 3091TIP3    H130764   6.574   0.241  13.389 -1.7365  0.6196 -0.9560
 3091TIP3    H230765   6.677   0.332  13.325 -1.2887  1.0015  0.2779
 3092TIP3   OH230766   0.955   0.746   2.814  0.1975  0.1860 -0.2981
 3092TIP3    H130767   1.004   0.674   2.854  2.6443  2.0106  0.1992
 3092TIP3    H230768   0.873   0.749   2.864  0.1670 -1.9932 -0.1107
 3093TIP3   OH230769   5.299   5.699  13.592 -0.4137 -0.4545 -0.1093
 3093TIP3    H130770   5.266   5.771  13.538 -0.8425 -0.0325  0.7033
 3093TIP3    H230771   5.381   5.731  13.628 -0.4307 -0.5023 -0.0271
 3094TIP3   OH230772   5.094   0.267  13.066  0.1117  0.1845 -0.3790
 3094TIP3    H130773   5.141   0.297  12.988 -0.3246 -0.5861 -0.9510
 3094TIP3    H230774   5.108   0.172  13.067  2.2815  0.4283  1.9394
 3095TIP3   OH230775   2.312   1.779  10.624 -0.5800  0.1624 -0.2871
 3095TIP3    H130776   2.303   1.708  10.560  0.5912 -0.2628 -0.0082
 3095TIP3    H230777   2.349   1.851  10.573 -3.0005  1.0870 -0.8834
 3096TIP3   OH230778   1.555   3.469  12.553  0.0648  0.1365 -0.2998
 3096TIP3    H130779   1.546   3.402  12.485  0.5097 -2.2240  1.8006
 3096TIP3    H230780   1.645   3.461  12.583 -0.4235  0.3112  1.3100
 3097TIP3   OH230781   5.950   2.951  16.794 -0.1559 -0.5171  0.7964
 3097TIP3    H130782   6.008   2.964  16.870 -0.2743  0.7227  0.6893
 3097TIP3    H230783   5.924   3.039  16.768 -0.6625 -0.9666 -0.2791
 3098TIP3   OH230784   5.363   1.254  16.821  0.5817  0.3391 -0.4265
 3098TIP3    H130785   5.374   1.159  16.828  1.6118  0.5215  0.5950
 3098TIP3    H230786   5.452   1.288  16.811  0.3680  1.3152  0.8039
 3099TIP3   OH230787   2.597   1.747  12.902 -0.2550 -0.6512  0.4001
 3099TIP3    H130788   2.690   1.758  12.886 -0.3824 -0.3507 -0.1365
 3099TIP3    H230789   2.593   1.694  12.982  0.3748  0.2393  1.0437
 3100TIP3   OH230790   6.036   5.610   2.361  0.1809 -0.1647 -0.5934
 3100TIP3    H130791   5.967   5.660   2.404 -0.2102 -1.6699  0.6574
 3100TIP3    H230792   6.094   5.675   2.323 -1.0363  1.1720 -0.2361
 3101TIP3   OH230793   1.099   5.576   3.302  0.1895 -0.5232  0.3315
 3101TIP3    H130794   1.007   5.573   3.274 -0.7545 -0.5316  3.0871
 3101TIP3    H230795   1.103   5.653   3.360  1.2324 -1.9435  2.2688
 3102TIP3   OH230796   2.131   1.650  15.966 -0.5319 -0.3464  0.0762
 3102TIP3    H130797   2.058   1.711  15.960  0.1504  0.3553 -1.7056
 3102TIP3    H230798   2.090   1.563  15.968 -1.5104  0.0666  2.6160
 3103TIP3   OH230799   6.037   3.081   0.624  0.3757 -0.7401  0.0720
 3103TIP3    H130800   5.969   3.146   0.612 -0.1437 -1.5727 -1.8617
 3103TIP3    H230801   5.993   2.997   0.610  1.3841 -1.4062  0.7678
 3104TIP3   OH230802   5.370   1.796  13.813  0.0647 -0.5032 -0.0174
 3104TIP3    H130803   5.382   1.723  13.873  0.8470  0.2483  0.7715
 3104TIP3    H230804   5.284   1.831  13.836  0.6353  0.1876  1.1541
 3105TIP3   OH230805   4.721   2.365  10.934 -0.1326 -0.1577 -0.5040
 3105TIP3    H130806   4.740   2.437  10.873 -0.7389  0.0957 -0.3987
 3105TIP3    H230807   4.677   2.408  11.008  0.6902 -0.4427  0.1670
 3106TIP3   OH230808   0.365   2.461  13.283  0.9218 -0.4797 -0.3259
 3106TIP3    H130809   0.450   2.455  13.325  1.2653  0.0484 -0.9362
 3106TIP3    H230810   0.319   2.530  13.331  2.0141  1.4992 -1.9561
 3107TIP3   OH230811   6.529   0.064  16.356  0.2311 -0.2750 -0.0794
 3107TIP3    H130812   6.543   0.139  16.414 -2.1133 -0.0070  0.2535
 3107TIP3    H230813   6.526  -0.012  16.414 -0.5067 -0.2161 -0.0379
 3108TIP3   OH230814   6.078   0.269  15.722  0.2750  0.1677 -0.0974
 3108TIP3    H130815   6.008   0.205  15.736 -0.6031  0.8413 -1.2286
 3108TIP3    H230816   6.155   0.216  15.703 -0.8165 -0.6133 -2.7561
 3109TIP3   OH230817   3.799   1.947   2.530 -0.0773  0.0974 -0.0571
 3109TIP3    H130818   3.865   2.005   2.568  0.0373 -0.0532 -0.0288
 3109TIP3    H230819   3.826   1.859   2.555 -0.1151  0.0111 -0.3149
 3110TIP3   OH230820   1.227   1.438  13.190 -0.3259  0.4000 -0.6791
 3110TIP3    H130821   1.169   1.456  13.264  2.2986  1.6603  1.2520
 3110TIP3    H230822   1.174   1.456  13.113 -2.5975  1.0657  0.9408
 3111TIP3   OH230823   6.181   4.688  14.808  0.3824  0.0352 -0.6844
 3111TIP3    H130824   6.198   4.734  14.891 -0.3190 -0.7418 -0.0839
 3111TIP3    H230825   6.087   4.701  14.793  0.2036 -1.0783 -0.5692
 3112TIP3   OH230826   2.746   2.048   6.797  0.2583 -0.4532 -0.0868
 3112TIP3    H130827   2.776   2.066   6.708 -0.0955 -0.5417 -0.2270
 3112TIP3    H230828   2.758   2.130   6.844 -2.4817  0.5755 -1.0245
 3113TIP3   OH230829   0.464   1.725   5.715 -0.2965  0.2028 -0.6000
 3113TIP3    H130830   0.469   1.744   5.809  1.3240  0.2142 -0.6608
 3113TIP3    H230831   0.481   1.631   5.708 -0.9968  0.0862 -0.8566
 3114TIP3   OH230832   4.582   4.937   0.078 -0.0685  0.4929  0.6393
 3114TIP3    H130833   4.564   4.887   0.157 -0.8989  0.3522  0.3692
 3114TIP3    H230834   4.566   5.028   0.103  1.1646  0.6067  1.0512
 3115TIP3   OH230835   1.934   1.121  12.837  0.1513 -0.3732 -0.0312
 3115TIP3    H130836   1.985   1.200  12.822 -1.8990  0.8929 -0.6321
 3115TIP3    H230837   1.975   1.056  12.779  0.6485  0.7777 -1.0124
 3116TIP3   OH230838   5.485   4.004   3.546  0.4293 -0.0170 -0.3275
 3116TIP3    H130839   5.484   3.988   3.641 -2.2297  0.8801 -0.1229
 3116TIP3    H230840   5.448   4.092   3.537  0.1254 -0.3121 -2.2522
 3117TIP3   OH230841   1.791   3.899  13.439  0.2136  0.3621 -0.1394
 3117TIP3    H130842   1.725   3.875  13.504  0.3336  1.3705  0.3907
 3117TIP3    H230843   1.776   3.841  13.366 -1.2221  0.5228 -0.0000
 3118TIP3   OH230844   5.463   0.001  16.049 -0.1493  0.1027  1.2056
 3118TIP3    H130845   5.538  -0.049  16.080  0.4510  1.6406  2.2940
 3118TIP3    H230846   5.487   0.028  15.960  0.1788 -0.1903  1.2052
 3119TIP3   OH230847   3.520   0.708  13.322  0.1947 -0.1429  0.3403
 3119TIP3    H130848   3.557   0.632  13.367  1.7432  0.4772  0.1822
 3119TIP3    H230849   3.573   0.782  13.352 -0.3634  0.6556 -0.5890
 3120TIP3   OH230850   1.385   6.752  13.664  0.0097 -0.0826  0.2510
 3120TIP3    H130851   1.429   6.810  13.726 -1.0029 -0.0810  1.0026
 3120TIP3    H230852   1.327   6.809  13.614 -2.3626 -0.5599  2.2043
 3121TIP3   OH230853   6.128   4.668   3.525  0.3959  0.0283  0.0373
 3121TIP3    H130854   6.085   4.623   3.452  2.3203 -0.3900 -0.8884
 3121TIP3    H230855   6.165   4.598   3.579  0.3958  0.4021  0.5379
 3122TIP3   OH230856   0.481   2.807  15.708  0.2176  0.3608  0.7653
 3122TIP3    H130857   0.484   2.775  15.618  1.4575  1.0484  0.5432
 3122TIP3    H230858   0.512   2.734  15.761  3.8823  1.3187  0.1836
 3123TIP3   OH230859   1.495   3.020  13.103 -0.5791 -0.5854 -0.1253
 3123TIP3    H130860   1.541   3.076  13.041 -2.0082  0.1879 -0.5067
 3123TIP3    H230861   1.473   2.941  13.053 -1.3200 -0.1586 -0.4810
 3124TIP3   OH230862   4.992   1.405  15.253 -0.0497  0.4613  0.1229
 3124TIP3    H130863   4.914   1.350  15.252  0.6564 -0.6621 -3.0138
 3124TIP3    H230864   4.961   1.491  15.226 -0.0303 -0.5496 -3.6936
 3125TIP3   OH230865   1.062   0.210  16.056 -0.3898 -0.2362 -0.3730
 3125TIP3    H130866   0.985   0.223  16.000 -0.8570 -0.3138  0.2371
 3125TIP3    H230867   1.093   0.298  16.075 -0.8787 -0.1639  0.1194
 3126TIP3   OH230868   3.159   0.637   2.274  0.1799 -0.0897  0.1430
 3126TIP3    H130869   3.152   0.662   2.366  0.2643  0.7027 -0.0583
 3126TIP3    H230870   3.184   0.718   2.229  0.9778 -0.6560 -0.4583
 3127TIP3   OH230871   1.073   6.131  13.960  0.0768  0.3272 -0.0878
 3127TIP3    H130872   1.134   6.176  14.018  0.5942 -0.7687  0.2404
 3127TIP3    H230873   1.017   6.201  13.925  0.3149  1.1158  1.0465
 3128TIP3   OH230874   0.826   1.391   0.712  0.3152  0.2563 -0.1728
 3128TIP3    H130875   0.817   1.296   0.716  0.6032  0.2279 -0.1820
 3128TIP3    H230876   0.808   1.414   0.621  0.6713  0.1645 -0.2679
 3129TIP3   OH230877   1.147   0.133  13.268  0.4730  0.1352 -0.3885
 3129TIP3    H130878   1.067   0.081  13.270  0.1821  0.5881  1.3710
 3129TIP3    H230879   1.214   0.078  13.308  1.4252 -0.7242 -2.9463
 3130TIP3   OH230880   4.624   4.741  17.163  0.3977 -0.2607 -0.2779
 3130TIP3    H130881   4.627   4.806  17.233  0.3358  0.3032 -0.7932
 3130TIP3    H230882   4.570   4.781  17.096  1.5257 -0.2375 -1.2074
 3131TIP3   OH230883   4.768   5.258  12.504 -0.2345  0.1753  0.0173
 3131TIP3    H130884   4.751   5.256  12.409 -0.3488  0.2789  0.0354
 3131TIP3    H230885   4.843   5.199  12.516 -1.0211 -0.8604  0.0274
 3132TIP3   OH230886   6.583   4.842   4.593 -0.6749  0.1966  0.2544
 3132TIP3    H130887   6.515   4.783   4.626 -0.8353  0.4851  0.4572
 3132TIP3    H230888   6.656   4.831   4.654 -0.7487  0.2862  0.3622
 3133TIP3   OH230889   2.698   1.762  15.443 -0.2677  0.1052 -0.1885
 3133TIP3    H130890   2.723   1.685  15.494 -0.5747 -0.5719 -1.0448
 3133TIP3    H230891   2.692   1.832  15.508  0.1842 -0.5472  0.5761
 3134TIP3   OH230892   0.993   3.054   4.377  0.5416 -0.1607  0.2524
 3134TIP3    H130893   1.065   3.106   4.414 -0.2218  1.7534 -0.8142
 3134TIP3    H230894   0.925   3.055   4.445  0.0501  1.3496 -0.2262
 3135TIP3   OH230895   0.975   6.817   4.978 -0.2856 -0.7128 -0.1194
 3135TIP3    H130896   0.926   6.737   4.997 -0.4032 -0.3318  1.2830
 3135TIP3    H230897   0.966   6.871   5.057  1.3578 -0.1082 -0.2911
 3136TIP3   OH230898   3.373   3.094   4.713 -0.1834 -0.1930 -0.4284
 3136TIP3    H130899   3.334   3.181   4.725  0.7112  0.2659 -0.7293
 3136TIP3    H230900   3.467   3.111   4.708  0.2019 -1.4341  1.7488
 3137TIP3   OH230901   1.927   2.023   0.713  0.4032 -0.2678 -0.3931
 3137TIP3    H130902   1.916   1.956   0.645  1.6586 -1.4062  0.4536
 3137TIP3    H230903   1.995   2.081   0.679 -0.9031  0.7733 -1.2602
 3138TIP3   OH230904   6.592   4.552   4.386 -0.2140  0.1451 -0.2268
 3138TIP3    H130905   6.538   4.546   4.307 -0.1818  0.8174 -0.3055
 3138TIP3    H230906   6.648   4.628   4.371  0.5394 -0.3559 -0.0117
 3139TIP3   OH230907   3.809   4.850   3.086 -0.0156  0.0417  0.2293
 3139TIP3    H130908   3.847   4.764   3.105  1.1997  0.6087  0.4208
 3139TIP3    H230909   3.731   4.830   3.033  1.0542 -1.1182 -0.9869
 3140TIP3   OH230910   0.237   1.476   2.350  0.9028 -0.6092 -0.7931
 3140TIP3    H130911   0.152   1.493   2.309  0.9572 -1.5900 -1.3388
 3140TIP3    H230912   0.254   1.384   2.331  2.5713 -0.1636 -1.5913
 3141TIP3   OH230913   5.961   0.052   1.991 -0.0067 -0.0184  0.2016
 3141TIP3    H130914   6.038   0.075   1.940  0.4766  0.5338  1.1320
 3141TIP3    H230915   5.996   0.018   2.073 -0.7573 -0.9244  0.1621
 3142TIP3   OH230916   0.495   2.585  13.604  0.4576  0.2049 -0.0179
 3142TIP3    H130917   0.561   2.587  13.534  0.1967 -0.6839 -0.3017
 3142TIP3    H230918   0.543   2.554  13.681 -0.1868 -3.4988 -0.9315
 3143TIP3   OH230919   0.019   3.234   3.082  0.0268 -0.0276 -0.8259
 3143TIP3    H130920   0.107   3.261   3.109 -1.0374  1.3448  1.6231
 3143TIP3    H230921  -0.039   3.281   3.141 -2.2420 -3.4325 -0.0522
 3144TIP3   OH230922   5.847   5.695   5.869  0.0395 -0.0336  0.3746
 3144TIP3    H130923   5.836   5.749   5.948 -2.5549 -0.2268  0.2317
 3144TIP3    H230924   5.758   5.670   5.845  0.9468 -1.8089 -1.3782
 3145TIP3   OH230925   4.124   3.606   0.954 -0.1058 -0.2302  0.7321
 3145TIP3    H130926   4.046   3.630   0.905  0.2886 -2.4288 -1.0783
 3145TIP3    H230927   4.192   3.665   0.920 -0.5395  0.4618  1.0273
 3146TIP3   OH230928   3.881   4.789   0.787 -0.0590 -0.6417  0.1743
 3146TIP3    H130929   3.821   4.857   0.758  1.1070  0.2229 -0.2914
 3146TIP3    H230930   3.891   4.802   0.881 -1.3458 -1.4220  0.4419
 3147TIP3   OH230931   0.439   1.779   3.525 -0.3990  0.3334  0.3916
 3147TIP3    H130932   0.379   1.790   3.599 -1.8077  0.5553 -0.7339
 3147TIP3    H230933   0.403   1.836   3.456  0.3357 -0.5734 -0.7853
 3148TIP3   OH230934   5.474   0.328   4.269  0.3069 -0.4167 -0.1612
 3148TIP3    H130935   5.494   0.345   4.177  0.0151 -0.6098 -0.2615
 3148TIP3    H230936   5.546   0.274   4.301 -0.4484 -1.8176 -0.7366
 3149TIP3   OH230937   1.302   2.608   2.458  0.3055  0.3081 -0.3309
 3149TIP3    H130938   1.279   2.576   2.545 -0.8257  0.6553 -0.4932
 3149TIP3    H230939   1.219   2.614   2.411  0.7650  1.2297 -1.0668
 3150TIP3   OH230940   1.282   2.860  13.708 -0.6097 -0.0413 -0.3666
 3150TIP3    H130941   1.187   2.863  13.709 -0.6293 -0.1570 -1.1484
 3150TIP3    H230942   1.308   2.940  13.663 -0.3644 -0.3421 -0.7703
 3151TIP3   OH230943   3.322   6.211  14.917 -0.5981 -0.2906 -0.2597
 3151TIP3    H130944   3.314   6.301  14.886  1.5285  0.1653  0.3663
 3151TIP3    H230945   3.369   6.166  14.846  0.9219 -0.1539  0.6108
 3152TIP3   OH230946   6.157   3.415   4.380 -0.2571  0.2779 -0.0195
 3152TIP3    H130947   6.237   3.364   4.388 -0.4984 -0.1740 -0.4095
 3152TIP3    H230948   6.144   3.426   4.286 -0.4748  0.6285  0.0490
 3153TIP3   OH230949   4.756   6.691  12.327 -0.7545 -0.0063  0.4044
 3153TIP3    H130950   4.709   6.724  12.403  0.4048 -0.3558  1.3167
 3153TIP3    H230951   4.767   6.767  12.271 -2.9047 -0.0428 -0.1475
 3154TIP3   OH230952   6.620   4.305   1.325  0.7995 -0.0027 -0.3684
 3154TIP3    H130953   6.594   4.353   1.247 -0.0440  0.5107  0.2171
 3154TIP3    H230954   6.559   4.334   1.393  1.6159 -0.3154  0.5222
 3155TIP3   OH230955   4.176   0.105  13.093  0.0098 -0.4100 -0.0267
 3155TIP3    H130956   4.189   0.112  13.188  0.4852  1.0177 -0.1722
 3155TIP3    H230957   4.117   0.178  13.072  0.6412 -0.1614 -0.9571
 3156TIP3   OH230958   3.664   1.822  13.743  0.2575  0.0504  0.3507
 3156TIP3    H130959   3.624   1.814  13.656 -0.5271 -0.1839  0.7205
 3156TIP3    H230960   3.591   1.845  13.801  0.7362  0.0218  0.9776
 3157TIP3   OH230961   6.280   0.682  16.907  0.0793  0.1102 -0.4026
 3157TIP3    H130962   6.366   0.712  16.937 -0.6228  1.8686 -0.0315
 3157TIP3    H230963   6.240   0.643  16.985 -0.5681  1.9682  0.2625
 3158TIP3   OH230964   2.758   2.475   3.638 -0.3155  0.0759  0.3212
 3158TIP3    H130965   2.786   2.567   3.642  1.8140 -0.4791 -0.2883
 3158TIP3    H230966   2.739   2.460   3.545  0.6799 -0.4357  0.1906
 3159TIP3   OH230967   0.658   6.789  15.785  0.2655  0.4372  0.1478
 3159TIP3    H130968   0.735   6.778  15.731  0.8352  0.6669  0.8929
 3159TIP3    H230969   0.590   6.737  15.742  0.1762  2.0413 -1.7696
 3160TIP3   OH230970   5.787   4.186   2.875 -0.0452 -0.7541  0.8522
 3160TIP3    H130971   5.844   4.111   2.858  0.7083  0.3110 -1.9770
 3160TIP3    H230972   5.730   4.191   2.798 -1.7026  0.1990  2.0741
 3161TIP3   OH230973   1.966   4.565   2.415  0.2177 -0.8469 -0.9124
 3161TIP3    H130974   1.964   4.626   2.341 -1.2116  0.2940  0.0284
 3161TIP3    H230975   2.054   4.575   2.452  1.1379 -1.8075 -2.6998
 3162TIP3   OH230976   2.820   1.415   2.788 -0.1472 -0.3168 -0.2059
 3162TIP3    H130977   2.849   1.436   2.876 -0.6173 -0.8775  0.0893
 3162TIP3    H230978   2.725   1.429   2.790 -0.1160  0.0042 -0.7216
 3163TIP3   OH230979   4.168   1.781   3.463  0.1191 -0.4713  0.7313
 3163TIP3    H130980   4.108   1.805   3.535  0.2486  0.5375  0.5212
 3163TIP3    H230981   4.249   1.828   3.483 -0.0753  0.4148 -0.4375
 3164TIP3   OH230982   3.143   1.544   3.924  0.1920 -0.1039  0.0555
 3164TIP3    H130983   3.104   1.534   4.011  1.1504  0.9990  0.6421
 3164TIP3    H230984   3.158   1.454   3.895 -1.9909 -0.5587  0.1336
 3165TIP3   OH230985   2.933   2.752  12.118 -0.0029  0.2851  0.2739
 3165TIP3    H130986   2.975   2.710  12.043  0.5107 -0.0673  0.7599
 3165TIP3    H230987   2.993   2.738  12.191  0.1403  1.7753  0.4718
 3166TIP3   OH230988   2.085   4.977  15.428  0.9176 -0.1654 -0.2503
 3166TIP3    H130989   2.050   5.011  15.346  1.1393  0.0883 -0.2389
 3166TIP3    H230990   2.050   5.035  15.495  0.4700 -0.5682 -0.1296
 3167TIP3   OH230991   4.787   2.779  12.359  0.4564 -0.2282  0.1810
 3167TIP3    H130992   4.817   2.740  12.277 -1.1640  0.4242 -0.7636
 3167TIP3    H230993   4.728   2.849  12.332 -0.1347 -0.0166  1.9034
 3168TIP3   OH230994   4.634   2.546  13.095 -0.1218 -0.0229 -0.3944
 3168TIP3    H130995   4.661   2.625  13.049 -0.3424  0.2089 -0.1270
 3168TIP3    H230996   4.558   2.572  13.146  0.9524  0.0996  1.2273
 3169TIP3   OH230997   1.600   5.240  16.487 -0.3206  0.2839 -0.0017
 3169TIP3    H130998   1.583   5.205  16.574  0.0203  0.4113  0.1180
 3169TIP3    H230999   1.517   5.280  16.461 -0.0422  1.5177  0.8660
 3170TIP3   OH231000   0.687   5.421  13.133 -0.5375 -0.0520 -0.2245
 3170TIP3    H131001   0.644   5.493  13.087 -1.1576  0.7297  1.4747
 3170TIP3    H231002   0.780   5.443  13.131 -0.7955  1.4084  1.1415
 3171TIP3   OH231003   3.944   3.595  15.907 -0.4567 -0.0711 -0.9784
 3171TIP3    H131004   3.848   3.590  15.905 -0.4511 -0.8033 -0.4210
 3171TIP3    H231005   3.966   3.581  16.000  0.0815  3.0068 -0.5372
 3172TIP3   OH231006   1.804   5.955   4.482 -0.2047 -0.8071  0.0809
 3172TIP3    H131007   1.767   6.038   4.514 -0.2003 -0.9114  0.3667
 3172TIP3    H231008   1.886   5.980   4.440 -0.4038 -0.6192 -0.2025
 3173TIP3   OH231009   1.921   5.719  13.976 -0.9506 -0.0337 -0.2393
 3173TIP3    H131010   1.855   5.729  13.908 -0.6400  0.0746 -0.5304
 3173TIP3    H231011   1.944   5.809  14.000 -0.1014 -0.0480 -0.9414
 3174TIP3   OH231012   3.807   2.348  13.404  0.4294 -0.0697 -0.0994
 3174TIP3    H131013   3.813   2.258  13.434  0.0468  0.2744  1.0601
 3174TIP3    H231014   3.816   2.401  13.484  0.8511  0.9224 -0.7807
 3175TIP3   OH231015   3.506   5.421   1.501  0.3689 -0.3070 -0.2206
 3175TIP3    H131016   3.512   5.456   1.412  0.3248 -1.0546 -0.5231
 3175TIP3    H231017   3.471   5.494   1.552 -0.5001 -0.1464 -0.9945
 3176TIP3   OH231018   6.235   5.827   2.314  0.1764  0.1908 -0.8342
 3176TIP3    H131019   6.168   5.843   2.248  0.1788 -1.1325 -1.1729
 3176TIP3    H231020   6.311   5.798   2.264  0.8374  1.1082 -0.4017
 3177TIP3   OH231021   2.289   0.273   5.768 -0.2347 -0.1084 -0.5159
 3177TIP3    H131022   2.384   0.275   5.778 -0.3324  0.2180  0.5800
 3177TIP3    H231023   2.273   0.225   5.687  0.7964 -2.6763  0.6999
 3178TIP3   OH231024   4.575   3.113  16.497 -0.0033 -0.1237  0.1482
 3178TIP3    H131025   4.602   3.122  16.405  0.6025  1.2083  0.4337
 3178TIP3    H231026   4.498   3.170  16.505 -0.1921 -0.4163  0.4132
 3179TIP3   OH231027   2.753   2.277   2.855 -0.4252 -0.0316 -0.3155
 3179TIP3    H131028   2.805   2.196   2.855 -0.9041 -0.3453  0.5080
 3179TIP3    H231029   2.807   2.340   2.806  0.8006 -0.3127  0.6355
 3180TIP3   OH231030   6.418   6.227  15.997 -0.5069  0.1704 -0.4133
 3180TIP3    H131031   6.494   6.282  16.014 -0.5874  0.4052 -0.8092
 3180TIP3    H231032   6.442   6.141  16.032 -0.4127  0.4721  0.2761
 3181TIP3   OH231033   5.331   0.293  16.649  0.0938  0.4819  0.3017
 3181TIP3    H131034   5.356   0.386  16.641  1.1095  0.1148 -1.1258
 3181TIP3    H231035   5.245   0.295  16.690  0.9681  1.9722  2.2273
 3182TIP3   OH231036   1.987   0.475   2.432  0.1099 -0.5206  0.6944
 3182TIP3    H131037   1.927   0.408   2.465 -0.2919 -1.1137 -1.0803
 3182TIP3    H231038   1.935   0.523   2.367  0.9011  0.4117  0.7431
 3183TIP3   OH231039   2.236   0.924  13.806 -0.3736  0.1962  0.1370
 3183TIP3    H131040   2.267   0.938  13.717 -1.4316  2.1092  0.0129
 3183TIP3    H231041   2.269   0.837  13.830  1.8338  0.5781 -1.2857
 3184TIP3   OH231042   1.861   2.403  14.163  0.1378  1.3217 -0.1735
 3184TIP3    H131043   1.945   2.370  14.133 -0.8884 -0.9933 -0.7567
 3184TIP3    H231044   1.835   2.342  14.233 -0.7050  2.4599  0.5391
 3185TIP3   OH231045   4.426   0.134   1.809 -0.5538  0.1429  0.2709
 3185TIP3    H131046   4.495   0.078   1.846 -0.3489 -1.5774 -2.4871
 3185TIP3    H231047   4.473   0.199   1.757 -0.9359  1.0076  0.9730
 3186TIP3   OH231048   6.682   1.873   0.768  0.4363  0.0669  0.1745
 3186TIP3    H131049   6.676   1.968   0.758 -1.1758  0.0647  0.7593
 3186TIP3    H231050   6.739   1.860   0.844 -0.5185  0.6432  1.0206
 3187TIP3   OH231051   4.816   3.733   5.594 -0.0973 -0.3418  0.2585
 3187TIP3    H131052   4.877   3.770   5.530 -0.7650  0.0266 -0.1926
 3187TIP3    H231053   4.871   3.702   5.666  0.7869 -1.9214 -1.0342
 3188TIP3   OH231054   2.025   0.425   4.104  0.0064 -0.5435  0.0056
 3188TIP3    H131055   2.022   0.369   4.027  0.5606  0.1905 -0.5646
 3188TIP3    H231056   2.119   0.438   4.120 -0.0950  1.1764 -0.5990
 3189TIP3   OH231057   0.682   2.676   4.805  0.1681  0.6643  0.0100
 3189TIP3    H131058   0.738   2.741   4.762  1.7452 -0.0187  0.9494
 3189TIP3    H231059   0.724   2.592   4.785 -0.5577  0.1176  0.7225
 3190TIP3   OH231060   0.608   5.087  14.121  0.3071 -0.0298 -0.2773
 3190TIP3    H131061   0.662   5.018  14.158  0.3082  0.4842  0.7123
 3190TIP3    H231062   0.533   5.094  14.181 -0.0907  0.2846 -0.8034
 3191TIP3   OH231063   5.907   2.849   0.612  0.3175 -0.0643 -0.6668
 3191TIP3    H131064   5.818   2.814   0.613  1.0741 -2.1312 -1.0991
 3191TIP3    H231065   5.947   2.811   0.533  2.1103 -0.5918  0.4400
 3192TIP3   OH231066   4.658   0.258   1.930 -0.2557  0.1893  0.3137
 3192TIP3    H131067   4.618   0.324   1.874  0.0972  0.1328 -0.0093
 3192TIP3    H231068   4.743   0.294   1.953 -1.2342  1.1780  2.5996
 3193TIP3   OH231069   0.430   3.677  11.595  0.2330 -0.0404 -0.6569
 3193TIP3    H131070   0.473   3.725  11.665 -0.0711  0.2617 -0.6713
 3193TIP3    H231071   0.376   3.743  11.551 -1.7584 -0.7770  0.5420
 3194TIP3   OH231072   2.098   3.184   3.677 -0.0236  0.2115  0.0001
 3194TIP3    H131073   2.184   3.173   3.636 -1.5580  0.3392 -3.5839
 3194TIP3    H231074   2.058   3.097   3.673 -0.4947  0.3952  0.5512
 3195TIP3   OH231075   6.399   6.368  13.449  0.5220 -0.2121  0.1370
 3195TIP3    H131076   6.386   6.302  13.381  1.0436  1.2664 -1.4844
 3195TIP3    H231077   6.327   6.429  13.437  0.9578  0.3914  0.5265
 3196TIP3   OH231078   0.877   5.466  16.180  0.2666  0.0145 -0.0019
 3196TIP3    H131079   0.811   5.432  16.120 -0.6980  2.7907 -0.6617
 3196TIP3    H231080   0.961   5.442  16.140 -0.3487 -0.1533 -1.2345
 3197TIP3   OH231081   2.274   3.096  15.188 -0.0573 -0.1025  0.1358
 3197TIP3    H131082   2.311   3.134  15.109 -0.4396 -0.4478 -0.2113
 3197TIP3    H231083   2.310   3.150  15.259  0.2518  0.2355 -0.2708
 3198TIP3   OH231084   6.741   2.219   2.669 -0.3750 -0.5713 -0.1121
 3198TIP3    H131085   6.687   2.289   2.635 -0.1413  0.0459  0.7544
 3198TIP3    H231086   6.693   2.185   2.744 -0.3486 -1.1512 -0.3482
 3199TIP3   OH231087   6.817   4.718   0.690  0.8290 -0.1079  0.1640
 3199TIP3    H131088   6.760   4.767   0.749  1.0280  3.3882 -2.2483
 3199TIP3    H231089   6.757   4.672   0.632  0.5755 -0.5662  0.7822
 3200TIP3   OH231090   2.058   1.146  13.171 -0.0386  0.3167 -0.0353
 3200TIP3    H131091   2.024   1.124  13.085 -0.2795 -1.7140  0.5240
 3200TIP3    H231092   2.019   1.230  13.192 -2.8982 -0.8057 -0.4057
 3201TIP3   OH231093   2.537   1.648   3.283 -0.2367 -0.2810 -1.0376
 3201TIP3    H131094   2.450   1.611   3.296 -0.1032 -0.7073 -1.3276
 3201TIP3    H231095   2.562   1.621   3.194 -0.6760  1.6496 -1.7850
 3202TIP3   OH231096   0.058   3.959  13.547  0.5172 -0.4327 -0.3174
 3202TIP3    H131097   0.117   3.908  13.493  1.1253  0.8156 -0.8683
 3202TIP3    H231098   0.100   4.044  13.556  0.5627 -0.6522  2.3378
 3203TIP3   OH231099   6.035   4.934   6.177 -0.2542 -0.1942  0.5187
 3203TIP3    H131100   5.955   4.976   6.146 -0.7005 -1.3462  0.0726
 3203TIP3    H231101   6.005   4.857   6.225  0.5275  0.2759  1.8243
 3204TIP3   OH231102   1.797   5.022  13.099 -0.3525 -0.2967  0.1253
 3204TIP3    H131103   1.817   4.949  13.041 -1.5316 -0.4611 -0.0997
 3204TIP3    H231104   1.882   5.049  13.134  0.3630 -0.3702 -1.4624
 3205TIP3   OH231105   3.339   2.017   3.330  0.1206  0.5252 -0.1515
 3205TIP3    H131106   3.278   2.091   3.334 -1.3019 -0.6002 -0.2768
 3205TIP3    H231107   3.333   1.977   3.417  2.8412  1.9910  0.8320
 3206TIP3   OH231108   3.874   2.378   1.750  0.3907 -0.3846  0.0297
 3206TIP3    H131109   3.969   2.361   1.745  0.5983  0.9286 -1.1240
 3206TIP3    H231110   3.840   2.345   1.667  0.0336  0.2625 -0.0863
 3207TIP3   OH231111   5.960   0.979  13.556 -0.3819 -0.6362 -0.1490
 3207TIP3    H131112   6.033   0.942  13.506 -0.3902 -1.0730  0.1595
 3207TIP3    H231113   5.986   0.971  13.647  0.1893  1.3372 -0.0959
 3208TIP3   OH231114   3.640   6.698  16.583 -0.1708  0.1956 -0.4469
 3208TIP3    H131115   3.612   6.780  16.543 -0.8239 -0.3857 -1.2127
 3208TIP3    H231116   3.735   6.707  16.591 -0.2252  0.9925 -0.5999
 3209TIP3   OH231117   1.396   4.313   2.134  0.5232 -0.0424  0.7176
 3209TIP3    H131118   1.314   4.354   2.163  0.2058 -1.1926  1.5474
 3209TIP3    H231119   1.374   4.220   2.124  1.8177 -0.4376  1.3195
 3210TIP3   OH231120   4.156   0.816  13.847 -0.4007  0.4319  0.2087
 3210TIP3    H131121   4.136   0.723  13.858 -0.0662  0.4504  1.0642
 3210TIP3    H231122   4.250   0.818  13.828 -0.6461  0.5227 -1.1277
 3211TIP3   OH231123   3.046   1.376   2.314  0.0208  0.1951 -0.4499
 3211TIP3    H131124   3.112   1.307   2.317 -2.0825 -1.9576 -0.4333
 3211TIP3    H231125   3.025   1.385   2.221 -0.6906 -0.2196 -0.3354
 3212TIP3   OH231126   3.784   4.262  15.947 -0.3617  0.0029  0.0692
 3212TIP3    H131127   3.796   4.186  16.003 -1.8157 -0.6340 -0.4489
 3212TIP3    H231128   3.853   4.323  15.974 -2.4742  0.8707  4.4101
 3213TIP3   OH231129   0.179   3.052   3.683 -0.1932 -0.3405  0.3827
 3213TIP3    H131130   0.213   3.097   3.605 -1.2018 -1.3567 -0.6743
 3213TIP3    H231131   0.182   3.119   3.751  2.4349  0.0662 -0.0183
 3214TIP3   OH231132   6.587   6.022   0.748  0.1860 -0.1742  0.3840
 3214TIP3    H131133   6.647   6.080   0.796 -0.9456  0.9603  0.4663
 3214TIP3    H231134   6.509   6.075   0.733  0.1991 -0.7495 -2.0378
 3215TIP3   OH231135   6.168   4.771  15.085  0.6635 -0.0118  0.4993
 3215TIP3    H131136   6.083   4.811  15.104  0.7620 -0.2839  1.5768
 3215TIP3    H231137   6.187   4.717  15.162  3.4844  2.8276  2.0632
 3216TIP3   OH231138   5.912   0.607  16.288 -0.1809 -0.3859 -0.4540
 3216TIP3    H131139   5.990   0.599  16.233 -0.5759 -0.7617 -0.9696
 3216TIP3    H231140   5.841   0.574  16.234 -0.7671  0.2950 -0.1224
 3217TIP3   OH231141   1.093   0.793   4.160 -0.2526 -0.1030  0.0413
 3217TIP3    H131142   1.064   0.742   4.084 -0.8425  0.6194 -0.2257
 3217TIP3    H231143   1.174   0.834   4.132 -1.0324  1.0462 -0.6022
 3218TIP3   OH231144   3.252   4.937   5.499  0.4733  0.1056  0.0537
 3218TIP3    H131145   3.293   4.880   5.564  0.1992  1.2940  1.3170
 3218TIP3    H231146   3.214   4.876   5.435  2.4902 -1.0475 -0.1221
 3219TIP3   OH231147   4.893   2.631  15.573 -0.2299  0.6141  0.7129
 3219TIP3    H131148   4.895   2.536  15.570  0.2741  0.6015  1.2839
 3219TIP3    H231149   4.917   2.653  15.663  1.2968  1.3110  0.1787
 3220TIP3   OH231150   3.316   1.960  14.083  0.1584 -0.2388 -0.2746
 3220TIP3    H131151   3.364   1.909  14.148  0.1662  1.5267  1.2041
 3220TIP3    H231152   3.225   1.956  14.110 -0.1825 -1.3695 -1.5173
 3221TIP3   OH231153   0.641   1.712   4.492 -0.4377 -0.4020  0.7482
 3221TIP3    H131154   0.670   1.680   4.407  0.0684  3.0153 -0.5287
 3221TIP3    H231155   0.547   1.728   4.481 -0.6621 -1.2877  1.3195
 3222TIP3   OH231156   2.805   4.499   4.086 -0.0647  0.7898 -0.1031
 3222TIP3    H131157   2.791   4.459   4.172 -2.4412  1.1643 -0.2311
 3222TIP3    H231158   2.803   4.426   4.025  2.7791  0.3844  0.1733
 3223TIP3   OH231159   1.616   4.112  12.277 -0.1822  0.6701  0.1760
 3223TIP3    H131160   1.622   4.100  12.372 -1.2151  0.0950  0.1834
 3223TIP3    H231161   1.596   4.205  12.266  2.5199  1.3541  0.3714
 3224TIP3   OH231162   3.330   4.772  10.789  0.2991 -0.8008 -0.3264
 3224TIP3    H131163   3.254   4.714  10.784  0.7554 -1.3754 -0.7183
 3224TIP3    H231164   3.378   4.755  10.708  0.6945 -0.2360 -0.2095
 3225TIP3   OH231165   1.843   4.355  13.444  0.3091  0.0544 -0.2563
 3225TIP3    H131166   1.855   4.345  13.538  1.6049  1.3787 -0.2480
 3225TIP3    H231167   1.787   4.432  13.435  0.7215  0.3213 -0.5766
 3226TIP3   OH231168   2.745   5.570  11.094 -0.1334  0.1438 -0.3534
 3226TIP3    H131169   2.837   5.546  11.080  0.6395  2.8951 -0.6254
 3226TIP3    H231170   2.705   5.565  11.007 -0.4755 -1.7253 -0.1275
 3227TIP3   OH231171   2.598   0.281   4.545 -0.1743 -0.0105  0.8157
 3227TIP3    H131172   2.682   0.325   4.555  0.7902 -1.4147 -0.7631
 3227TIP3    H231173   2.538   0.350   4.519  0.6699  0.8522  1.1022
 3228TIP3   OH231174   3.800   0.963   1.143 -0.1526  0.4038  0.0158
 3228TIP3    H131175   3.716   0.995   1.110 -0.5567 -0.5337  0.1250
 3228TIP3    H231176   3.786   0.952   1.237 -0.3843 -1.1946 -0.1878
 3229TIP3   OH231177   1.950   0.253  11.811 -0.2563  0.1231  0.4559
 3229TIP3    H131178   1.958   0.202  11.730  0.2633  0.9144  0.0006
 3229TIP3    H231179   1.858   0.243  11.837 -0.2875 -0.6007  0.0808
 3230TIP3   OH231180   6.630   4.748  13.556 -0.0828 -0.6119  0.1728
 3230TIP3    H131181   6.718   4.754  13.520 -0.7331 -1.0604 -1.5769
 3230TIP3    H231182   6.630   4.665  13.605  0.4001 -0.7152  0.0032
 3231TIP3   OH231183   2.390   2.792   4.872  0.2775 -0.6250  0.4449
 3231TIP3    H131184   2.369   2.848   4.797  2.4712 -2.1194 -1.4119
 3231TIP3    H231185   2.462   2.838   4.916 -0.1272 -0.4120  0.9055
 3232TIP3   OH231186   5.128   6.010   0.988 -0.2980 -0.4389 -0.7126
 3232TIP3    H131187   5.092   6.061   1.060 -2.3377 -1.5523 -0.8364
 3232TIP3    H231188   5.159   6.075   0.925  0.1364  0.5662  0.5091
 3233TIP3   OH231189   3.267   6.145  15.184  1.2987  0.6087  0.1427
 3233TIP3    H131190   3.353   6.157  15.225  2.6489 -2.4277 -1.5041
 3233TIP3    H231191   3.279   6.178  15.095  0.1975  1.6706  0.3648
 3234TIP3   OH231192   5.575   0.985  15.037  0.6786 -0.0923  0.9647
 3234TIP3    H131193   5.565   0.930  14.959 -0.0115 -0.5340  1.3564
 3234TIP3    H231194   5.667   0.974  15.062  1.1892  0.8488 -0.3575
 3235TIP3   OH231195   0.356   1.288   1.996  0.0515 -0.3049  0.1426
 3235TIP3    H131196   0.367   1.220   1.930 -1.4835 -1.2249  0.7760
 3235TIP3    H231197   0.285   1.343   1.962  1.3340  1.0570 -0.4008
 3236TIP3   OH231198   4.826   2.948  15.510  0.1224  0.1879  0.1859
 3236TIP3    H131199   4.759   2.896  15.554 -0.8219  1.1391 -0.0872
 3236TIP3    H231200   4.907   2.927  15.557 -0.5610 -0.1122  1.2683
 3237TIP3   OH231201   1.637   1.162  11.933  0.4458  0.8716  0.3609
 3237TIP3    H131202   1.559   1.208  11.964 -2.4829 -3.8520  1.1672
 3237TIP3    H231203   1.685   1.141  12.013 -2.8231 -4.2362  1.5214
 3238TIP3   OH231204   1.356   3.259   4.912  0.2624 -0.4042 -0.3954
 3238TIP3    H131205   1.316   3.236   4.996 -1.1126  1.0492 -0.6104
 3238TIP3    H231206   1.404   3.340   4.930  0.5202 -0.4511 -0.8577
 3239TIP3   OH231207   6.155   1.383  16.931  0.1967  0.3107  0.6204
 3239TIP3    H131208   6.173   1.460  16.878 -0.8143  1.4518  1.8481
 3239TIP3    H231209   6.135   1.314  16.868  0.7437  1.1502 -0.4959
 3240TIP3   OH231210   6.602   0.873   1.232 -0.0882 -0.0458 -0.2154
 3240TIP3    H131211   6.562   0.948   1.188 -0.7756  0.7722  1.6984
 3240TIP3    H231212   6.562   0.872   1.318  0.2427 -2.3833 -0.0342
 3241TIP3   OH231213   4.681   5.611   2.961 -0.0084  0.0846 -0.3925
 3241TIP3    H131214   4.641   5.581   2.879  0.9344  0.2242 -0.9220
 3241TIP3    H231215   4.697   5.531   3.011 -1.2254  0.0502 -0.0278
 3242TIP3   OH231216   6.329   3.714   6.699  0.7999 -0.3579 -0.5776
 3242TIP3    H131217   6.384   3.638   6.721 -1.0289 -0.9861  2.4371
 3242TIP3    H231218   6.244   3.676   6.676 -0.0845  0.7190  0.7850
 3243TIP3   OH231219   0.233   4.589  16.604 -0.7221 -0.5848 -0.3120
 3243TIP3    H131220   0.271   4.638  16.677 -1.0218 -1.2450  0.2967
 3243TIP3    H231221   0.165   4.647  16.569 -0.8558 -0.4362  0.1961
 3244TIP3   OH231222   6.232   4.987  16.326 -0.2234  0.0800 -0.8043
 3244TIP3    H131223   6.231   5.061  16.266 -2.6687 -0.1052 -1.0916
 3244TIP3    H231224   6.145   4.949  16.319 -0.0190 -1.0327  1.5391
 3245TIP3   OH231225   3.372   1.100  16.252  0.2032 -0.0048  0.0968
 3245TIP3    H131226   3.392   1.171  16.314 -3.1844 -0.0085  1.4135
 3245TIP3    H231227   3.352   1.145  16.170 -0.1911  0.4405  0.4306
 3246TIP3   OH231228   0.811   3.263   5.507  0.5110 -0.3041 -0.6868
 3246TIP3    H131229   0.829   3.184   5.455 -0.5962 -0.6692 -0.5450
 3246TIP3    H231230   0.747   3.234   5.572 -0.6267  0.9146 -1.2122
 3247TIP3   OH231231   0.582   6.522   3.454 -0.0861 -0.2652 -0.2862
 3247TIP3    H131232   0.527   6.532   3.377 -3.0980  0.3781  1.7916
 3247TIP3    H231233   0.584   6.428   3.470 -1.5174 -0.2421  0.1784
 3248TIP3   OH231234   1.691   5.051  11.503 -0.7546  0.7170 -0.2692
 3248TIP3    H131235   1.614   4.995  11.510 -0.5711  0.6684  2.5461
 3248TIP3    H231236   1.728   5.030  11.417 -1.7726 -2.0506 -0.1479
 3249TIP3   OH231237   5.970   5.427   0.850 -0.6192 -0.1561  0.1053
 3249TIP3    H131238   5.890   5.414   0.901  0.5685 -1.3560  1.7578
 3249TIP3    H231239   5.997   5.517   0.869 -1.0285 -0.0814  0.3272
 3250TIP3   OH231240   3.457   3.979   4.194 -0.2875  0.0676  0.2005
 3250TIP3    H131241   3.489   4.037   4.262 -3.3091  2.1777  0.0291
 3250TIP3    H231242   3.363   3.995   4.190 -1.1234 -3.8412 -0.9175
 3251TIP3   OH231243   5.232   5.748   1.341 -0.5039 -0.4894 -0.3486
 3251TIP3    H131244   5.227   5.812   1.413  1.1424 -0.4131 -0.2601
 3251TIP3    H231245   5.309   5.775   1.291 -0.9068 -1.2912 -1.4267
 3252TIP3   OH231246   4.640   1.452   6.436  0.2868  0.2024  0.0179
 3252TIP3    H131247   4.722   1.501   6.442 -0.0499  0.7431  0.2962
 3252TIP3    H231248   4.645   1.388   6.507  0.5611  0.0895 -0.1031
 3253TIP3   OH231249   6.200   1.584  12.156 -0.0007  0.1537 -0.3960
 3253TIP3    H131250   6.171   1.642  12.085  1.1324 -0.2051 -1.1703
 3253TIP3    H231251   6.231   1.505  12.112  1.7009  0.3304  0.3995
 3254TIP3   OH231252   0.773   2.894  16.235 -0.3017 -0.0329 -0.3213
 3254TIP3    H131253   0.793   2.985  16.257 -1.5838  0.3576 -0.6904
 3254TIP3    H231254   0.780   2.890  16.139  0.7387 -0.5882 -0.2405
 3255TIP3   OH231255   0.959   6.799   2.319 -0.3440  0.2793  0.1485
 3255TIP3    H131256   0.978   6.883   2.277 -1.1016  0.8793  0.9682
 3255TIP3    H231257   1.044   6.755   2.324  0.1208  1.1314  0.0027
 3256TIP3   OH231258   6.607   6.650  16.505  1.0648  0.0549  0.0477
 3256TIP3    H131259   6.695   6.620  16.484  1.1426 -0.3836  0.9306
 3256TIP3    H231260   6.618   6.708  16.580  0.4635 -1.3428  1.2805
 3257TIP3   OH231261   4.529   2.715  14.879 -0.0870  0.3761  0.1006
 3257TIP3    H131262   4.442   2.727  14.841 -0.1311  0.3764  0.2021
 3257TIP3    H231263   4.523   2.754  14.966  0.4821  1.9012 -0.4979
 3258TIP3   OH231264   4.507   2.506   6.390  0.7263 -0.1539 -0.2902
 3258TIP3    H131265   4.426   2.485   6.342 -0.5198  1.7379  0.8515
 3258TIP3    H231266   4.524   2.598   6.369  0.7232  0.4148  2.0207
 3259TIP3   OH231267   0.522   0.682   4.600 -0.4026  0.0601 -0.5311
 3259TIP3    H131268   0.534   0.611   4.664 -0.7434  1.2114  0.8619
 3259TIP3    H231269   0.554   0.646   4.518 -0.9712 -1.8650  0.0410
 3260TIP3   OH231270   4.296   2.272   3.931  0.1175  0.0867 -0.8903
 3260TIP3    H131271   4.222   2.301   3.877 -0.8225  0.4392  0.5210
 3260TIP3    H231272   4.370   2.270   3.872 -0.6473  1.4924 -1.9530
 3261TIP3   OH231273   5.061   2.486  13.445 -0.0625  0.2575  0.3966
 3261TIP3    H131274   5.128   2.548  13.417 -0.1304  0.6437  1.0503
 3261TIP3    H231275   5.006   2.537  13.504 -2.1899  0.5912 -1.7001
 3262TIP3   OH231276   6.814   0.712  13.317  0.1503 -0.0823 -0.3970
 3262TIP3    H131277   6.741   0.772  13.333 -0.5035 -1.0429  0.4010
 3262TIP3    H231278   6.892   0.763  13.337 -0.3282  0.8128 -0.7706
 3263TIP3   OH231279   1.789   2.304   5.561  0.1433  0.1704  0.0355
 3263TIP3    H131280   1.871   2.257   5.576  0.9001  1.0418 -1.1666
 3263TIP3    H231281   1.789   2.374   5.627 -0.0446 -0.3264  0.5699
 3264TIP3   OH231282   5.841   3.624   2.594  0.3130  0.2268  0.4340
 3264TIP3    H131283   5.934   3.613   2.615  0.6859 -0.7949 -1.5166
 3264TIP3    H231284   5.795   3.585   2.669  1.4306  1.0303  1.5755
 3265TIP3   OH231285   3.235   2.022   4.268  0.2822 -0.4573  0.2865
 3265TIP3    H131286   3.284   1.945   4.239 -0.7535 -0.8248 -0.5458
 3265TIP3    H231287   3.224   2.009   4.362  2.6265  0.1448  0.7133
 3266TIP3   OH231288   2.609   3.336  15.884 -0.0895  0.8432 -0.0581
 3266TIP3    H131289   2.665   3.323  15.960  0.4813 -0.0646 -0.6172
 3266TIP3    H231290   2.619   3.256  15.833 -1.7125  0.7619 -0.2971
 3267TIP3   OH231291   4.584   4.544  15.646  0.6638 -0.3286 -0.5686
 3267TIP3    H131292   4.546   4.580  15.566 -0.1840 -0.9540 -0.4619
 3267TIP3    H231293   4.555   4.452  15.647  1.1682 -0.4884  0.1438
 3268TIP3   OH231294   0.193   2.961  12.186 -0.0815 -0.4801 -0.3921
 3268TIP3    H131295   0.119   2.994  12.135 -1.2881  0.3050  1.6922
 3268TIP3    H231296   0.266   3.019  12.164 -1.0461  0.9625  0.0458
 3269TIP3   OH231297   1.117   3.785  14.290  0.1820  0.3855  0.3663
 3269TIP3    H131298   1.139   3.874  14.317  0.0639  0.6303 -0.3466
 3269TIP3    H231299   1.022   3.781  14.293  0.0206  1.0566 -1.9517
 3270TIP3   OH231300   5.213   5.183   4.947 -0.0907  0.5410 -0.1232
 3270TIP3    H131301   5.225   5.256   5.008 -0.4966  1.6481 -1.3083
 3270TIP3    H231302   5.255   5.109   4.989 -0.4935  1.2233  1.5652
 3271TIP3   OH231303   4.294   2.658  11.160  0.2240  0.4027 -0.2929
 3271TIP3    H131304   4.300   2.575  11.208 -0.3155  0.0358 -0.8569
 3271TIP3    H231305   4.237   2.639  11.086  2.4878  0.4788 -2.1366
 3272TIP3   OH231306   1.501   2.310  12.765 -0.1708 -0.1000 -0.5021
 3272TIP3    H131307   1.552   2.239  12.802 -2.0445 -1.1344  0.2585
 3272TIP3    H231308   1.499   2.378  12.833  0.7565  0.2500 -0.8180
 3273TIP3   OH231309   2.814   2.882   0.373  0.2451 -0.3895 -0.1591
 3273TIP3    H131310   2.863   2.884   0.455 -1.2063 -0.0756  0.7389
 3273TIP3    H231311   2.789   2.973   0.356  0.0448 -0.5267 -0.6491
 3274TIP3   OH231312   5.190   0.998  15.800 -0.2419 -0.1149  0.0551
 3274TIP3    H131313   5.266   0.966  15.752  0.3775  0.7076  0.4684
 3274TIP3    H231314   5.216   1.085  15.831 -1.4920  0.3529 -0.1421
 3275TIP3   OH231315   4.009   3.572  14.374 -0.1116 -0.2997  0.0555
 3275TIP3    H131316   4.090   3.597  14.329 -0.1385  0.4579  0.4241
 3275TIP3    H231317   3.958   3.652  14.378 -1.0526 -0.8516 -0.4925
 3276TIP3   OH231318   4.639   0.369   4.581 -0.5787  0.4413 -0.4101
 3276TIP3    H131319   4.605   0.427   4.649  0.9967 -1.2711  2.0321
 3276TIP3    H231320   4.734   0.381   4.586 -0.3662 -0.7037 -1.4150
 3277TIP3   OH231321   5.576   4.917   2.929  0.9033  0.1155 -0.0332
 3277TIP3    H131322   5.644   4.851   2.945  0.3836 -0.2454  0.8026
 3277TIP3    H231323   5.506   4.894   2.990 -0.0402  0.3878 -0.9809
 3278TIP3   OH231324   6.184   5.787  13.243  0.1770 -0.5290  0.3214
 3278TIP3    H131325   6.201   5.835  13.163  0.1665 -2.2230 -0.7450
 3278TIP3    H231326   6.261   5.804  13.298 -0.3128  1.5125  0.4214
 3279TIP3   OH231327   0.050   0.737  12.693  0.1668  0.2104 -0.2851
 3279TIP3    H131328   0.079   0.804  12.633 -0.8465 -0.7566 -1.9285
 3279TIP3    H231329   0.080   0.654  12.654 -2.2783 -0.5968 -0.6145
 3280TIP3   OH231330   3.240   6.375  12.672 -0.0413  0.3023 -0.3413
 3280TIP3    H131331   3.278   6.290  12.650 -1.0780  0.3781 -2.7263
 3280TIP3    H231332   3.299   6.412  12.738  0.7772 -1.9671  0.2756
 3281TIP3   OH231333   3.255   3.076   3.837 -0.6041  0.0644 -0.5286
 3281TIP3    H131334   3.297   3.057   3.921  1.5518  1.3136 -1.2292
 3281TIP3    H231335   3.280   3.003   3.780 -0.3796  0.2017 -0.6095
 3282TIP3   OH231336   1.873   0.940   1.926 -0.3398  0.5104  0.0561
 3282TIP3    H131337   1.785   0.936   1.888 -0.3693 -0.2134  0.1726
 3282TIP3    H231338   1.904   1.028   1.906 -1.3236  0.9788  0.5541
 3283TIP3   OH231339   2.472   6.456   3.968  0.5491 -0.5233 -0.4227
 3283TIP3    H131340   2.556   6.411   3.970  0.7249 -0.4171 -2.7861
 3283TIP3    H231341   2.494   6.549   3.962  0.2315 -0.4252 -0.1533
 3284TIP3   OH231342   0.210   4.683   2.901 -0.0087  0.0900 -0.0158
 3284TIP3    H131343   0.305   4.696   2.891 -0.0102  1.1443  1.0203
 3284TIP3    H231344   0.193   4.598   2.862  1.6204 -0.7945  1.0480
 3285TIP3   OH231345   5.284   6.035  15.301 -0.3022 -0.1215  0.4018
 3285TIP3    H131346   5.248   6.022  15.213  0.1365 -0.9631  0.3250
 3285TIP3    H231347   5.245   5.965  15.353  0.6322 -0.5939  0.4889
 3286TIP3   OH231348   2.711   1.173  17.250 -0.0340 -0.2869  0.3283
 3286TIP3    H131349   2.681   1.260  17.224 -0.3657 -0.0700  1.3882
 3286TIP3    H231350   2.762   1.188  17.330  0.6657 -0.9644  0.0230
 3287TIP3   OH231351   3.753   5.168   5.690  0.3029  0.0583  0.1696
 3287TIP3    H131352   3.707   5.139   5.769  0.9839 -1.0746  0.1630
 3287TIP3    H231353   3.726   5.105   5.623  1.7628 -0.5684  0.1406
 3288TIP3   OH231354   3.768   6.328  16.429 -0.0294 -0.6278 -0.5363
 3288TIP3    H131355   3.790   6.254  16.485  0.5907  0.3275  0.5282
 3288TIP3    H231356   3.848   6.381  16.426 -1.2555  1.4854  1.1339
 3289TIP3   OH231357   3.644   5.576  15.692 -0.6215 -0.1053  0.0084
 3289TIP3    H131358   3.588   5.553  15.766 -1.8456  0.0621 -0.8322
 3289TIP3    H231359   3.681   5.493  15.663 -2.8513 -0.7217 -1.3013
 3290TIP3   OH231360   3.402   5.166   2.421 -0.3516 -0.7784 -0.1247
 3290TIP3    H131361   3.398   5.227   2.494 -0.3056 -1.1584  0.2010
 3290TIP3    H231362   3.316   5.171   2.380  0.6110  1.8895 -2.0838
 3291TIP3   OH231363   1.296   0.994  16.991  0.3470 -0.2370 -0.5864
 3291TIP3    H131364   1.323   1.084  16.972  1.6891 -0.4598  0.1337
 3291TIP3    H231365   1.270   0.959  16.907 -1.1591  1.1177 -0.7306
 3292TIP3   OH231366   1.806   5.849  10.907  0.0672 -0.1507 -1.0679
 3292TIP3    H131367   1.884   5.905  10.913 -0.9080  1.1393  0.4029
 3292TIP3    H231368   1.820   5.781  10.973  0.4162 -0.5986 -1.5850
 3293TIP3   OH231369   5.115   2.279  12.861 -0.2163  0.0315  0.0708
 3293TIP3    H131370   5.071   2.278  12.776  0.2918  0.6609 -0.2115
 3293TIP3    H231371   5.119   2.372  12.886 -0.0709 -0.1156  0.6249
 3294TIP3   OH231372   5.460   5.298   5.615  0.2214  0.3744  0.0949
 3294TIP3    H131373   5.365   5.290   5.603  0.0471  2.0007  0.2106
 3294TIP3    H231374   5.490   5.342   5.536  0.3021  3.3027  1.6319
 3295TIP3   OH231375   5.419   5.158   4.417 -0.0540  0.3452  0.1416
 3295TIP3    H131376   5.367   5.077   4.423 -0.7885  0.6934 -1.1253
 3295TIP3    H231377   5.354   5.228   4.414  0.5697  0.9772  0.8780
 3296TIP3   OH231378   2.624   3.285   2.449  0.3719  0.1610 -0.2071
 3296TIP3    H131379   2.665   3.240   2.375  0.4364  1.7747 -1.1954
 3296TIP3    H231380   2.693   3.289   2.516  1.1804  0.9501 -1.0474
 3297TIP3   OH231381   5.239   2.914   5.322  0.4107  0.2822  0.3780
 3297TIP3    H131382   5.276   2.826   5.312  1.8709  1.0386 -1.6448
 3297TIP3    H231383   5.156   2.911   5.274 -0.5332 -0.4926  2.0023
 3298TIP3   OH231384   3.800   5.642   4.960  0.2998  0.2427 -0.7113
 3298TIP3    H131385   3.745   5.700   5.013 -1.8930 -0.6139 -1.9529
 3298TIP3    H231386   3.866   5.701   4.922  0.6412  1.2054  1.2100
 3299TIP3   OH231387   4.284   0.067   0.286 -0.2060 -0.1512 -0.2142
 3299TIP3    H131388   4.351   0.093   0.222 -1.3130  1.6791 -0.6906
 3299TIP3    H231389   4.201   0.079   0.241 -0.9280 -2.1162  0.4716
 3300TIP3   OH231390   3.559   2.800  14.574  0.4589 -0.3180 -1.5810
 3300TIP3    H131391   3.616   2.819  14.648  1.4622 -2.3248 -1.7608
 3300TIP3    H231392   3.480   2.764  14.613  0.1682  0.4664 -1.4259
 3301TIP3   OH231393   0.518   5.364  14.643 -0.6346 -0.1100 -0.3474
 3301TIP3    H131394   0.508   5.460  14.641 -0.6554 -0.0767  0.6131
 3301TIP3    H231395   0.436   5.332  14.680 -0.7748 -0.5307 -1.0236
 3302TIP3   OH231396   2.613   4.769   4.327  0.3684 -0.0588 -0.5439
 3302TIP3    H131397   2.676   4.764   4.400 -0.0563 -1.3342 -0.2307
 3302TIP3    H231398   2.608   4.679   4.295 -1.1038  0.0700 -0.7260
 3303TIP3   OH231399   2.635   1.166  14.485  0.2433 -0.1081 -0.5244
 3303TIP3    H131400   2.560   1.124  14.444  1.0368 -1.9706 -0.1700
 3303TIP3    H231401   2.703   1.166  14.418  0.6997 -0.7193 -0.0775
 3304TIP3   OH231402   2.551   6.550   3.590  0.9121  0.3708 -0.2604
 3304TIP3    H131403   2.633   6.512   3.621 -0.0460 -1.3719  0.2451
 3304TIP3    H231404   2.506   6.478   3.546 -1.8583  0.2862  2.4111
 3305TIP3   OH231405   3.460   0.752   0.442 -0.2305  0.6574 -0.3633
 3305TIP3    H131406   3.490   0.693   0.511 -1.8150  1.6560  1.2685
 3305TIP3    H231407   3.392   0.703   0.396 -0.7831  0.7990  0.2881
 3306TIP3   OH231408   1.034   6.302   3.435 -0.2649  0.5278  0.1412
 3306TIP3    H131409   0.967   6.240   3.405  0.2289 -0.4501  1.0009
 3306TIP3    H231410   1.103   6.246   3.471 -0.1179  1.6032  1.5795
 3307TIP3   OH231411   3.609   6.052   5.096  0.2060  0.0775 -0.3717
 3307TIP3    H131412   3.617   5.967   5.053  1.0870  0.7509 -1.6188
 3307TIP3    H231413   3.524   6.085   5.068 -0.4478 -0.6691  0.6765
 3308TIP3   OH231414   3.921   2.685  14.803  0.5877  0.0928 -0.4142
 3308TIP3    H131415   3.946   2.598  14.835  2.3186 -0.3670 -2.7423
 3308TIP3    H231416   3.847   2.668  14.744 -1.2077  0.6720  1.5551
 3309TIP3   OH231417   5.467   4.418   5.493 -0.2963 -0.1788 -0.1412
 3309TIP3    H131418   5.423   4.435   5.577 -1.9233 -0.2756 -0.9305
 3309TIP3    H231419   5.411   4.352   5.451  0.3858  0.0228 -1.3876
 3310TIP3   OH231420   3.529   0.915   0.215 -0.8796  0.3400 -1.2318
 3310TIP3    H131421   3.521   0.855   0.141 -0.0363 -1.8733  0.3315
 3310TIP3    H231422   3.485   0.869   0.287  1.9426  0.3286  0.6785
 3311TIP3   OH231423   4.253   1.645   1.313 -0.4506 -0.2327  0.2406
 3311TIP3    H131424   4.316   1.665   1.382  1.7671 -1.2287 -1.3721
 3311TIP3    H231425   4.235   1.551   1.322 -0.2084 -0.3543 -0.4589
 3312TIP3   OH231426   2.019   6.389   1.123 -0.0556  0.4924  0.0153
 3312TIP3    H131427   1.948   6.446   1.094 -0.4666 -0.9551 -2.0569
 3312TIP3    H231428   1.975   6.321   1.174  0.1015  0.7009  0.4254
 3313TIP3   OH231429   3.081   3.657  11.846 -0.6863 -0.2997  0.3317
 3313TIP3    H131430   3.078   3.572  11.890 -1.8016 -0.0545  0.7678
 3313TIP3    H231431   3.122   3.640  11.761 -1.3328 -1.3543  0.2237
 3314TIP3   OH231432   1.906   2.115  12.302 -0.1965  0.5889 -0.6387
 3314TIP3    H131433   1.819   2.083  12.328  1.6220 -3.1009  1.8559
 3314TIP3    H231434   1.928   2.064  12.224  0.9875 -1.2202  0.7905
 3315TIP3   OH231435   4.249   5.232  13.795 -0.3424 -0.1539 -0.0822
 3315TIP3    H131436   4.278   5.141  13.794 -0.9722 -0.3581  0.0093
 3315TIP3    H231437   4.234   5.251  13.888  0.8821  0.4056  0.0290
 3316TIP3   OH231438   2.979   1.782  12.022  0.6518  0.1239 -0.3542
 3316TIP3    H131439   2.948   1.697  11.988 -0.8352 -0.6349  2.5000
 3316TIP3    H231440   3.074   1.776  12.019  0.6145 -0.3711 -2.9564
 3317TIP3   OH231441   2.866   5.511  15.827 -0.2452  0.2559 -0.2437
 3317TIP3    H131442   2.774   5.534  15.813 -0.2687  1.2201  1.2590
 3317TIP3    H231443   2.912   5.549  15.752 -1.0913 -0.6275 -1.2553
 3318TIP3   OH231444   0.312   3.539  11.333  0.5273  0.0813  0.5179
 3318TIP3    H131445   0.250   3.533  11.261 -0.5745  0.0245  1.4370
 3318TIP3    H231446   0.385   3.591  11.299  1.2507 -2.0284 -1.4381
 3319TIP3   OH231447   2.005   4.030   3.899  0.9260 -0.0646  0.2793
 3319TIP3    H131448   2.093   4.067   3.888  0.2724  1.4236 -0.3109
 3319TIP3    H231449   1.991   3.979   3.819  0.0828  2.3463 -1.2138
 3320TIP3   OH231450   0.731   2.061   1.954 -0.1467 -0.0855  0.3133
 3320TIP3    H131451   0.796   2.013   2.006 -1.2837 -2.6565 -0.5059
 3320TIP3    H231452   0.663   2.085   2.018  1.0809  1.8869  1.0066
 3321TIP3   OH231453   3.630   5.573   3.890  0.1732 -0.5258 -0.3362
 3321TIP3    H131454   3.687   5.571   3.812 -0.9485  0.3398 -1.1959
 3321TIP3    H231455   3.661   5.648   3.940  0.5190 -0.7337 -0.2342
 3322TIP3   OH231456   0.474   1.837   5.467  0.3398  0.1267  0.4280
 3322TIP3    H131457   0.405   1.901   5.453 -0.5648 -1.0886 -0.9588
 3322TIP3    H231458   0.445   1.787   5.543 -1.3754 -1.6223 -1.2666
 3323TIP3   OH231459   4.339   4.741  16.462  0.2377 -0.2593  0.4331
 3323TIP3    H131460   4.409   4.781  16.410 -1.7403  2.2965 -0.4667
 3323TIP3    H231461   4.349   4.647  16.447  1.8927  0.1700 -1.7203
 3324TIP3   OH231462   6.779   0.798   5.828 -0.2193  0.4074 -0.4778
 3324TIP3    H131463   6.795   0.729   5.764  1.9851 -0.2926  0.7205
 3324TIP3    H231464   6.745   0.752   5.905 -0.7865  0.9602 -0.3874
 3325TIP3   OH231465   1.435   1.720  11.177 -0.5703 -0.3599 -0.6062
 3325TIP3    H131466   1.458   1.811  11.160  0.2461 -0.4084  0.2002
 3325TIP3    H231467   1.425   1.714  11.272 -0.2506 -1.1880 -0.6130
 3326TIP3   OH231468   3.782   2.091   3.101  0.1977 -0.0722 -0.4401
 3326TIP3    H131469   3.874   2.073   3.082  0.1706 -0.2373 -0.4211
 3326TIP3    H231470   3.760   2.031   3.173  0.3567  0.6971  0.2654
 3327TIP3   OH231471   2.725   1.694  13.788 -0.1168 -0.1451 -0.5429
 3327TIP3    H131472   2.788   1.761  13.814  0.8090 -1.4729  0.8419
 3327TIP3    H231473   2.639   1.734  13.803  0.4122  0.4153  1.3004
 3328TIP3   OH231474   4.294   5.524  15.529  0.2659 -0.0899 -0.0724
 3328TIP3    H131475   4.254   5.533  15.616 -1.1098 -0.7486 -0.6059
 3328TIP3    H231476   4.301   5.430  15.516 -1.3748 -0.0646 -1.4432
 3329TIP3   OH231477   1.795   5.069   1.489 -0.1758 -0.1780  0.1571
 3329TIP3    H131478   1.746   5.029   1.418 -0.7311  0.6641  0.0460
 3329TIP3    H231479   1.746   5.047   1.568  0.1993 -0.7429  0.2384
 3330TIP3   OH231480   2.558   2.700  15.088  0.2354 -0.0914 -0.1098
 3330TIP3    H131481   2.561   2.612  15.050 -0.2532 -0.4004  0.5505
 3330TIP3    H231482   2.625   2.699  15.156  0.6354  0.2397 -0.4948
 3331TIP3   OH231483   2.435   3.824   0.725 -0.6086 -0.1722  0.0169
 3331TIP3    H131484   2.458   3.895   0.665  0.0593  1.2675  1.8848
 3331TIP3    H231485   2.508   3.763   0.718 -0.6404 -0.1319 -0.7739
 3332TIP3   OH231486   3.960   4.941  17.086  0.1851  0.6451 -0.0652
 3332TIP3    H131487   3.909   4.971  17.011  1.4509  0.0957 -1.1843
 3332TIP3    H231488   4.044   4.914  17.049  1.0839  0.9506  1.6348
 3333TIP3   OH231489   2.646   6.089  12.346  0.9124 -0.3336  0.0198
 3333TIP3    H131490   2.607   6.169  12.311  0.7499 -0.7664 -0.8164
 3333TIP3    H231491   2.710   6.120  12.410  1.4579  0.5011 -0.8974
 3334TIP3   OH231492   2.754   0.581  13.995  0.7779  0.4612 -0.2294
 3334TIP3    H131493   2.796   0.667  13.986  2.4610  0.2460  3.4620
 3334TIP3    H231494   2.810   0.522  13.945  0.5367  1.2677 -1.4794
 3335TIP3   OH231495   1.192   1.393  11.947 -0.1977 -0.5085 -0.1841
 3335TIP3    H131496   1.218   1.470  11.897 -1.6184 -0.4151 -0.8247
 3335TIP3    H231497   1.274   1.357  11.981  0.5008  1.2530  0.1007
 3336TIP3   OH231498   3.641   5.979  13.456 -0.0645  0.0652  0.0350
 3336TIP3    H131499   3.590   6.023  13.388 -0.2539 -0.0410  0.1098
 3336TIP3    H231500   3.577   5.931  13.508  0.2649 -1.3148 -0.7975
 3337TIP3   OH231501   5.265   6.504   4.766 -0.4899 -0.0215 -0.0704
 3337TIP3    H131502   5.317   6.458   4.700  0.3426 -0.0975  0.6218
 3337TIP3    H231503   5.271   6.448   4.844  1.7012  1.8596  1.2371
 3338TIP3   OH231504   5.763   4.455  11.733 -0.1225  0.1474 -0.7493
 3338TIP3    H131505   5.765   4.451  11.829 -0.5472 -1.1522 -0.7644
 3338TIP3    H231506   5.833   4.396  11.705 -1.8883 -1.8934 -1.1909
 3339TIP3   OH231507   0.245   2.310   3.983  0.1957 -0.4524  0.0785
 3339TIP3    H131508   0.213   2.296   4.072  0.4618  0.5990  0.3518
 3339TIP3    H231509   0.239   2.224   3.942 -0.4645 -0.8301  0.9339
 3340TIP3   OH231510   1.483   5.568   1.496 -0.1091  0.4544  0.1895
 3340TIP3    H131511   1.403   5.522   1.519  0.4179 -0.4282  0.3356
 3340TIP3    H231512   1.553   5.505   1.513  0.6001  1.1067 -0.1855
 3341TIP3   OH231513   3.483   3.925  15.089  0.0822  0.1058  0.2722
 3341TIP3    H131514   3.431   3.992  15.133 -0.4144  0.2238 -0.4703
 3341TIP3    H231515   3.489   3.955  14.998 -0.0599 -0.7978 -0.0508
 3342TIP3   OH231516   6.157   3.795  12.848  0.1947 -0.6942  0.1709
 3342TIP3    H131517   6.196   3.718  12.807 -1.4975 -1.0213 -0.9100
 3342TIP3    H231518   6.114   3.762  12.926  1.7850 -0.3718  1.2268
 3343TIP3   OH231519   2.926   0.462   4.114 -0.1207 -0.2647 -0.0811
 3343TIP3    H131520   3.015   0.426   4.115 -0.2692 -0.7254 -1.2691
 3343TIP3    H231521   2.894   0.444   4.025 -1.0250  0.8121 -0.0034
 3344TIP3   OH231522   0.272   4.103  14.927  0.0551  0.6706 -0.0873
 3344TIP3    H131523   0.276   4.054  15.009  0.3405 -1.0321 -1.0740
 3344TIP3    H231524   0.180   4.097  14.899  0.6121 -2.0431 -1.7228
 3345TIP3   OH231525   6.089   2.270   6.110 -0.1353 -0.3252  0.4624
 3345TIP3    H131526   6.049   2.303   6.191  2.0974 -0.5733  1.7618
 3345TIP3    H231527   6.127   2.348   6.069 -0.8499 -0.2779 -0.1399
 3346TIP3   OH231528   2.674   4.988   4.198  0.5807 -0.1232  0.1068
 3346TIP3    H131529   2.768   4.983   4.214  0.3935 -0.5172  1.1513
 3346TIP3    H231530   2.636   4.921   4.254 -0.2670 -0.5235 -0.9022
 3347TIP3   OH231531   0.451   5.500   4.113  0.6547 -0.2712 -0.1498
 3347TIP3    H131532   0.493   5.586   4.113  3.3016 -1.4648  0.5155
 3347TIP3    H231533   0.449   5.475   4.021  0.1646  0.3310 -0.3149
 3348TIP3   OH231534   0.169   3.357   5.395 -0.0019 -0.6497  0.3021
 3348TIP3    H131535   0.143   3.416   5.325 -0.4634 -2.1258 -0.8236
 3348TIP3    H231536   0.243   3.401   5.437  1.1057 -0.2577 -1.9116
 3349TIP3   OH231537   5.440   4.663  14.247  0.0466  0.5343  0.3064
 3349TIP3    H131538   5.421   4.755  14.266  1.8789  1.0643 -0.1569
 3349TIP3    H231539   5.417   4.652  14.155  1.3904  1.0439 -0.1234
 3350TIP3   OH231540   4.264   0.677   0.657 -0.2513 -0.6615 -0.2123
 3350TIP3    H131541   4.337   0.733   0.684 -0.1056 -1.3995  0.9895
 3350TIP3    H231542   4.304   0.608   0.605 -0.7341  1.7905 -4.2099
 3351TIP3   OH231543   1.828   4.055  14.833  0.0385 -0.0526 -0.2359
 3351TIP3    H131544   1.807   4.019  14.919  1.6754  1.1631  0.7299
 3351TIP3    H231545   1.898   3.998  14.800  0.7431  0.6157  0.0944
 3352TIP3   OH231546   4.113   5.673   3.582  0.0248 -0.2172  0.4846
 3352TIP3    H131547   4.142   5.676   3.674 -1.0425 -1.3959  0.8899
 3352TIP3    H231548   4.076   5.759   3.566  0.1806 -0.0130  1.1895
 3353TIP3   OH231549   2.577   6.409   0.015 -0.2871  0.3487  0.3107
 3353TIP3    H131550   2.532   6.468   0.077  0.3269  1.1278  0.0279
 3353TIP3    H231551   2.520   6.406  -0.061 -0.9033 -0.3814  0.7820
 3354TIP3   OH231552   1.238   0.459  15.390  0.4014  0.2175  0.2285
 3354TIP3    H131553   1.158   0.415  15.359 -0.5252 -0.9185  3.7464
 3354TIP3    H231554   1.305   0.434  15.328 -1.3183 -1.5581 -1.0215
 3355TIP3   OH231555   0.703   1.892   5.947  0.1044  0.6557 -0.2519
 3355TIP3    H131556   0.695   1.984   5.974  0.8160  0.6145  0.1411
 3355TIP3    H231557   0.625   1.849   5.981 -0.1867  1.0942 -0.3581
 3356TIP3   OH231558   1.591   2.393  11.411 -0.1112 -0.5052 -0.1157
 3356TIP3    H131559   1.590   2.477  11.458  0.8264  0.3171 -1.4909
 3356TIP3    H231560   1.561   2.329  11.476 -1.1450  0.9251  0.8873
 3357TIP3   OH231561   3.842   4.425   4.006  0.4031 -0.6177 -0.2379
 3357TIP3    H131562   3.853   4.468   4.092 -0.6745 -1.8369  0.5409
 3357TIP3    H231563   3.812   4.337   4.027  2.0740 -1.6304 -1.8179
 3358TIP3   OH231564   5.242   4.578  12.063  0.5871 -0.3832  0.6878
 3358TIP3    H131565   5.195   4.652  12.026 -0.2321 -0.4354  1.5802
 3358TIP3    H231566   5.242   4.511  11.995  1.4867  0.4889 -0.1893
 3359TIP3   OH231567   4.931   4.248  16.477 -0.1951  0.0713 -0.1390
 3359TIP3    H131568   4.937   4.294  16.561 -1.2989  1.1320 -0.5985
 3359TIP3    H231569   5.007   4.191  16.475  1.4290  2.0860  0.3697
 3360TIP3   OH231570   2.086   1.180   3.962 -0.0811  0.4233 -0.2579
 3360TIP3    H131571   2.009   1.212   3.916 -0.3998  1.0978  0.7066
 3360TIP3    H231572   2.136   1.132   3.896 -0.4684  1.4500 -1.3276
 3361TIP3   OH231573   2.399   5.519  14.818 -0.2255 -0.0043 -0.3027
 3361TIP3    H131574   2.389   5.614  14.812 -2.0907 -0.2088 -1.0118
 3361TIP3    H231575   2.360   5.496  14.903 -0.4124 -0.1984 -0.4390
 3362TIP3   OH231576   4.049   5.258   4.847  0.0762 -0.5350  0.2835
 3362TIP3    H131577   4.003   5.289   4.769  0.0990 -0.4437  0.3068
 3362TIP3    H231578   4.034   5.326   4.913 -0.1146 -0.7088  0.4217
 3363TIP3   OH231579   5.221   6.272   0.896 -0.4335 -0.3155  0.4623
 3363TIP3    H131580   5.277   6.327   0.842  0.3179 -1.2698  0.2559
 3363TIP3    H231581   5.238   6.301   0.986 -1.0713  0.7082  0.2707
 3364TIP3   OH231582   1.397   3.893  12.363  0.3573 -0.7956  0.0693
 3364TIP3    H131583   1.364   3.817  12.412  1.4612 -2.8554 -2.1829
 3364TIP3    H231584   1.492   3.888  12.372  0.4805 -0.1231 -0.7337
 3365TIP3   OH231585   1.259   0.752   0.385  0.0694  0.8068 -0.1844
 3365TIP3    H131586   1.331   0.753   0.321  2.2655 -0.2997  2.1063
 3365TIP3    H231587   1.204   0.678   0.358  1.6081 -0.3842 -0.1833
 3366TIP3   OH231588   2.468   4.903  12.023  0.1315 -0.1653 -0.4075
 3366TIP3    H131589   2.393   4.843  12.013  0.4853 -0.5208 -0.9858
 3366TIP3    H231590   2.541   4.856  11.984  0.8682 -0.1958  0.9614
 3367TIP3   OH231591   0.071   6.787   0.833  0.0915  0.6324  0.0795
 3367TIP3    H131592   0.154   6.815   0.872  0.7172  0.2508 -0.9186
 3367TIP3    H231593   0.080   6.692   0.824 -0.4700  0.5864 -0.0022
 3368TIP3   OH231594   1.752   5.737   1.731 -0.8458  0.0127 -0.0039
 3368TIP3    H131595   1.751   5.724   1.636  1.4903 -0.6723 -0.0074
 3368TIP3    H231596   1.709   5.660   1.766  1.0196 -1.3263 -0.4787
 3369TIP3   OH231597   3.247   1.730   4.972 -0.1577  0.5919 -0.2142
 3369TIP3    H131598   3.227   1.812   5.019 -1.3863  0.0477  0.2383
 3369TIP3    H231599   3.327   1.750   4.924 -0.8471  2.3188 -0.7332
 3370TIP3   OH231600   5.836   5.894   3.750 -0.4410 -0.1415 -0.4897
 3370TIP3    H131601   5.801   5.872   3.836 -1.8138 -0.4326 -1.0934
 3370TIP3    H231602   5.884   5.976   3.764  0.3076 -0.7676  0.7574
 3371TIP3   OH231603   0.115   1.706  12.551 -0.3746  0.1280 -0.0427
 3371TIP3    H131604   0.056   1.711  12.626 -0.1276 -1.8532  0.3284
 3371TIP3    H231605   0.177   1.778  12.564 -1.4396  0.9531  0.6510
 3372TIP3   OH231606   6.299   3.802  13.229  0.2411  0.2979 -0.0279
 3372TIP3    H131607   6.369   3.849  13.275 -1.4195  0.6781  2.3168
 3372TIP3    H231608   6.234   3.870  13.208  0.9270  0.1270 -3.0799
 3373TIP3   OH231609   4.476   6.454   2.505 -0.1635  0.3016  0.5009
 3373TIP3    H131610   4.460   6.382   2.445 -0.1452  0.2244  0.5888
 3373TIP3    H231611   4.506   6.526   2.449  0.5047  0.0236  0.4928
 3374TIP3   OH231612   5.164   1.865  17.271 -0.4361 -0.3374 -0.2128
 3374TIP3    H131613   5.086   1.885  17.219 -1.3228 -0.7937  0.9063
 3374TIP3    H231614   5.221   1.819  17.210 -0.4824  1.1053 -1.4032
 3375TIP3   OH231615   0.035   1.295   6.130  0.3944 -0.3498  0.3847
 3375TIP3    H131616   0.081   1.362   6.080 -0.2862 -0.4196 -0.3600
 3375TIP3    H231617  -0.054   1.328   6.138  0.0583 -1.1351  0.0385
 3376TIP3   OH231618   6.740   5.159   6.256 -0.3351  0.1052  0.4062
 3376TIP3    H131619   6.655   5.200   6.274 -0.2024  0.4267  0.2888
 3376TIP3    H231620   6.805   5.223   6.284 -0.1264  0.2002 -0.2897
 3377TIP3   OH231621   3.215   4.237   2.960  0.7470  0.8254  0.1106
 3377TIP3    H131622   3.231   4.173   3.029 -2.7106  0.2899  0.5713
 3377TIP3    H231623   3.180   4.186   2.887 -1.4447  2.0383  0.2426
 3378TIP3   OH231624   0.531   1.835  12.155 -0.2291  0.1638 -0.1649
 3378TIP3    H131625   0.456   1.801  12.203  0.5224  0.2801  1.1259
 3378TIP3    H231626   0.493   1.878  12.078 -1.5598  1.1669  1.0147
 3379TIP3   OH231627   1.619   6.028  16.989 -0.4959 -0.0873 -0.4592
 3379TIP3    H131628   1.679   6.103  16.992 -0.6968  0.0945 -0.9280
 3379TIP3    H231629   1.676   5.952  16.980 -0.2527 -0.0546  0.5755
 3380TIP3   OH231630   3.896   6.389  13.071 -0.3130 -0.1260 -0.5832
 3380TIP3    H131631   3.944   6.435  13.002 -0.1057  1.8769  0.8036
 3380TIP3    H231632   3.806   6.421  13.062 -0.2530  0.2553  0.1372
 3381TIP3   OH231633   3.632   1.767  11.937  0.0361  0.3476  0.0042
 3381TIP3    H131634   3.630   1.715  11.857  1.1042  0.2628  0.0253
 3381TIP3    H231635   3.724   1.785  11.952 -0.1117  0.0355  1.4407
 3382TIP3   OH231636   2.024   4.888  16.130 -0.1923 -0.1162 -0.4071
 3382TIP3    H131637   2.004   4.915  16.219  0.3926 -1.0409  0.0222
 3382TIP3    H231638   2.018   4.968  16.078 -2.6826  0.0637  0.0621
 3383TIP3   OH231639   6.518   1.672   2.190 -0.5116  0.0175 -0.3724
 3383TIP3    H131640   6.492   1.700   2.278 -1.5096 -0.0133 -0.6490
 3383TIP3    H231641   6.552   1.752   2.149 -2.8530  0.7892 -0.9722
 3384TIP3   OH231642   5.657   6.414   2.486 -0.1070 -0.4307  0.8711
 3384TIP3    H131643   5.585   6.380   2.539 -1.4644 -0.8758 -1.1488
 3384TIP3    H231644   5.630   6.397   2.395  0.5735  3.1921 -0.1804
 3385TIP3   OH231645   2.491   6.261  14.537  0.0915 -0.1049  0.4649
 3385TIP3    H131646   2.467   6.346  14.572 -1.0280 -0.3379  0.3119
 3385TIP3    H231647   2.564   6.279  14.478  1.0445  0.4844  1.7859
 3386TIP3   OH231648   2.906   4.696  13.302  0.1567  0.4474  0.2394
 3386TIP3    H131649   2.911   4.701  13.397  0.3187  3.7162  0.1736
 3386TIP3    H231650   2.845   4.766  13.277  0.0496 -0.3804 -2.0635
 3387TIP3   OH231651   5.953   6.645  11.339 -0.5054 -0.0520 -0.2536
 3387TIP3    H131652   5.911   6.560  11.323 -1.4788  0.3959 -0.1585
 3387TIP3    H231653   5.911   6.678  11.419  1.1175 -0.2536  0.7351
 3388TIP3   OH231654   4.431   6.101   2.167  0.6409  0.3851 -0.3285
 3388TIP3    H131655   4.367   6.131   2.231 -0.0803 -0.0983 -0.8123
 3388TIP3    H231656   4.490   6.175   2.155  0.9675  0.3853  1.1117
 3389TIP3   OH231657   4.362   0.338  16.925  0.2485 -0.4099 -0.2618
 3389TIP3    H131658   4.409   0.286  16.860  0.6862 -0.4168  0.0606
 3389TIP3    H231659   4.407   0.320  17.008 -1.2940 -1.6708  0.3614
 3390TIP3   OH231660   2.447   0.284   1.235 -0.0548 -0.1109  0.0718
 3390TIP3    H131661   2.389   0.240   1.173 -1.7861 -0.6540  1.9603
 3390TIP3    H231662   2.412   0.373   1.242  1.5740  0.6997 -1.4363
 3391TIP3   OH231663   2.030   3.305  10.533  0.4793 -0.1433 -0.1158
 3391TIP3    H131664   1.952   3.278  10.485  1.1800 -1.9005 -0.3231
 3391TIP3    H231665   2.062   3.225  10.574  0.7644  1.0164  2.0581
 3392TIP3   OH231666   4.570   3.722   6.706  0.4421  0.0217 -0.0703
 3392TIP3    H131667   4.660   3.697   6.724  0.3534  0.6294  1.3543
 3392TIP3    H231668   4.575   3.815   6.684  0.1874 -0.0005 -0.2283
 3393TIP3   OH231669   1.610   0.513  11.413 -0.2575  0.0507 -0.1850
 3393TIP3    H131670   1.572   0.542  11.330  1.4874  2.5588 -0.2202
 3393TIP3    H231671   1.704   0.508  11.396  0.0628 -0.0620  1.4547
 3394TIP3   OH231672   3.523   3.076  11.912 -0.0644  0.0676  0.0426
 3394TIP3    H131673   3.549   3.108  11.825  0.2876  0.7294  0.3881
 3394TIP3    H231674   3.590   3.110  11.971 -0.5633  0.0130  0.6453
 3395TIP3   OH231675   3.163   4.885   1.736 -0.1988  0.0038  0.4191
 3395TIP3    H131676   3.163   4.976   1.767 -1.0401  0.1761 -0.0563
 3395TIP3    H231677   3.226   4.885   1.664 -0.1837  0.2077  0.4314
 3396TIP3   OH231678   2.977   5.676   2.374  0.0684  0.1074 -0.3059
 3396TIP3    H131679   2.988   5.635   2.288  1.0366  1.9946 -1.1555
 3396TIP3    H231680   3.064   5.669   2.414 -0.0203  0.4438 -0.0556
 3397TIP3   OH231681   2.071   0.815   2.376 -0.5236 -0.5178  0.6494
 3397TIP3    H131682   2.084   0.739   2.320  0.1372 -0.6246  0.9334
 3397TIP3    H231683   2.089   0.784   2.464 -2.6955 -0.6401  1.1030
 3398TIP3   OH231684   3.063   6.312   0.078  0.0576  0.2445  0.1445
 3398TIP3    H131685   3.079   6.399   0.114  0.5154  0.4318 -0.4950
 3398TIP3    H231686   3.072   6.322  -0.016  2.0970 -0.8557  0.1460
 3399TIP3   OH231687   1.252   1.728   5.159 -0.3594  0.9259  0.8056
 3399TIP3    H131688   1.244   1.673   5.081 -1.3380 -0.0523  1.5716
 3399TIP3    H231689   1.234   1.817   5.127  1.4493  0.8912 -0.4813
 3400TIP3   OH231690   1.900   0.051  15.881 -0.6818  0.0507 -0.2291
 3400TIP3    H131691   1.815   0.093  15.872 -0.1318  1.6770  1.4982
 3400TIP3    H231692   1.900  -0.018  15.815 -2.8538  0.7775 -1.0718
 3401TIP3   OH231693   1.590   0.034   4.141 -0.2215  0.0238  0.0127
 3401TIP3    H131694   1.681   0.017   4.117  0.1705  0.1812  1.2961
 3401TIP3    H231695   1.568   0.115   4.093  0.4166  0.1653 -0.0600
 3402TIP3   OH231696   5.113   6.583   5.233 -0.7242  0.2772  0.0248
 3402TIP3    H131697   5.112   6.678   5.244 -0.5213  0.4146 -0.9738
 3402TIP3    H231698   5.020   6.558   5.224 -0.7361  0.9917 -3.8841
 3403TIP3   OH231699   4.041   5.972   1.145 -0.5981  0.3908  0.1589
 3403TIP3    H131700   3.967   6.009   1.193 -0.1112  0.4288  0.9070
 3403TIP3    H231701   4.118   6.003   1.194 -0.0629  0.8173 -0.9225
 3404TIP3   OH231702   0.736   5.825  13.253 -0.5599  0.3159  0.2840
 3404TIP3    H131703   0.760   5.912  13.223  1.1799 -0.7266 -1.6492
 3404TIP3    H231704   0.658   5.802  13.202 -1.2336  0.8558  1.0587
 3405TIP3   OH231705   1.683   0.853   3.145  1.4054  0.1806 -0.7497
 3405TIP3    H131706   1.617   0.836   3.077 -0.3222  1.3044  0.5462
 3405TIP3    H231707   1.728   0.770   3.156 -0.5691 -0.9756 -0.9302
 3406TIP3   OH231708   0.121   1.099   5.146  0.3689 -0.1137 -0.1987
 3406TIP3    H131709   0.056   1.163   5.116 -0.0236 -0.0067  0.8483
 3406TIP3    H231710   0.071   1.034   5.194  0.9742 -0.3074  0.1792
 3407TIP3   OH231711   3.204   3.793   3.091 -0.3635 -0.3676  0.5893
 3407TIP3    H131712   3.229   3.876   3.132 -1.5746 -0.3362  1.3169
 3407TIP3    H231713   3.148   3.750   3.155 -0.9029 -1.1095 -0.3410
 3408TIP3   OH231714   6.552   5.711   2.343 -0.1795  0.4860 -0.2615
 3408TIP3    H131715   6.490   5.711   2.270 -0.2511  0.6104 -0.2013
 3408TIP3    H231716   6.614   5.642   2.321  0.1141  0.8803 -0.7080
 3409TIP3   OH231717   5.698   5.147   5.297  0.5576 -0.1971 -0.3904
 3409TIP3    H131718   5.781   5.181   5.264  0.6815 -0.8503 -0.7705
 3409TIP3    H231719   5.632   5.193   5.245  0.6882  0.1039 -0.2936
 3410TIP3   OH231720   2.529   3.774   0.411  0.8589  0.1304  0.0722
 3410TIP3    H131721   2.438   3.763   0.384  0.6851  2.4402 -0.5712
 3410TIP3    H231722   2.569   3.689   0.398 -0.9164 -0.6152 -0.8453
 3411TIP3   OH231723   6.620   3.894  15.268  0.4569 -0.1767  0.1425
 3411TIP3    H131724   6.595   3.982  15.239 -0.5328  0.1125  1.7885
 3411TIP3    H231725   6.543   3.840  15.251  0.7239 -0.5312  0.0330
 3412TIP3   OH231726   1.313   2.324   0.794 -0.2190  0.5831  0.2417
 3412TIP3    H131727   1.248   2.393   0.783 -1.7436 -0.5975  1.3752
 3412TIP3    H231728   1.309   2.302   0.887  0.8233 -0.4930  0.0567
 3413TIP3   OH231729   5.660   0.092  13.186  0.5554 -0.3353  0.4395
 3413TIP3    H131730   5.567   0.073  13.175  0.1395  1.1957  1.0452
 3413TIP3    H231731   5.694   0.017  13.235 -0.2592 -1.1270 -0.1868
 3414TIP3   OH231732   1.649   1.932   0.350  0.0043 -0.0051 -0.3043
 3414TIP3    H131733   1.558   1.945   0.373 -0.2596 -2.2231  0.1211
 3414TIP3    H231734   1.661   1.837   0.351  1.9508  0.1503 -1.7685
 3415TIP3   OH231735   4.457   0.886   3.937  0.4682 -0.5477  0.0311
 3415TIP3    H131736   4.403   0.834   3.878  0.4822  0.3374 -0.7800
 3415TIP3    H231737   4.541   0.895   3.892  0.6381 -0.2524  0.3973
 3416TIP3   OH231738   2.992   0.301  15.715 -0.1657  0.2941 -0.0204
 3416TIP3    H131739   2.911   0.276  15.759 -0.6267  0.1390 -0.9396
 3416TIP3    H231740   2.973   0.291  15.622  0.9127  0.2558 -0.2491
 3417TIP3   OH231741   2.283   6.470   4.502 -0.2547  0.9407 -0.1773
 3417TIP3    H131742   2.325   6.492   4.585  1.1323  0.9954 -0.8704
 3417TIP3    H231743   2.192   6.451   4.525  0.4146 -0.3734  1.5695
 3418TIP3   OH231744   0.779   2.772  12.338 -0.4730 -0.3916  1.0432
 3418TIP3    H131745   0.685   2.756  12.324 -0.2776 -0.5695 -0.2413
 3418TIP3    H231746   0.815   2.777  12.249  0.4640  1.3961  1.4951
 3419TIP3   OH231747   4.571   2.486   2.352  0.0826 -0.4210 -0.0300
 3419TIP3    H131748   4.588   2.466   2.260  1.3944 -0.4981  0.2053
 3419TIP3    H231749   4.490   2.537   2.351 -0.5138 -1.3271 -1.1156
 3420TIP3   OH231750   3.960   4.341  15.067 -0.8294 -0.4349 -0.3705
 3420TIP3    H131751   3.983   4.249  15.055 -0.1668 -0.1036 -1.8699
 3420TIP3    H231752   3.881   4.353  15.014 -2.4127 -0.6859  1.8028
 3421TIP3   OH231753   2.960   1.379  11.995 -0.4773 -0.2853  0.4862
 3421TIP3    H131754   2.992   1.290  11.980 -1.2108 -0.6100  0.8242
 3421TIP3    H231755   2.975   1.394  12.089  0.6825  0.3742  0.2205
 3422TIP3   OH231756   5.863   6.311  14.527 -0.4188 -0.6537 -0.0774
 3422TIP3    H131757   5.932   6.358  14.481 -1.5359  0.5333 -0.5835
 3422TIP3    H231758   5.901   6.225  14.545  1.1648 -0.0496 -0.3743
 3423TIP3   OH231759   2.921   3.525   1.058  0.5253  0.2139 -0.0507
 3423TIP3    H131760   2.847   3.570   1.099  1.3693  0.2820  1.4869
 3423TIP3    H231761   2.997   3.553   1.109  1.2044 -2.2361  0.4138
 3424TIP3   OH231762   6.220   2.730   2.749  0.0999  0.1317  0.1600
 3424TIP3    H131763   6.219   2.821   2.719  0.5148 -0.6312 -2.4041
 3424TIP3    H231764   6.288   2.727   2.817  1.1436  1.4346 -0.7854
 3425TIP3   OH231765   0.893   3.454  16.221 -0.0389  0.1007 -0.0758
 3425TIP3    H131766   0.977   3.477  16.259 -0.4710 -0.0846  1.0162
 3425TIP3    H231767   0.832   3.518  16.257 -0.6320 -0.6720  0.3231
 3426TIP3   OH231768   0.880   2.239  12.480 -0.1821 -0.1009 -0.2980
 3426TIP3    H131769   0.862   2.330  12.454 -0.6033 -0.2384 -0.4945
 3426TIP3    H231770   0.906   2.196  12.399  0.7485  0.0111 -0.0807
 3427TIP3   OH231771   6.794   0.026  12.412  0.5660  0.3858  0.0113
 3427TIP3    H131772   6.804   0.040  12.318 -2.1489  1.1927 -0.2383
 3427TIP3    H231773   6.726  -0.042  12.418  3.7496 -3.0431  1.4259
 3428TIP3   OH231774   2.257   0.312   2.874  0.2865  0.3405  0.0641
 3428TIP3    H131775   2.299   0.226   2.870 -0.9776 -0.3767  1.2628
 3428TIP3    H231776   2.174   0.301   2.828  1.1705  1.6593 -2.0145
 3429TIP3   OH231777   2.224   1.773   4.652 -0.1666 -0.2541 -0.3600
 3429TIP3    H131778   2.299   1.799   4.598  0.8078 -0.2419  0.9678
 3429TIP3    H231779   2.154   1.832   4.625  0.7906  0.8956 -0.4165
 3430TIP3   OH231780   5.498   2.261  16.453  0.1907 -0.1717  0.1280
 3430TIP3    H131781   5.459   2.333  16.402 -0.4648 -0.9834 -0.5580
 3430TIP3    H231782   5.565   2.303  16.506  0.5146  0.8044 -0.9969
 3431TIP3   OH231783   5.555   3.549  13.342 -0.4373  0.4615  0.3447
 3431TIP3    H131784   5.559   3.594  13.426  0.7011  0.3114  0.3772
 3431TIP3    H231785   5.612   3.600  13.284  0.2338 -0.4567  0.1689
 3432TIP3   OH231786   1.897   3.143  11.342 -0.3929 -0.0268  0.7525
 3432TIP3    H131787   1.908   3.174  11.252 -1.8273 -0.2579  0.4737
 3432TIP3    H231788   1.816   3.091  11.340  0.5478 -1.5970  1.7840
 3433TIP3   OH231789   1.379   6.317  11.387  0.6615  0.0407  0.1940
 3433TIP3    H131790   1.359   6.351  11.300  0.1234 -0.1669  0.2330
 3433TIP3    H231791   1.435   6.385  11.427  3.0419 -0.9648 -1.2008
 3434TIP3   OH231792   0.971   6.751  13.514 -0.5482 -0.5286 -0.2050
 3434TIP3    H131793   1.017   6.834  13.527 -2.4334  0.6636 -0.7620
 3434TIP3    H231794   0.925   6.762  13.431 -3.4518 -0.8070  1.2534
 3435TIP3   OH231795   0.887   0.030  11.980 -0.0743  0.0592 -0.5822
 3435TIP3    H131796   0.895  -0.051  11.930  1.5285  0.9358 -1.8442
 3435TIP3    H231797   0.938   0.094  11.931  1.3988  1.0642  2.0600
 3436TIP3   OH231798   5.540   0.178  12.836  0.2291 -0.1892 -0.3277
 3436TIP3    H131799   5.468   0.143  12.889  1.3023 -2.4514 -0.2770
 3436TIP3    H231800   5.510   0.266  12.811 -2.0434 -0.6212  0.6240
 3437TIP3   OH231801   0.371   4.985  16.885 -0.1007 -0.3064 -0.7200
 3437TIP3    H131802   0.331   4.927  16.820 -1.9214 -2.3021  1.9695
 3437TIP3    H231803   0.317   5.064  16.881 -1.7268 -1.3178 -0.1288
 3438TIP3   OH231804   4.213   6.367  15.553 -0.2888  0.0481 -0.1095
 3438TIP3    H131805   4.219   6.367  15.649  0.3563  0.2924 -0.1387
 3438TIP3    H231806   4.166   6.287  15.532  1.9828 -1.5220  0.3047
 3439TIP3   OH231807   2.804   6.012   3.595 -0.4930  0.2270  0.2267
 3439TIP3    H131808   2.771   5.948   3.532 -2.0427 -0.3822  1.5752
 3439TIP3    H231809   2.830   5.959   3.671  0.1110  1.0517  0.6081
 3440TIP3   OH231810   1.203   4.675   0.334  0.2537 -0.1153 -0.6279
 3440TIP3    H131811   1.278   4.662   0.392  0.6080 -0.3504 -1.1312
 3440TIP3    H231812   1.134   4.707   0.392  1.3065  2.0473 -0.4643
 3441TIP3   OH231813   1.419   1.834   5.365  0.4646 -0.0245  0.4781
 3441TIP3    H131814   1.369   1.831   5.447 -0.2761  1.8563  0.1368
 3441TIP3    H231815   1.371   1.778   5.305  0.1898 -0.2415  0.8978
 3442TIP3   OH231816   4.532   1.060   2.972  0.3845  0.2229 -0.0091
 3442TIP3    H131817   4.625   1.079   2.981  0.3888  0.1132  0.1676
 3442TIP3    H231818   4.520   1.045   2.878  0.3986  0.9923 -0.1431
 3443TIP3   OH231819   4.006   5.069  11.103 -0.1673  0.0510  0.0159
 3443TIP3    H131820   4.052   5.100  11.181 -2.1196 -0.7388  1.5501
 3443TIP3    H231821   4.039   4.980  11.090  0.8476  0.4963 -0.6902
 3444TIP3   OH231822   6.812   0.668  15.672  0.1658 -0.1216 -0.0187
 3444TIP3    H131823   6.906   0.685  15.677  0.0617  0.5395 -0.1617
 3444TIP3    H231824   6.771   0.745  15.712 -0.3452  0.2259 -1.1597
 3445TIP3   OH231825   5.518   1.969   0.347 -0.3662 -0.5283 -0.0398
 3445TIP3    H131826   5.488   1.971   0.438 -0.7426 -0.1760 -0.1664
 3445TIP3    H231827   5.458   1.910   0.303  0.4019 -1.4615  0.1324
 3446TIP3   OH231828   3.533   3.199  16.580  0.3487 -0.3051  0.1419
 3446TIP3    H131829   3.483   3.203  16.661 -0.8139  0.1316 -0.5752
 3446TIP3    H231830   3.497   3.123  16.533  1.5160 -1.0102  0.3303
 3447TIP3   OH231831   2.978   0.023  12.421 -0.5290 -0.6151 -0.5452
 3447TIP3    H131832   2.983  -0.015  12.509 -2.8213 -2.0143 -0.9298
 3447TIP3    H231833   2.890   0.000  12.390  0.7170 -1.5752 -3.8275
 3448TIP3   OH231834   2.732   0.662   6.482  0.5120 -0.3914 -0.4863
 3448TIP3    H131835   2.686   0.641   6.564 -1.1822  1.6797 -0.8204
 3448TIP3    H231836   2.715   0.755   6.469  0.4502 -0.7333 -3.3745
 3449TIP3   OH231837   2.830   0.906  11.704 -0.3336 -0.1308  0.1264
 3449TIP3    H131838   2.743   0.865  11.702 -1.0455  1.3414 -0.1437
 3449TIP3    H231839   2.820   0.982  11.761  0.4512  0.7506 -0.8568
 3450TIP3   OH231840   2.689   0.219  10.652  0.3374  0.3026 -0.0643
 3450TIP3    H131841   2.652   0.300  10.686  0.9492  1.4683 -2.0320
 3450TIP3    H231842   2.613   0.161  10.641 -0.0887  0.5274  1.4364
 3451TIP3   OH231843   0.380   3.629   1.828  0.2590  0.4760 -0.1875
 3451TIP3    H131844   0.313   3.623   1.895 -1.1019 -0.7014 -1.5732
 3451TIP3    H231845   0.405   3.721   1.826 -1.3635  0.9549  0.3321
 3452TIP3   OH231846   3.634   5.084   5.928 -0.0731 -0.0383  0.1227
 3452TIP3    H131847   3.682   5.051   6.004  2.3736  0.7721 -0.9549
 3452TIP3    H231848   3.550   5.112   5.963  1.1127  0.7068  2.6435
 3453TIP3   OH231849   6.378   3.174   2.980 -0.1860 -0.4823 -0.3697
 3453TIP3    H131850   6.286   3.150   2.968 -1.1687  1.8913  1.6674
 3453TIP3    H231851   6.421   3.142   2.900 -3.1192  0.1018 -2.3600
 3454TIP3   OH231852   1.456   6.501  15.230 -0.2385 -0.0917 -0.3709
 3454TIP3    H131853   1.440   6.586  15.271  0.1893 -0.2632  0.1649
 3454TIP3    H231854   1.371   6.475  15.194 -0.5295  0.2475  0.0577
 3455TIP3   OH231855   2.351   3.554  15.468 -0.3462  0.0567 -0.4652
 3455TIP3    H131856   2.429   3.602  15.442 -0.2214 -1.1510 -2.4906
 3455TIP3    H231857   2.366   3.532  15.560  0.4686  2.1015 -0.0606
 3456TIP3   OH231858   5.250   4.707   1.519  0.8908 -0.3653 -0.4244
 3456TIP3    H131859   5.205   4.788   1.497  0.7390 -0.4520 -0.4378
 3456TIP3    H231860   5.180   4.641   1.520  0.4070  0.0318  2.7411
 3457TIP3   OH231861   2.253   1.807   5.538 -0.2498  0.0560  0.2232
 3457TIP3    H131862   2.312   1.819   5.613  1.2298  1.7229 -1.1139
 3457TIP3    H231863   2.186   1.874   5.549 -1.2600 -1.0364  1.0798
 3458TIP3   OH231864   3.710   1.625  14.866  0.3687  0.1933  0.1046
 3458TIP3    H131865   3.714   1.591  14.777  3.1774 -1.1987  0.6433
 3458TIP3    H231866   3.714   1.546  14.921 -0.2542  1.0803  1.4704
 3459TIP3   OH231867   5.433   4.551   1.670 -0.2239  0.3199  0.7445
 3459TIP3    H131868   5.362   4.592   1.620  0.2699  1.3326  0.8412
 3459TIP3    H231869   5.508   4.609   1.656  0.5445 -0.6483  0.7754
 3460TIP3   OH231870   6.056   1.683  16.087  0.0728  0.3579  0.6763
 3460TIP3    H131871   5.989   1.617  16.066 -0.8718  1.0484  1.4570
 3460TIP3    H231872   6.133   1.655  16.037 -1.6076  1.1034 -2.6425
 3461TIP3   OH231873   4.178   4.415  11.188 -0.4338 -0.2471  0.6316
 3461TIP3    H131874   4.209   4.422  11.279 -1.0264  0.0136  0.8161
 3461TIP3    H231875   4.085   4.433  11.193 -0.3454  0.4834 -0.1396
 3462TIP3   OH231876   0.207   6.767  15.488 -0.6110  0.1549 -0.2098
 3462TIP3    H131877   0.231   6.859  15.480 -0.7873  0.0427 -3.0927
 3462TIP3    H231878   0.120   6.768  15.529 -0.9822  1.3440 -0.9899
 3463TIP3   OH231879   6.746   4.967  16.275 -0.2500  0.1166  0.3016
 3463TIP3    H131880   6.779   5.018  16.350  0.7416 -0.7205  0.4512
 3463TIP3    H231881   6.709   5.033  16.216 -1.0424  0.7996  1.5086
 3464TIP3   OH231882   4.362   3.761   6.035  0.3211  0.8027 -0.1240
 3464TIP3    H131883   4.278   3.748   5.992 -0.1167  2.9442  0.0038
 3464TIP3    H231884   4.369   3.687   6.096  0.0283 -1.1513 -2.2980
 3465TIP3   OH231885   6.194   5.491  16.285 -0.1540  0.4108 -0.4105
 3465TIP3    H131886   6.286   5.468  16.296 -0.6216 -1.0165  0.9151
 3465TIP3    H231887   6.192   5.586  16.288  1.3970  0.5206 -1.6903
 3466TIP3   OH231888   4.703   2.577  17.180  0.4973  0.5980 -0.3609
 3466TIP3    H131889   4.614   2.556  17.211 -0.4442  0.5438 -2.8538
 3466TIP3    H231890   4.696   2.665  17.144  1.6006  0.7846 -0.1548
 3467TIP3   OH231891   1.774   5.469  16.122  0.1290  0.0468  0.0805
 3467TIP3    H131892   1.686   5.462  16.160  0.5588 -0.9444  0.9544
 3467TIP3    H231893   1.792   5.563  16.119 -1.0987  0.2845 -0.4605
 3468TIP3   OH231894   3.865   5.766   2.107 -0.4210  0.1486 -0.0477
 3468TIP3    H131895   3.915   5.817   2.043  1.5935  0.5177  1.7333
 3468TIP3    H231896   3.845   5.827   2.177 -3.3040 -0.0473 -0.5810
 3469TIP3   OH231897   2.716   3.439   0.851 -0.0000  0.1944 -0.5253
 3469TIP3    H131898   2.804   3.453   0.884  0.5524  0.6144 -2.0935
 3469TIP3    H231899   2.697   3.347   0.870  1.2479 -0.2220 -1.2039
 3470TIP3   OH231900   4.162   4.442  13.994  0.0061 -0.1992 -0.2437
 3470TIP3    H131901   4.139   4.349  14.001 -0.8161  0.0008 -0.1002
 3470TIP3    H231902   4.129   4.481  14.074  0.6839  0.1585 -0.1333
 3471TIP3   OH231903   4.019   0.598   2.242  0.1383 -0.5478 -0.7119
 3471TIP3    H131904   3.934   0.639   2.255 -0.1592 -1.2333 -0.4023
 3471TIP3    H231905   4.061   0.601   2.329 -0.3783 -1.9274 -0.3748
 3472TIP3   OH231906   0.248   5.777   4.995  0.0657 -0.7806 -0.1077
 3472TIP3    H131907   0.306   5.701   4.993  1.9121  0.5837 -0.7809
 3472TIP3    H231908   0.249   5.810   4.905  1.4972  1.5805  0.6794
 3473TIP3   OH231909   4.756   0.474  17.049  0.1282  0.7286  0.2439
 3473TIP3    H131910   4.675   0.467  17.099  1.1028  0.9236  1.9258
 3473TIP3    H231911   4.732   0.524  16.971 -1.5912 -0.1801  0.1496
 3474TIP3   OH231912   6.627   5.684   4.275  0.0368 -0.0828 -0.3657
 3474TIP3    H131913   6.615   5.767   4.322  0.4144 -0.3354  0.1879
 3474TIP3    H231914   6.600   5.618   4.338 -0.4906 -0.3775 -0.8878
 3475TIP3   OH231915   3.181   0.770  15.680 -0.2110 -0.2128  0.4027
 3475TIP3    H131916   3.185   0.838  15.746 -2.4778 -1.1646  1.6298
 3475TIP3    H231917   3.183   0.817  15.596 -1.0987  1.3125  1.2051
 3476TIP3   OH231918   0.113   6.393  14.540  0.8799 -0.2302 -0.1086
 3476TIP3    H131919   0.078   6.339  14.469  2.2563 -0.7176 -0.4450
 3476TIP3    H231920   0.083   6.482  14.520 -0.5606 -0.6918 -0.0973
 3477TIP3   OH231921   6.717   6.031  16.948  0.4277 -0.4380 -0.3435
 3477TIP3    H131922   6.691   6.058  16.860 -1.5596 -1.4638 -0.1304
 3477TIP3    H231923   6.750   6.111  16.989 -0.6582  0.5522 -1.3178
 3478TIP3   OH231924   0.375   3.337  13.331 -0.6717 -0.6190  0.2631
 3478TIP3    H131925   0.345   3.276  13.399 -0.9996  1.3311  1.9460
 3478TIP3    H231926   0.470   3.328  13.333 -0.6887 -0.7802  0.8090
 3479TIP3   OH231927   1.891   0.647  16.426 -0.1887  0.0014  0.5448
 3479TIP3    H131928   1.982   0.677  16.433 -0.9598  3.1664 -0.8624
 3479TIP3    H231929   1.896   0.571  16.368  1.5887 -0.0026  0.6346
 3480TIP3   OH231930   1.116   1.765  11.435 -0.1787  0.1803 -0.2646
 3480TIP3    H131931   1.194   1.819  11.425  0.8801 -0.8961  1.6687
 3480TIP3    H231932   1.098   1.766  11.529 -1.7220 -0.6468 -0.5238
 3481TIP3   OH231933   4.744   0.376  15.201 -0.0869 -0.5794  0.2743
 3481TIP3    H131934   4.654   0.343  15.198 -0.8285  1.0722  1.9820
 3481TIP3    H231935   4.740   0.452  15.260  2.6452 -1.1225  1.3216
 3482TIP3   OH231936   5.010   2.081   2.765  0.4463 -0.0033 -0.3723
 3482TIP3    H131937   5.074   2.079   2.837  1.2968  1.2163 -1.0593
 3482TIP3    H231938   5.021   1.997   2.721 -0.4245 -0.9816  1.1834
 3483TIP3   OH231939   3.722   5.587  12.178  0.1307  0.4200  0.1314
 3483TIP3    H131940   3.638   5.616  12.214  0.1929  1.2049 -0.3351
 3483TIP3    H231941   3.703   5.501  12.140 -0.1757  0.0526  1.0979
 3484TIP3   OH231942   5.178   5.882  15.094  0.1342  0.2041  0.2764
 3484TIP3    H131943   5.141   5.822  15.158 -0.0282  1.2953  1.2508
 3484TIP3    H231944   5.132   5.862  15.013 -2.5175  1.3484  1.3836
 3485TIP3   OH231945   1.015   0.027   1.084  0.9284 -0.0623  0.3595
 3485TIP3    H131946   1.059  -0.056   1.098 -0.5442 -0.8434  0.5454
 3485TIP3    H231947   1.058   0.088   1.144  1.0572 -1.0399  1.2765
 3486TIP3   OH231948   5.440   2.309   4.511  0.6068  0.1812  0.3700
 3486TIP3    H131949   5.534   2.308   4.493  0.4235  2.3207 -1.2254
 3486TIP3    H231950   5.420   2.221   4.541  3.1731 -0.2270  1.1577
 3487TIP3   OH231951   5.600   2.015   6.518 -0.3655 -0.4899  0.2824
 3487TIP3    H131952   5.605   2.082   6.450 -0.7206 -1.4834 -0.7452
 3487TIP3    H231953   5.543   2.053   6.585 -0.9349  0.0638 -0.5006
 3488TIP3   OH231954   1.523   3.138   5.297 -0.0093 -0.3383 -0.0303
 3488TIP3    H131955   1.454   3.073   5.286  0.6830 -1.0238 -0.4373
 3488TIP3    H231956   1.482   3.221   5.274 -0.1043 -1.0084 -2.5102
 3489TIP3   OH231957   4.794   4.105   1.419 -0.8128 -0.1662  0.4291
 3489TIP3    H131958   4.787   4.201   1.421  0.6778 -0.0284  0.0591
 3489TIP3    H231959   4.764   4.081   1.331 -0.4028  0.0408  0.2307
 3490TIP3   OH231960   0.045   4.643   0.123  0.0323 -0.3521  0.2841
 3490TIP3    H131961  -0.050   4.633   0.127 -0.0744  0.6824  0.7582
 3490TIP3    H231962   0.074   4.631   0.214  0.0983  1.3594  0.5313
 3491TIP3   OH231963   4.272   1.277   2.395  0.4598  0.2169  0.1742
 3491TIP3    H131964   4.271   1.372   2.384  0.7767  0.3184  0.9472
 3491TIP3    H231965   4.364   1.253   2.394  0.3524 -0.3284 -1.7960
 3492TIP3   OH231966   3.498   2.452   1.837  0.2490  0.0688 -0.5350
 3492TIP3    H131967   3.460   2.456   1.925 -0.6305 -0.7720 -0.8699
 3492TIP3    H231968   3.537   2.539   1.825 -1.6988  1.0355 -0.2302
 3493TIP3   OH231969   5.075   4.576   3.104 -0.4484 -0.3305 -0.2117
 3493TIP3    H131970   5.160   4.558   3.145  1.0074  2.2568 -1.7936
 3493TIP3    H231971   5.037   4.489   3.090  1.5755 -1.5564  1.2359
 3494TIP3   OH231972   6.801   6.591  16.116 -0.1585 -0.4564  0.2933
 3494TIP3    H131973   6.763   6.678  16.127  0.5383 -0.0999 -0.0458
 3494TIP3    H231974   6.877   6.591  16.173  1.1132 -0.0407 -1.3320
 3495TIP3   OH231975   1.718   0.566  12.994 -0.2939 -0.3052  0.0264
 3495TIP3    H131976   1.724   0.633  13.063 -1.7493 -0.5787  0.4586
 3495TIP3    H231977   1.755   0.609  12.916  1.3116  0.0313  0.9343
 3496TIP3   OH231978   5.113   2.859  10.622  0.1174  0.0977  0.2765
 3496TIP3    H131979   5.043   2.799  10.596  1.3885 -1.1862 -0.3078
 3496TIP3    H231980   5.139   2.828  10.709  0.0804  0.4689  0.4217
 3497TIP3   OH231981   4.758   4.129  15.685  0.1597 -0.2032  0.1795
 3497TIP3    H131982   4.758   4.041  15.722 -0.0683 -0.4929 -0.4902
 3497TIP3    H231983   4.713   4.120  15.601 -0.3620  0.6643  0.3552
 3498TIP3   OH231984   3.941   0.934   4.413 -0.3469 -0.6041 -0.1206
 3498TIP3    H131985   4.008   0.894   4.469 -0.3434 -0.0543  0.2786
 3498TIP3    H231986   3.984   0.949   4.330 -0.5198 -1.9962 -0.4901
 3499TIP3   OH231987   2.273   2.121  11.600 -0.0307 -0.3657 -0.1804
 3499TIP3    H131988   2.192   2.172  11.608  0.2189 -0.0138  0.1351
 3499TIP3    H231989   2.343   2.186  11.604  0.3604 -0.8311  1.7944
 3500TIP3   OH231990   3.689   0.556  15.450  0.2899 -0.1458 -0.0640
 3500TIP3    H131991   3.652   0.597  15.372  2.3464  0.7617 -0.6428
 3500TIP3    H231992   3.706   0.629  15.509 -1.0546 -0.8047  1.2002
 3501TIP3   OH231993   5.649   0.962  14.752 -0.0297  0.2547 -0.2275
 3501TIP3    H131994   5.651   1.041  14.805  0.7817 -0.3269  0.6460
 3501TIP3    H231995   5.650   0.993  14.662  0.7918  1.2276  0.1062
 3502TIP3   OH231996   3.349   3.949  11.835  0.0970 -0.3078 -0.3600
 3502TIP3    H131997   3.318   3.886  11.900  0.3153 -0.3465 -0.2923
 3502TIP3    H231998   3.302   4.030  11.856  0.6133 -0.1503  0.2311
 3503TIP3   OH231999   5.735   4.606  16.850  0.3749  0.3728 -0.3875
 3503TIP3    H132000   5.816   4.575  16.810  0.9867  0.1097  0.9953
 3503TIP3    H232001   5.715   4.688  16.804  0.0272 -0.8070 -2.4552
 3504TIP3   OH232002   4.556   6.529   0.652  0.3920  0.2783  0.2715
 3504TIP3    H132003   4.532   6.560   0.564 -0.8671 -0.4285  0.3419
 3504TIP3    H232004   4.472   6.506   0.692  1.1075 -1.2095  0.9760
 3505TIP3   OH232005   4.456   1.883  14.441  0.6230 -0.1794  0.0039
 3505TIP3    H132006   4.388   1.908  14.503 -1.0091 -0.7749 -1.4800
 3505TIP3    H232007   4.471   1.790  14.457  0.5122 -0.2319 -0.1924
 3506TIP3   OH232008   1.745   6.614   4.043  0.1558  0.0127  0.4351
 3506TIP3    H132009   1.699   6.565   3.974  1.1024  0.4230 -0.5103
 3506TIP3    H232010   1.836   6.617   4.013  0.3634  1.1721  1.1556
 3507TIP3   OH232011   2.084   2.029  12.548 -0.0226  0.1316 -0.3314
 3507TIP3    H132012   2.043   2.059  12.467 -0.0046 -1.9477 -1.1893
 3507TIP3    H232013   2.172   2.000  12.521 -0.0821 -0.7528  0.3696
 3508TIP3   OH232014   5.633   0.388  14.071  0.3893  0.9019 -0.3852
 3508TIP3    H132015   5.661   0.445  14.142  0.7671 -0.0154  0.2186
 3508TIP3    H232016   5.625   0.302  14.111  1.2198  0.2414 -1.5701
 3509TIP3   OH232017   1.081   0.307  14.535  0.2853 -0.8356  0.0574
 3509TIP3    H132018   1.105   0.228  14.584 -0.0133 -2.3986 -2.1486
 3509TIP3    H232019   1.008   0.280  14.480  0.6442  0.7764 -1.3001
 3510TIP3   OH232020   2.760   0.927  12.676 -0.0305  0.6039 -0.4712
 3510TIP3    H132021   2.778   0.949  12.585 -1.4636  0.0419 -0.9177
 3510TIP3    H232022   2.733   0.835  12.674  1.6976  0.0143  0.7862
 3511TIP3   OH232023   0.802   3.983   3.455 -0.0423  0.1427  0.2800
 3511TIP3    H132024   0.801   4.063   3.402  0.6474  0.0451  0.1123
 3511TIP3    H232025   0.714   3.946   3.444  0.1706 -0.0232 -1.0404
 3512TIP3   OH232026   3.740   1.477   4.542  0.2370 -0.2154  0.4505
 3512TIP3    H132027   3.755   1.489   4.448  1.0834  1.2277  0.7428
 3512TIP3    H232028   3.745   1.565   4.578 -2.5464 -0.4049  1.5339
 3513TIP3   OH232029   0.252   4.176   5.340 -0.7470 -0.2880  0.0619
 3513TIP3    H132030   0.321   4.193   5.405 -0.4142 -0.4568 -0.2395
 3513TIP3    H232031   0.176   4.225   5.371 -0.8027 -0.9111  0.9530
 3514TIP3   OH232032   3.057   3.314  13.068  0.0750  0.4790  0.0659
 3514TIP3    H132033   3.054   3.232  13.118 -1.5300  0.3648 -0.1525
 3514TIP3    H232034   3.109   3.373  13.123  1.7342 -0.8084 -0.0314
 3515TIP3   OH232035   5.495   4.699  15.226 -0.1733  0.1151  0.4327
 3515TIP3    H132036   5.442   4.634  15.272 -1.8799  2.2437  1.6657
 3515TIP3    H232037   5.537   4.749  15.296  1.2650  0.2448 -0.4862
 3516TIP3   OH232038   3.286   6.782  13.238  0.3737  0.4297 -0.3234
 3516TIP3    H132039   3.374   6.769  13.203 -0.1697  0.2692 -1.6865
 3516TIP3    H232040   3.281   6.876  13.258  0.8235  0.4505 -0.3076
 3517TIP3   OH232041   1.675   3.671   0.141  0.0082  0.0252 -0.1437
 3517TIP3    H132042   1.721   3.661   0.058 -0.6377 -0.2549 -0.4755
 3517TIP3    H232043   1.681   3.586   0.183 -1.3274 -0.4107 -0.7869
 3518TIP3   OH232044   6.708   2.597   0.820  0.2925 -0.4874  0.1009
 3518TIP3    H132045   6.691   2.516   0.772  1.2675  0.7405 -2.5240
 3518TIP3    H232046   6.804   2.604   0.821  0.3703  2.4663 -3.4337
 3519TIP3   OH232047   2.630   0.558  14.262  0.1677  0.0616  0.3713
 3519TIP3    H132048   2.680   0.574  14.182  1.2302 -0.1001  0.9841
 3519TIP3    H232049   2.551   0.612  14.253  0.6963  0.7198 -0.3809
 3520TIP3   OH232050   1.514   6.800   1.396 -0.1518  0.4274 -0.2718
 3520TIP3    H132051   1.552   6.758   1.473  0.5904 -1.7290 -1.7359
 3520TIP3    H232052   1.496   6.729   1.335 -4.9385  1.4921 -0.4707
 3521TIP3   OH232053   0.155   4.515   6.045 -0.2767 -0.6801  0.2766
 3521TIP3    H132054   0.156   4.474   6.132 -0.1705  0.7123  0.9622
 3521TIP3    H232055   0.062   4.520   6.022 -0.5041  0.8726  1.3098
 3522TIP3   OH232056   5.748   2.652   6.662  0.3471  0.4036  0.0568
 3522TIP3    H132057   5.788   2.591   6.601  3.0097  0.6623  1.3851
 3522TIP3    H232058   5.664   2.612   6.686  0.5367 -1.0534 -1.5581
 3523TIP3   OH232059   5.290   2.144  12.393  0.3825 -0.4257  0.0887
 3523TIP3    H132060   5.215   2.199  12.373  0.2922 -0.7467 -0.4979
 3523TIP3    H232061   5.343   2.195  12.453  0.9396  0.8433 -1.4101
 3524TIP3   OH232062   6.757   5.886  11.165  0.3704 -0.1426  0.2110
 3524TIP3    H132063   6.837   5.907  11.213  0.1914 -0.9038  0.8659
 3524TIP3    H232064   6.716   5.817  11.217 -0.9438  0.5592  0.1223
 3525TIP3   OH232065   5.336   0.157  13.399  0.7470  0.7202 -0.2047
 3525TIP3    H132066   5.300   0.096  13.463 -1.5672  2.8754  0.7459
 3525TIP3    H232067   5.410   0.199  13.445  0.4000  0.7889  0.3032
 3526TIP3   OH232068   4.769   0.837   0.719 -0.1398 -0.0752  0.6034
 3526TIP3    H132069   4.805   0.881   0.796 -0.0514  0.2152  0.3964
 3526TIP3    H232070   4.778   0.901   0.648 -2.4465  0.5808  0.8494
 3527TIP3   OH232071   6.031   1.843   3.968 -0.1097 -0.1143 -0.3700
 3527TIP3    H132072   5.970   1.916   3.977 -0.5068 -0.6623  1.9550
 3527TIP3    H232073   5.985   1.781   3.912  0.1775  1.2877 -2.2586
 3528TIP3   OH232074   3.253   5.054   4.239 -0.0790  0.0744 -0.1208
 3528TIP3    H132075   3.295   4.968   4.228 -1.4508 -1.2819  3.6511
 3528TIP3    H232076   3.308   5.099   4.303  0.7223  2.2326 -2.1717
 3529TIP3   OH232077   1.690   1.803   5.589 -0.3145  0.6780 -0.7082
 3529TIP3    H132078   1.629   1.732   5.569 -0.3627  0.7548 -0.8384
 3529TIP3    H232079   1.667   1.830   5.678 -0.2165  0.4511 -0.6138
 3530TIP3   OH232080   4.703   5.081   1.536 -0.1172 -0.2532 -0.4574
 3530TIP3    H132081   4.671   5.043   1.618  0.6217 -1.6532 -0.7962
 3530TIP3    H232082   4.780   5.132   1.562  0.2380 -0.8593 -0.2910
 3531TIP3   OH232083   1.370   5.283   4.555 -0.2013 -0.2015 -0.3592
 3531TIP3    H132084   1.310   5.227   4.604  1.5427  0.1676  2.3817
 3531TIP3    H232085   1.350   5.372   4.586  2.7496 -0.2026  1.9543
 3532TIP3   OH232086   1.239   4.911   1.781  0.4098 -0.1293  0.2805
 3532TIP3    H132087   1.149   4.877   1.783 -0.1291  1.2528  0.7542
 3532TIP3    H232088   1.294   4.834   1.795 -0.8101 -0.6834  2.4033
 3533TIP3   OH232089   2.562   6.698   2.767  0.1078 -0.0735  0.2299
 3533TIP3    H132090   2.613   6.737   2.697  2.2611 -1.2705  1.0091
 3533TIP3    H232091   2.522   6.621   2.727  0.3429 -0.0819  0.0053
 3534TIP3   OH232092   6.017   3.285  12.234 -0.0925  0.5797 -0.5367
 3534TIP3    H132093   6.007   3.380  12.232  1.9990  0.8598  0.0171
 3534TIP3    H232094   6.079   3.269  12.305 -0.2848 -1.1997 -0.7264
 3535TIP3   OH232095   3.094   2.182  15.286 -0.4579  0.1216  0.0047
 3535TIP3    H132096   3.050   2.097  15.290 -1.4953  0.6759  1.0251
 3535TIP3    H232097   3.022   2.245  15.276  0.2148  0.9507  0.3205
 3536TIP3   OH232098   2.369   4.935   3.155 -0.4245 -0.2062 -0.3056
 3536TIP3    H132099   2.286   4.975   3.130  0.1131  1.1615  0.0110
 3536TIP3    H232100   2.435   4.985   3.106  0.2867 -0.5581  0.2714
 3537TIP3   OH232101   6.531   2.956  16.271  1.0827  0.0168  0.0257
 3537TIP3    H132102   6.609   2.994  16.231  0.6828 -0.4528 -1.2702
 3537TIP3    H232103   6.516   2.875  16.222 -0.7094  0.5339 -0.3662
 3538TIP3   OH232104   6.220   5.753   2.636  0.3048  0.2532  0.2211
 3538TIP3    H132105   6.166   5.827   2.664  0.0132 -0.0576  0.4930
 3538TIP3    H232106   6.181   5.725   2.553 -1.6754 -1.6446  1.6512
 3539TIP3   OH232107   5.527   3.453  12.051 -0.1157 -0.0842 -0.1497
 3539TIP3    H132108   5.594   3.385  12.054 -1.7087 -1.7586 -0.2791
 3539TIP3    H232109   5.535   3.491  11.964  1.0610  0.2164  0.0690
 3540TIP3   OH232110   1.491   6.371  16.041  0.4395 -0.2407 -0.3083
 3540TIP3    H132111   1.568   6.341  15.994 -0.1944  0.6228 -1.9880
 3540TIP3    H232112   1.525   6.418  16.117  1.6983  1.6050 -1.9026
 3541TIP3   OH232113   2.050   6.650   5.433 -0.2302 -0.6883  0.1983
 3541TIP3    H132114   2.065   6.728   5.379  1.2786 -0.3925  0.9865
 3541TIP3    H232115   1.996   6.681   5.506 -1.4503 -0.8798 -0.5929
 3542TIP3   OH232116   3.960   5.580  11.442  0.2781  0.4493  0.6261
 3542TIP3    H132117   3.904   5.508  11.417 -2.7433  2.3249  1.4889
 3542TIP3    H232118   3.929   5.607  11.529  2.5257  1.6392  1.1752
 3543TIP3   OH232119   2.537   4.073  16.526 -0.3799 -0.4170  0.0790
 3543TIP3    H132120   2.624   4.037  16.542 -0.7312 -2.0267 -1.3992
 3543TIP3    H232121   2.551   4.167  16.519  0.3138  0.3606  6.0799
 3544TIP3   OH232122   2.251   4.871   5.673  0.1679  0.2145 -0.0487
 3544TIP3    H132123   2.323   4.929   5.695 -1.3541  1.4770  1.9633
 3544TIP3    H232124   2.288   4.783   5.679  1.6282  0.8483  0.4994
 3545TIP3   OH232125   4.382   4.308   4.918  0.1524  0.4161  0.0023
 3545TIP3    H132126   4.312   4.327   4.981  0.0498  0.7697 -0.2173
 3545TIP3    H232127   4.338   4.269   4.843  0.3791 -0.8423  0.5050
 3546TIP3   OH232128   5.007   4.505  11.056  0.0815 -0.4495 -0.2496
 3546TIP3    H132129   5.010   4.546  10.969 -0.3482  0.1655  0.0130
 3546TIP3    H232130   5.093   4.466  11.067  0.6598  0.7354 -0.3629
 3547TIP3   OH232131   5.327   3.027  10.665 -0.0792  0.2386  0.1827
 3547TIP3    H132132   5.254   2.969  10.643 -0.6751  1.4648 -1.2524
 3547TIP3    H232133   5.288   3.114  10.668  1.1080  0.7758  0.6520
 3548TIP3   OH232134   3.410   0.037   2.268 -0.1811  0.1614 -0.4750
 3548TIP3    H132135   3.430   0.100   2.198  1.8605 -0.0253 -0.1121
 3548TIP3    H232136   3.348   0.083   2.324  0.5453  1.5222 -0.7230
 3549TIP3   OH232137   5.802   5.401   0.224 -0.1923 -0.3159 -0.4195
 3549TIP3    H132138   5.771   5.411   0.135 -0.3203 -0.5879 -0.4065
 3549TIP3    H232139   5.818   5.307   0.234  0.5195 -0.1981 -0.3880
 3550TIP3   OH232140   1.324   6.045  13.383  0.4351 -0.5775  0.5796
 3550TIP3    H132141   1.249   6.068  13.438  0.6178 -0.4958  0.7965
 3550TIP3    H232142   1.376   5.985  13.436  0.8551 -0.1340  0.6823
 3551TIP3   OH232143   6.217   1.811  13.210  0.7393 -0.3652 -0.0488
 3551TIP3    H132144   6.188   1.897  13.241  1.8397 -0.1527  0.4327
 3551TIP3    H232145   6.139   1.757  13.213  0.2225  0.3913  0.4715
 3552TIP3   OH232146   6.368   4.911   2.328 -0.4953 -0.6361  0.4935
 3552TIP3    H132147   6.381   4.821   2.358 -0.1234 -0.1310  1.9414
 3552TIP3    H232148   6.448   4.930   2.278 -0.0709 -0.7626  1.1046
 3553TIP3   OH232149   2.355   4.861   2.546  0.3598  0.2926 -0.3388
 3553TIP3    H132150   2.346   4.950   2.581  1.8751  0.5184 -0.4570
 3553TIP3    H232151   2.330   4.869   2.454  0.6407  0.6413 -0.3891
 3554TIP3   OH232152   5.195   2.886   1.072  0.2357  0.0168  0.0925
 3554TIP3    H132153   5.125   2.824   1.050  0.3056 -0.1963  0.4577
 3554TIP3    H232154   5.193   2.951   1.002  0.4126 -0.6159 -0.5107
 3555TIP3   OH232155   1.217   5.233  14.622  0.2365  0.0846  0.4465
 3555TIP3    H132156   1.126   5.261  14.630  0.2522 -0.1191  1.5252
 3555TIP3    H232157   1.235   5.189  14.705  0.3507 -2.6766 -0.9101
 3556TIP3   OH232158   6.344   1.224   0.923  0.5273 -0.1223 -0.3732
 3556TIP3    H132159   6.401   1.281   0.871 -0.9337  0.4649 -1.4372
 3556TIP3    H232160   6.264   1.216   0.870  0.4939 -2.8293 -0.0499
 3557TIP3   OH232161   2.533   1.737   0.727 -0.0965  0.2404 -0.2246
 3557TIP3    H132162   2.486   1.680   0.665  0.3764  0.9203 -1.2398
 3557TIP3    H232163   2.552   1.816   0.676  1.2434  0.3897  0.4777
 3558TIP3   OH232164   4.912   0.103  16.725  0.2031 -0.4857 -0.2018
 3558TIP3    H132165   4.997   0.086  16.686  0.3057  0.1434 -0.2724
 3558TIP3    H232166   4.854   0.038  16.687  0.6221 -0.8355 -0.2536
 3559TIP3   OH232167   2.604   5.612   1.581 -0.5951  0.4641 -0.5282
 3559TIP3    H132168   2.597   5.658   1.497  0.2236  0.2979 -0.6969
 3559TIP3    H232169   2.684   5.646   1.621 -0.7258  0.1944 -0.0282
 3560TIP3   OH232170   5.893   4.326  13.975 -0.5253  0.0146 -0.0505
 3560TIP3    H132171   5.838   4.383  13.921 -0.5537 -0.9937 -1.1384
 3560TIP3    H232172   5.962   4.384  14.009 -0.6197  0.7285 -1.0246
 3561TIP3   OH232173   0.689   4.552   4.098  0.7708 -0.5487 -0.0990
 3561TIP3    H132174   0.666   4.529   4.008 -0.9769 -2.3802  0.7414
 3561TIP3    H232175   0.766   4.498   4.117 -0.7167 -2.5684  0.4500
 3562TIP3   OH232176   3.552   6.427  15.964 -0.7119  0.0914 -0.1002
 3562TIP3    H132177   3.527   6.346  16.009  1.2216 -0.5608 -0.1265
 3562TIP3    H232178   3.598   6.478  16.030 -2.1490  1.3516 -0.0064
 3563TIP3   OH232179   0.007   0.708  12.078 -0.5165  0.0000 -0.5241
 3563TIP3    H132180   0.002   0.742  12.167  1.8274  0.4440 -0.4989
 3563TIP3    H232181  -0.070   0.745  12.034 -1.6238 -0.1115  1.2532
 3564TIP3   OH232182   3.998   2.912   3.463  0.0290 -0.5455 -0.3264
 3564TIP3    H132183   4.015   2.991   3.412  1.7316 -1.8503 -1.9116
 3564TIP3    H232184   4.062   2.914   3.534 -1.4365  0.5736  1.0484
 3565TIP3   OH232185   2.551   1.150   2.507 -0.4200 -0.6126  0.6217
 3565TIP3    H132186   2.557   1.061   2.472 -1.5440 -0.5967  0.3248
 3565TIP3    H232187   2.555   1.138   2.602  0.2432 -0.9010  0.5604
 3566TIP3   OH232188   3.173   4.073   2.003 -0.3975  0.0672 -0.2788
 3566TIP3    H132189   3.155   4.083   2.096 -0.4679  0.1441 -0.3008
 3566TIP3    H232190   3.253   4.022   2.000  0.2512  1.0486 -0.1580
 3567TIP3   OH232191   6.788   0.419   1.173  0.4085 -0.6521  0.3630
 3567TIP3    H132192   6.711   0.466   1.204 -0.1048 -1.6111  0.5616
 3567TIP3    H232193   6.849   0.421   1.248  1.5727  2.1144 -0.5291
 3568TIP3   OH232194   6.520   2.662   3.620  0.3322 -0.5249 -0.0944
 3568TIP3    H132195   6.456   2.705   3.676  0.2298 -2.1903  1.1139
 3568TIP3    H232196   6.481   2.664   3.533 -0.3154  0.4940  0.2093
 3569TIP3   OH232197   6.546   0.430  14.718  0.3276  0.5640 -0.7638
 3569TIP3    H132198   6.620   0.475  14.758 -0.0165  0.1639  0.3794
 3569TIP3    H232199   6.489   0.407  14.792 -0.2020 -0.4607 -1.4583
 3570TIP3   OH232200   1.842   1.791   2.065  0.1235 -0.5180 -0.5108
 3570TIP3    H132201   1.873   1.870   2.022  1.5892 -0.3116  0.8229
 3570TIP3    H232202   1.749   1.786   2.042 -0.0174  1.5857 -0.6095
 3571TIP3   OH232203   0.478   1.964  14.573  0.0708  0.4173  0.0278
 3571TIP3    H132204   0.458   1.882  14.529  0.0099  1.0921 -1.2609
 3571TIP3    H232205   0.571   1.958  14.596 -0.0458 -0.1860  0.3382
 3572TIP3   OH232206   6.075   0.611   3.172 -0.3093 -0.0749  0.3775
 3572TIP3    H132207   6.153   0.666   3.180 -0.4224  0.1162  0.1918
 3572TIP3    H232208   6.108   0.521   3.169 -0.2386 -0.1833  2.7900
 3573TIP3   OH232209   1.182   1.299   0.614  0.0442 -0.1957 -0.0480
 3573TIP3    H132210   1.185   1.267   0.524  2.3707 -0.2208 -0.0173
 3573TIP3    H232211   1.134   1.231   0.661  0.7229 -1.2903 -0.8857
 3574TIP3   OH232212   6.589   4.399   2.459  0.0717  0.5658  0.5043
 3574TIP3    H132213   6.541   4.337   2.403  1.5353  0.3171 -0.5287
 3574TIP3    H232214   6.630   4.460   2.398  0.7078  1.0347  1.3790
 3575TIP3   OH232215   6.619   5.333  11.272 -0.7785 -0.4340 -0.2855
 3575TIP3    H132216   6.712   5.322  11.250 -0.1246  0.7692  1.6130
 3575TIP3    H232217   6.592   5.409  11.220  0.3691  1.5178  1.7761
 3576TIP3   OH232218   2.542   4.137  13.387 -0.4640  0.2854 -0.0195
 3576TIP3    H132219   2.520   4.134  13.294  2.3065  1.3555 -0.8236
 3576TIP3    H232220   2.512   4.053  13.422 -1.8039 -0.0207 -1.8015
 3577TIP3   OH232221   3.076   1.332   6.779  0.1843 -0.1356 -0.1759
 3577TIP3    H132222   3.032   1.265   6.728  0.5593  0.0261 -0.7152
 3577TIP3    H232223   3.151   1.288   6.818 -0.5224 -0.4543  0.8810
 3578TIP3   OH232224   1.598   1.202   1.147 -0.0560 -0.5992  0.7320
 3578TIP3    H132225   1.537   1.206   1.221  0.2495  1.3489  0.9065
 3578TIP3    H232226   1.684   1.218   1.185  0.0869  0.6172 -0.0516
 3579TIP3   OH232227   4.523   6.431  15.596  0.2436  0.2522 -0.0144
 3579TIP3    H132228   4.433   6.430  15.564 -0.2260 -0.4124  1.2369
 3579TIP3    H232229   4.516   6.466  15.685  1.3632  1.1145 -0.2460
 3580TIP3   OH232230   4.135   1.612   2.693 -0.3027  0.3695  0.1688
 3580TIP3    H132231   4.202   1.636   2.758 -0.5645 -0.8381  0.9082
 3580TIP3    H232232   4.084   1.543   2.735  0.5489 -1.6677 -1.9214
 3581TIP3   OH232233   2.786   4.185  12.876 -0.6017 -0.2598  0.2960
 3581TIP3    H132234   2.810   4.209  12.786 -0.4392 -2.4134 -0.2924
 3581TIP3    H232235   2.805   4.264  12.927  0.5953  0.5919 -1.3301
 3582TIP3   OH232236   0.266   1.190   6.361 -0.3536  0.2617 -0.1091
 3582TIP3    H132237   0.315   1.124   6.409  1.2374  1.9232  0.6729
 3582TIP3    H232238   0.252   1.261   6.424 -2.0315  0.7069 -0.9050
 3583TIP3   OH232239   0.161   3.043   1.104 -0.1874 -0.1047 -0.3781
 3583TIP3    H132240   0.140   3.136   1.109  0.1643  0.1212 -2.4109
 3583TIP3    H232241   0.233   3.032   1.166  0.1886  1.1162 -0.5627
 3584TIP3   OH232242   5.972   4.796  11.934  0.9126 -0.4991  0.3226
 3584TIP3    H132243   5.948   4.839  11.852  1.2434 -0.1337  0.4139
 3584TIP3    H232244   5.993   4.868  11.994  1.0108 -0.7733  0.6210
 3585TIP3   OH232245   1.961   2.232  13.156 -0.4110 -0.1529  0.2266
 3585TIP3    H132246   2.056   2.237  13.164 -0.2858 -2.1741  0.4038
 3585TIP3    H232247   1.929   2.309  13.204  1.1010  0.3091  0.5477
 3586TIP3   OH232248   1.494   1.642   4.334  0.3759  0.3812  0.2722
 3586TIP3    H132249   1.531   1.567   4.379  2.2644 -0.9513 -3.1855
 3586TIP3    H232250   1.547   1.716   4.362  0.9755 -0.2465  0.8136
 3587TIP3   OH232251   5.566   2.957  15.346 -0.5855  0.1266 -0.2963
 3587TIP3    H132252   5.640   3.017  15.332 -1.3055  1.2172  0.3905
 3587TIP3    H232253   5.598   2.872  15.316  1.4373  0.2696  1.2060
 3588TIP3   OH232254   4.595   5.462   2.368  0.4056  0.3289 -0.5509
 3588TIP3    H132255   4.560   5.528   2.308 -0.0154  0.2271 -0.4189
 3588TIP3    H232256   4.521   5.436   2.422  0.8055  0.5008  0.0953
 3589TIP3   OH232257   0.408   4.729  13.036  0.4413 -0.3509  0.5392
 3589TIP3    H132258   0.482   4.733  12.976  1.9314 -0.0415  2.3342
 3589TIP3    H232259   0.439   4.678  13.111 -1.4298 -0.9119  1.0026
 3590TIP3   OH232260   1.419   2.564  14.706 -0.1845 -0.0986  0.2444
 3590TIP3    H132261   1.417   2.615  14.626 -0.3481 -2.5439 -1.4246
 3590TIP3    H232262   1.493   2.598  14.756  1.0433  0.3038 -1.7763
 3591TIP3   OH232263   2.442   2.429  13.173 -0.1695  0.3060  0.2728
 3591TIP3    H132264   2.432   2.382  13.091  0.9636 -0.1619  0.3882
 3591TIP3    H232265   2.422   2.364  13.241  0.2905  0.2934  0.4005
 3592TIP3   OH232266   4.521   1.390   0.609  0.6401  0.4535  0.0041
 3592TIP3    H132267   4.614   1.380   0.626  0.4559 -0.8029  0.3800
 3592TIP3    H232268   4.516   1.420   0.518  1.3730 -1.2983 -0.6538
 3593TIP3   OH232269   2.861   0.351  12.199 -0.3116 -0.5674 -0.1529
 3593TIP3    H132270   2.931   0.315  12.144 -0.0358 -1.2018  0.5913
 3593TIP3    H232271   2.803   0.276  12.215 -2.5919  0.4489 -2.8134
 3594TIP3   OH232272   4.747   6.132  14.146 -0.1932 -0.1728 -0.9701
 3594TIP3    H132273   4.821   6.162  14.200 -2.6314  1.2426  1.8882
 3594TIP3    H232274   4.749   6.189  14.069  0.8705  0.8224 -0.2499
 3595TIP3   OH232275   0.394   2.800   5.581  0.9260 -0.2812  0.1852
 3595TIP3    H132276   0.401   2.885   5.539 -2.8618  0.0204 -0.2300
 3595TIP3    H232277   0.358   2.742   5.514  2.3583 -1.9748  0.7895
 3596TIP3   OH232278   2.893   1.557  16.037  0.0679  0.2318 -0.1081
 3596TIP3    H132279   2.869   1.477  16.083 -0.2530 -0.4887 -1.4817
 3596TIP3    H232280   2.811   1.586  15.996  0.4338  0.6152 -0.5821
 3597TIP3   OH232281   1.587   2.576   1.852 -0.5102 -0.6908 -0.4118
 3597TIP3    H132282   1.512   2.521   1.874 -0.5855 -0.7356 -0.7838
 3597TIP3    H232283   1.644   2.519   1.801  0.7623 -1.3217  1.5856
 3598TIP3   OH232284   0.238   6.726  12.049 -0.3269 -0.3207 -0.7761
 3598TIP3    H132285   0.281   6.663  11.992 -0.4417 -1.1148  0.0102
 3598TIP3    H232286   0.302   6.797  12.059  0.1880 -0.7729 -0.8500
 3599TIP3   OH232287   6.478   1.063  12.026  0.0501  0.1952  0.1031
 3599TIP3    H132288   6.391   1.022  12.021  0.5254 -1.0451  1.5953
 3599TIP3    H232289   6.535   1.004  11.977  0.2416  0.5512 -0.1115
 3600TIP3   OH232290   0.569   3.076   2.681  0.1310  0.0725 -0.5221
 3600TIP3    H132291   0.495   3.095   2.624  0.4358  0.2590 -0.8651
 3600TIP3    H232292   0.532   3.069   2.769 -0.0786  1.6878 -0.4606
 3601TIP3   OH232293   5.005   2.857   3.239  0.4178 -0.1084  0.0925
 3601TIP3    H132294   4.916   2.892   3.233  0.0245 -1.1395 -0.1945
 3601TIP3    H232295   5.006   2.807   3.321  0.3521 -1.1438 -0.5344
 3602TIP3   OH232296   4.228   4.523  16.673 -0.6877  0.4570 -0.3204
 3602TIP3    H132297   4.262   4.502  16.586 -0.8100 -0.0248 -0.2576
 3602TIP3    H232298   4.135   4.541  16.658 -0.4810  1.4582 -0.4473
 3603TIP3   OH232299   1.698   0.192   4.533 -0.6243  0.5772 -0.3845
 3603TIP3    H132300   1.650   0.139   4.470  1.3473  0.0089 -1.5059
 3603TIP3    H232301   1.684   0.148   4.617 -2.9837  1.1298 -0.4282
 3604TIP3   OH232302   1.454   5.203  11.424  0.1399  0.4917  0.2179
 3604TIP3    H132303   1.542   5.215  11.387 -0.3487  0.3238 -1.0664
 3604TIP3    H232304   1.465   5.218  11.518  1.2001  2.3401 -0.1453
 3605TIP3   OH232305   0.703   2.064  13.339 -0.1497 -0.2434  0.2734
 3605TIP3    H132306   0.786   2.016  13.338 -1.0824 -1.9138  0.1725
 3605TIP3    H232307   0.717   2.137  13.279  0.4737 -1.8725 -1.6698
 3606TIP3   OH232308   3.504   2.544  13.283  0.7768  0.9120 -0.4021
 3606TIP3    H132309   3.456   2.582  13.357  0.9142  1.0466 -0.3823
 3606TIP3    H232310   3.594   2.576  13.294  1.5559 -1.5156  1.1335
 3607TIP3   OH232311   6.557   0.016  13.869  0.3613 -0.2417 -0.2671
 3607TIP3    H132312   6.649   0.033  13.851  0.0550 -0.6109 -2.3856
 3607TIP3    H232313   6.540  -0.069  13.829 -0.7029 -0.6338  0.9281
 3608TIP3   OH232314   5.154   6.240  13.744  0.5240  0.6344  0.2946
 3608TIP3    H132315   5.239   6.258  13.703 -0.2722  0.6202 -1.4230
 3608TIP3    H232316   5.166   6.154  13.786  0.6658 -0.6010 -2.0897
 3609TIP3   OH232317   3.306   1.275  16.012 -0.2105 -0.4409 -0.6972
 3609TIP3    H132318   3.218   1.250  15.985  0.3505 -2.4269 -0.9029
 3609TIP3    H232319   3.363   1.217  15.961  1.2110  0.7684 -0.5330
 3610TIP3   OH232320   2.850   4.261   1.306  0.2686  0.3033 -0.5675
 3610TIP3    H132321   2.791   4.236   1.377  0.3407  1.5059 -0.0561
 3610TIP3    H232322   2.871   4.353   1.324  0.6718  0.4846 -1.8842
 3611TIP3   OH232323   0.849   4.526   2.149  0.4897 -0.2987 -0.1858
 3611TIP3    H132324   0.815   4.616   2.142 -2.9778 -1.5444 -2.0340
 3611TIP3    H232325   0.792   4.484   2.213  1.6022 -1.3767  0.1339
 3612TIP3   OH232326   6.468   5.951  17.205 -0.1147 -0.3300 -0.0906
 3612TIP3    H132327   6.525   6.028  17.205 -0.8871  0.2616 -0.2297
 3612TIP3    H232328   6.413   5.962  17.128 -0.2475 -1.0236 -0.1030
 3613TIP3   OH232329   1.670   5.008  11.101  0.6341  0.7557 -0.0299
 3613TIP3    H132330   1.755   5.028  11.062  0.5143 -0.2525 -0.8526
 3613TIP3    H232331   1.622   4.964  11.031  0.2828 -0.7883  1.1246
 3614TIP3   OH232332   2.785   4.530   2.084  0.0240  0.0380 -0.3940
 3614TIP3    H132333   2.848   4.459   2.094  0.8554  1.0359  2.5253
 3614TIP3    H232334   2.837   4.604   2.052 -0.0720  0.3236  0.1085
 3615TIP3   OH232335   2.963   3.135   0.768 -0.8349 -0.6681  0.2434
 3615TIP3    H132336   2.891   3.163   0.712 -0.6148 -1.0476 -0.2391
 3615TIP3    H232337   2.999   3.216   0.803 -0.5611 -0.3732 -0.6873
 3616TIP3   OH232338   2.700   5.919   1.029 -0.1344 -0.0487 -0.4443
 3616TIP3    H132339   2.714   5.951   1.118 -0.9246  0.7488 -0.5934
 3616TIP3    H232340   2.727   5.993   0.973 -1.0044 -0.0149 -0.8245
 3617TIP3   OH232341   2.617   2.536  11.584 -0.1805  0.8550  0.3262
 3617TIP3    H132342   2.677   2.594  11.631 -0.0491 -0.1921  1.4942
 3617TIP3    H232343   2.563   2.497  11.653  0.4457 -1.2272 -0.3008
 3618TIP3   OH232344   5.088   3.987   1.434 -0.1882  0.2191  0.1246
 3618TIP3    H132345   5.183   3.984   1.429 -0.3005 -1.1217 -2.3230
 3618TIP3    H232346   5.068   4.081   1.443  1.3236  0.4843  1.1585
 3619TIP3   OH232347   4.960   6.256   3.760 -0.5702  0.1999  0.3363
 3619TIP3    H132348   5.017   6.199   3.708  0.9676 -1.3094  3.4402
 3619TIP3    H232349   4.931   6.202   3.833 -0.9611  2.7456  2.2071
 3620TIP3   OH232350   3.329   3.335   5.745  0.4250 -0.0539  0.2788
 3620TIP3    H132351   3.268   3.313   5.815 -0.8477  0.1773 -0.7127
 3620TIP3    H232352   3.305   3.424   5.719  0.4583 -0.3594 -0.8596
 3621TIP3   OH232353   0.355   5.463  16.064  0.4902 -0.1402  0.1199
 3621TIP3    H132354   0.286   5.513  16.020 -0.5004 -1.3529  0.2186
 3621TIP3    H232355   0.326   5.372  16.057  2.0715 -0.6745  0.2256
 3622TIP3   OH232356   3.096   1.533  16.438 -0.1371 -0.1525 -0.3790
 3622TIP3    H132357   3.100   1.614  16.490 -1.7958 -0.5960  0.5198
 3622TIP3    H232358   3.091   1.564  16.348 -0.7001  0.7626 -0.0559
 3623TIP3   OH232359   0.013   4.209  14.802 -0.6464  0.9939 -0.1520
 3623TIP3    H132360   0.076   4.280  14.791  1.0700 -0.2446  1.1955
 3623TIP3    H232361  -0.052   4.244  14.863  0.5064  1.2547  0.9692
 3624TIP3   OH232362   3.492   2.531  13.947 -0.3309  0.0354 -0.6275
 3624TIP3    H132363   3.411   2.560  13.906 -0.1948  0.6515 -0.4602
 3624TIP3    H232364   3.465   2.461  14.007 -1.4250  2.9382  2.6246
 3625TIP3   OH232365   2.509   2.812  11.371  0.0142  0.1580  0.2935
 3625TIP3    H132366   2.492   2.719  11.382  0.2660  0.1869  0.9630
 3625TIP3    H232367   2.602   2.822  11.391  0.7964  0.0804 -2.7492
 3626TIP3   OH232368   4.204   6.588   1.193  0.2475 -0.1495  1.0736
 3626TIP3    H132369   4.278   6.616   1.247 -0.1150  0.7435  1.1268
 3626TIP3    H232370   4.239   6.517   1.140  1.7464  1.5641 -0.3777
 3627TIP3   OH232371   1.443   4.310   2.704 -0.3968  0.2089 -0.3729
 3627TIP3    H132372   1.469   4.280   2.791 -0.5044 -0.5004 -0.5732
 3627TIP3    H232373   1.469   4.238   2.646 -1.8842 -0.1108 -0.6941
 3628TIP3   OH232374   1.319   0.355  11.501 -0.4534  0.3480  0.4418
 3628TIP3    H132375   1.256   0.290  11.470  0.3598 -0.7749  1.1199
 3628TIP3    H232376   1.356   0.392  11.420  0.0384 -0.9801  0.0322
 3629TIP3   OH232377   4.174   0.500  13.236  0.0087 -0.1165  0.3021
 3629TIP3    H132378   4.240   0.500  13.305 -0.0656 -0.4619  0.3723
 3629TIP3    H232379   4.223   0.497  13.155  0.0635 -1.6410  0.3700
 3630TIP3   OH232380   0.066   6.216   3.047  0.5492 -0.1929  0.2341
 3630TIP3    H132381   0.040   6.304   3.076 -0.0901 -0.1404 -0.4638
 3630TIP3    H232382   0.049   6.161   3.124 -0.6556  0.0267  0.1578
 3631TIP3   OH232383   0.638   4.133  16.548 -0.1199 -0.2506  0.0139
 3631TIP3    H132384   0.694   4.073  16.598  1.0152  1.2810  0.6799
 3631TIP3    H232385   0.686   4.216  16.549 -1.9764  0.8788 -0.2308
 3632TIP3   OH232386   5.466   2.823  10.898  0.0367  0.2293 -0.6320
 3632TIP3    H132387   5.460   2.815  10.802 -1.6119  1.5013 -0.6736
 3632TIP3    H232388   5.550   2.783  10.920  0.5918  0.1882 -2.6436
 3633TIP3   OH232389   1.564   3.470  16.926 -0.2063  0.0969  0.0471
 3633TIP3    H132390   1.494   3.461  16.991 -0.0110 -1.7940  0.0401
 3633TIP3    H232391   1.552   3.396  16.867  0.8860  0.6134 -0.8481
 3634TIP3   OH232392   2.992   5.386  12.598 -0.1191 -0.4356  0.5309
 3634TIP3    H132393   2.933   5.311  12.590 -0.6376  0.1026 -1.1039
 3634TIP3    H232394   2.942   5.452  12.645 -0.4385 -0.3761  0.1158
 3635TIP3   OH232395   6.284   0.744  11.458  0.0541  0.2420 -0.1572
 3635TIP3    H132396   6.197   0.707  11.470 -0.0628  0.4156 -0.4471
 3635TIP3    H232397   6.337   0.672  11.422  0.3047 -0.1644  0.9936
 3636TIP3   OH232398   2.848   6.169   5.005  0.3534  0.0116 -0.3061
 3636TIP3    H132399   2.754   6.182   4.999  0.4687  1.2251  0.2106
 3636TIP3    H232400   2.863   6.083   4.966 -1.2464 -1.3865  1.9267
 3637TIP3   OH232401   2.911   1.814   0.999  0.5267  0.3077  0.3965
 3637TIP3    H132402   2.952   1.836   0.915 -1.4574  2.8569 -0.0546
 3637TIP3    H232403   2.836   1.760   0.976  0.8732 -0.3373  0.7383
 3638TIP3   OH232404   1.342   3.038  14.432  0.5587  0.5563 -0.5714
 3638TIP3    H132405   1.269   2.977  14.418  0.2493  0.6225  0.5989
 3638TIP3    H232406   1.388   3.041  14.348 -0.5895  0.2574 -1.2326
 3639TIP3   OH232407   5.417   3.315  13.430 -0.2770  0.0196  0.5482
 3639TIP3    H132408   5.458   3.258  13.365 -0.6865 -1.0687  1.2099
 3639TIP3    H232409   5.452   3.402  13.411  0.4326 -0.4599 -0.4438
 3640TIP3   OH232410   4.025   2.366  16.939  0.0808  0.3568  0.4120
 3640TIP3    H132411   3.963   2.374  17.012 -1.5163 -1.1930 -0.7019
 3640TIP3    H232412   3.978   2.315  16.873  1.1928  2.3081 -2.0407
 3641TIP3   OH232413   4.652   6.757  15.947  0.0509  0.4129 -0.0544
 3641TIP3    H132414   4.647   6.721  16.036 -0.7631  0.9456  0.1188
 3641TIP3    H232415   4.702   6.838  15.958 -1.4371  1.3376  0.2151
 3642TIP3   OH232416   4.126   1.698  12.955  0.2162  0.4316 -0.2011
 3642TIP3    H132417   4.102   1.791  12.962 -1.4964  0.0772 -0.8809
 3642TIP3    H232418   4.050   1.657  12.915  1.4658 -1.0659 -1.1427
 3643TIP3   OH232419   4.982   1.355  13.666  0.3548 -0.1680  0.0653
 3643TIP3    H132420   5.022   1.309  13.592 -2.0874 -0.9725 -0.8845
 3643TIP3    H232421   4.890   1.363  13.641  0.0866  2.6285  1.5455
 3644TIP3   OH232422   3.988   0.251   5.407 -0.4580 -0.1500 -0.5829
 3644TIP3    H132423   3.966   0.160   5.426 -1.3976  0.2390  0.2568
 3644TIP3    H232424   3.920   0.280   5.346  0.3947 -0.2716 -1.6312
 3645TIP3   OH232425   2.845   4.736   0.673  0.5515 -1.0312 -0.4367
 3645TIP3    H132426   2.754   4.743   0.642  0.3497 -0.6270  0.2283
 3645TIP3    H232427   2.838   4.689   0.756  0.8114  0.0126  0.1994
 3646TIP3   OH232428   3.313   6.196   2.266  0.2118  0.5943 -0.6526
 3646TIP3    H132429   3.274   6.279   2.295  1.2905  0.5420  1.1384
 3646TIP3    H232430   3.241   6.134   2.267 -0.7659  1.6058 -2.7001
 3647TIP3   OH232431   3.267   5.805   1.446 -0.0572 -0.6149  0.0660
 3647TIP3    H132432   3.243   5.716   1.420 -0.7702 -0.4789  0.2425
 3647TIP3    H232433   3.294   5.797   1.537  0.0066 -0.6715  0.0424
 3648TIP3   OH232434   1.046   6.526   5.076  0.5054  0.7044 -0.1339
 3648TIP3    H132435   0.998   6.556   4.999 -1.4522  1.6952  1.3655
 3648TIP3    H232436   0.983   6.472   5.124  0.4577  2.7658  2.3646
 3649TIP3   OH232437   5.169   2.772  11.140  0.3158 -0.4958  0.7065
 3649TIP3    H132438   5.075   2.776  11.155 -0.1366 -2.6793 -1.0190
 3649TIP3    H232439   5.202   2.709  11.204  0.2827 -1.0490  0.1933
 3650TIP3   OH232440   6.633   4.560  15.388 -0.5025  0.0648 -0.2703
 3650TIP3    H132441   6.541   4.558  15.362 -0.4980  0.2346 -0.3015
 3650TIP3    H232442   6.665   4.473  15.369 -0.2168  0.4855 -1.8370
 3651TIP3   OH232443   6.200   4.303  16.037 -0.5970  0.4745 -0.1952
 3651TIP3    H132444   6.162   4.322  16.123 -1.6609  1.3151 -0.8343
 3651TIP3    H232445   6.185   4.209  16.024  1.5181 -0.1795  1.4405
 3652TIP3   OH232446   4.931   3.078   1.811 -0.2287  0.3612  0.3197
 3652TIP3    H132447   4.882   3.007   1.769  2.3286 -0.9992 -0.5839
 3652TIP3    H232448   4.900   3.157   1.767  0.4611 -0.7591 -2.3891
 3653TIP3   OH232449   6.018   0.646   3.830  0.1626  0.0363 -0.4026
 3653TIP3    H132450   6.055   0.613   3.748 -1.0942 -0.6623 -0.7206
 3653TIP3    H232451   5.925   0.623   3.825  0.1301 -0.3789  1.4013
 3654TIP3   OH232452   0.600   3.935  11.540  0.3854 -0.6374 -0.1592
 3654TIP3    H132453   0.663   3.863  11.551  1.4798  0.2232 -0.6082
 3654TIP3    H232454   0.649   4.013  11.566 -0.6006  0.0256 -0.2525
 3655TIP3   OH232455   4.115   1.867   1.651  0.2566 -0.9663 -0.1618
 3655TIP3    H132456   4.062   1.823   1.584  0.3367  2.5354 -2.7702
 3655TIP3    H232457   4.050   1.901   1.713 -0.1812 -0.6311 -0.7935
 3656TIP3   OH232458   2.793   4.734   0.155  0.3034  0.1939  0.5617
 3656TIP3    H132459   2.740   4.685   0.091  1.7022 -0.1598 -0.3790
 3656TIP3    H232460   2.747   4.817   0.165 -2.0206 -1.1593  2.0286
 3657TIP3   OH232461   0.182   1.448  15.054  0.5822  0.4162 -0.7961
 3657TIP3    H132462   0.223   1.530  15.083  0.6665 -0.1017  0.5880
 3657TIP3    H232463   0.122   1.475  14.985  0.0501  1.7537  0.1453
 3658TIP3   OH232464   2.041   4.196  11.023  0.0144  0.4617  1.0225
 3658TIP3    H132465   2.070   4.253  10.952  1.2629 -0.7013  0.5350
 3658TIP3    H232466   1.987   4.130  10.980  0.6958 -0.1909  1.1334
 3659TIP3   OH232467   5.157   2.536  10.449  0.2447  0.5181  0.0401
 3659TIP3    H132468   5.101   2.542  10.526 -1.6010 -1.1178 -1.0822
 3659TIP3    H232469   5.144   2.447  10.416  0.7018  1.2444 -2.3184
 3660TIP3   OH232470   6.732   5.401   1.938 -1.0451  0.4998  0.7434
 3660TIP3    H132471   6.672   5.468   1.904 -0.2183  0.5412 -0.7127
 3660TIP3    H232472   6.819   5.442   1.932 -0.9243  1.0193  4.2313
 3661TIP3   OH232473   2.900   4.732  16.162  0.0100 -0.4866 -0.3493
 3661TIP3    H132474   2.850   4.756  16.084 -0.5468 -1.2654 -0.2484
 3661TIP3    H232475   2.990   4.722  16.131 -0.2811 -1.2241 -0.9867
 3662TIP3   OH232476   5.093   5.159   2.750  0.2788  0.0111  0.2141
 3662TIP3    H132477   5.012   5.199   2.783  0.0846 -0.6482  0.5561
 3662TIP3    H232478   5.069   5.068   2.734  0.7144  0.0237 -0.5607
 3663TIP3   OH232479   2.545   3.211   4.030 -0.1838  0.1640 -0.1105
 3663TIP3    H132480   2.466   3.172   3.995  0.6336 -0.5779 -1.1898
 3663TIP3    H232481   2.523   3.303   4.043 -2.0427 -0.5214  2.1923
 3664TIP3   OH232482   0.147   5.749  14.028 -0.1891 -0.5940 -0.1040
 3664TIP3    H132483   0.154   5.832  13.981  1.1516  0.7807  2.3332
 3664TIP3    H232484   0.069   5.707  13.991  0.0739  0.9067 -2.6080
 3665TIP3   OH232485   5.990   6.567   4.292  0.1681 -0.1752  0.0126
 3665TIP3    H132486   6.035   6.483   4.283  0.7834  0.1258  0.2202
 3665TIP3    H232487   5.944   6.578   4.208  1.8107  0.2733 -0.8631
 3666TIP3   OH232488   2.169   6.385   2.083  0.4493 -0.4093  0.3639
 3666TIP3    H132489   2.187   6.422   2.170  0.1250  0.5545  0.0356
 3666TIP3    H232490   2.230   6.312   2.075  1.4160  0.3194  0.8822
 3667TIP3   OH232491   5.762   1.095   1.195  0.2184 -1.4106  0.0177
 3667TIP3    H132492   5.781   1.099   1.289  0.1496 -0.3216 -0.0079
 3667TIP3    H232493   5.814   1.021   1.164 -0.2752 -2.2024  1.0243
 3668TIP3   OH232494   4.801   5.289  16.919 -0.1084  0.4564  0.6314
 3668TIP3    H132495   4.792   5.384  16.911  0.4448  0.3570 -2.7487
 3668TIP3    H232496   4.891   5.276  16.948  0.7862  1.0145 -1.6769
 3669TIP3   OH232497   0.374   5.494   0.928 -0.4109 -0.8323  0.8753
 3669TIP3    H132498   0.430   5.569   0.909  1.9824 -2.6600  0.1626
 3669TIP3    H232499   0.371   5.490   1.024  1.8267 -1.3895  0.9892
 3670TIP3   OH232500   2.763   5.745  16.350  0.7173 -0.7306 -0.5264
 3670TIP3    H132501   2.795   5.831  16.379  0.6914 -0.6725 -0.6681
 3670TIP3    H232502   2.758   5.694  16.430 -1.3670  0.0635 -0.1023
 3671TIP3   OH232503   6.097   5.275   5.684 -0.0798 -0.0488  0.5317
 3671TIP3    H132504   6.009   5.275   5.645  1.2367  0.3980 -2.7630
 3671TIP3    H232505   6.117   5.367   5.698  0.5331  0.0140 -0.5855
 3672TIP3   OH232506   2.443   4.308   2.705 -0.1017 -0.4648  0.1110
 3672TIP3    H132507   2.467   4.282   2.616 -0.6780 -1.1579  0.1501
 3672TIP3    H232508   2.517   4.279   2.759  0.9997  1.4150 -0.3351
 3673TIP3   OH232509   3.249   6.544  13.065 -0.4774 -0.0680  0.5420
 3673TIP3    H132510   3.159   6.515  13.080 -0.8993  0.3895 -0.8995
 3673TIP3    H232511   3.247   6.639  13.079 -0.7260  0.2636 -1.4014
 3674TIP3   OH232512   5.556   2.624  15.121  0.5405 -0.2310 -0.8698
 3674TIP3    H132513   5.646   2.640  15.149  0.3690  0.0694 -0.4858
 3674TIP3    H232514   5.521   2.710  15.100 -0.2271 -0.1119  0.7170
 3675TIP3   OH232515   5.588   5.409   2.375  0.1874 -0.8950  0.0942
 3675TIP3    H132516   5.675   5.406   2.415 -0.1858 -1.1223  0.9162
 3675TIP3    H232517   5.529   5.431   2.447 -0.2285  1.2789 -0.8260
 3676TIP3   OH232518   5.038   3.097  10.973  0.1038 -0.0520 -0.2995
 3676TIP3    H132519   5.133   3.092  10.972  0.2668  2.1126  0.3823
 3676TIP3    H232520   5.012   3.064  11.059  0.1523 -1.3230 -0.7517
 3677TIP3   OH232521   5.500   1.244   1.507 -0.3301 -0.8063  0.0613
 3677TIP3    H132522   5.412   1.267   1.477 -0.2860  0.4072  0.7753
 3677TIP3    H232523   5.491   1.233   1.602  0.6905  1.8353  0.5725
 3678TIP3   OH232524   5.393   1.893   1.513 -0.4952 -0.5781 -0.2694
 3678TIP3    H132525   5.432   1.915   1.429 -0.3449 -0.2138 -0.1048
 3678TIP3    H232526   5.383   1.798   1.511 -1.2619 -0.4957 -1.0366
 3679TIP3   OH232527   4.970   0.737   1.336 -0.3214  0.0116  0.3587
 3679TIP3    H132528   4.886   0.707   1.371 -0.5330 -0.4894 -0.5292
 3679TIP3    H232529   5.036   0.691   1.388 -0.6018  0.1735  0.8593
 3680TIP3   OH232530   5.205   6.666   4.384 -0.6510 -0.1848 -0.0428
 3680TIP3    H132531   5.264   6.604   4.341 -1.7513 -1.3704  0.0867
 3680TIP3    H232532   5.117   6.630   4.368 -1.1184 -0.8033  3.3393
 3681TIP3   OH232533   5.799   5.198  15.562 -0.3880  0.3675 -0.1816
 3681TIP3    H132534   5.776   5.129  15.624  0.7037 -1.2751 -1.5473
 3681TIP3    H232535   5.774   5.163  15.476  0.5792  1.4917 -0.9456
 3682TIP3   OH232536   1.078   4.040   5.182 -0.5033  0.0424  0.2959
 3682TIP3    H132537   1.064   3.972   5.115  1.9086 -1.6866  1.4003
 3682TIP3    H232538   1.098   4.119   5.131 -1.5474 -0.4954 -1.0217
 3683TIP3   OH232539   6.166   0.758  13.725 -0.1137  0.8599 -0.2900
 3683TIP3    H132540   6.157   0.676  13.774 -2.3031  0.6454 -0.9204
 3683TIP3    H232541   6.145   0.734  13.635 -1.0882  2.1426 -0.4354
 3684TIP3   OH232542   3.286   3.597   5.672  0.1668  0.4572 -0.2956
 3684TIP3    H132543   3.325   3.674   5.713 -0.5979  0.7879 -0.1701
 3684TIP3    H232544   3.221   3.632   5.611  0.7566 -0.0583 -1.2413
 3685TIP3   OH232545   3.693   1.844   1.803 -0.4295  0.0262 -0.2443
 3685TIP3    H132546   3.725   1.934   1.805 -1.2404  0.3453 -1.0212
 3685TIP3    H232547   3.773   1.791   1.799  0.0528  0.7089  0.0611
 3686TIP3   OH232548   3.640   5.021  15.912 -0.2845 -0.2580  0.3624
 3686TIP3    H132549   3.606   5.084  15.976  1.8698  0.6497  0.7404
 3686TIP3    H232550   3.664   4.945  15.965 -0.8531 -0.5175  0.2453
 3687TIP3   OH232551   3.041   2.636   0.205  0.2065  0.6689  0.8072
 3687TIP3    H132552   3.017   2.547   0.231  1.7898  0.6148  2.2942
 3687TIP3    H232553   3.052   2.683   0.287 -0.1814  2.1364  0.0521
 3688TIP3   OH232554   5.894   5.263   1.285 -0.0693 -0.3302  0.6899
 3688TIP3    H132555   5.947   5.341   1.300 -0.8771 -0.1351  2.9369
 3688TIP3    H232556   5.948   5.190   1.317  0.2745 -0.6127 -0.4655
 3689TIP3   OH232557   1.870   0.432  11.372 -0.2453 -0.2019  0.5241
 3689TIP3    H132558   1.887   0.382  11.452  0.4997 -1.0018 -0.1203
 3689TIP3    H232559   1.913   0.382  11.303 -1.3763  0.1786 -0.4787
 3690TIP3   OH232560   5.758   3.545   4.781 -0.2361 -0.1100  0.4925
 3690TIP3    H132561   5.767   3.518   4.689  0.5514  2.3531 -0.2366
 3690TIP3    H232562   5.672   3.587   4.785  0.3483  1.1471  0.4501
 3691TIP3   OH232563   5.091   3.390  11.545  0.2718  0.2850  0.2989
 3691TIP3    H132564   5.112   3.299  11.524 -1.0004  0.0049  0.1456
 3691TIP3    H232565   5.061   3.428  11.462 -0.6212  0.4100  0.6665
 3692TIP3   OH232566   2.072   3.562  15.102  0.2215 -0.1181 -0.1445
 3692TIP3    H132567   1.982   3.542  15.077  0.0901  1.4947 -1.0749
 3692TIP3    H232568   2.124   3.492  15.062 -0.5535 -0.7690 -0.0328
 3693TIP3   OH232569   0.363   3.268   1.925 -0.2416  0.3690 -0.3813
 3693TIP3    H132570   0.287   3.233   1.971  0.3462 -0.2472  0.1403
 3693TIP3    H232571   0.412   3.191   1.897  0.0658  0.7572 -0.9378
 3694TIP3   OH232572   5.941   4.250  14.225 -0.2520  0.2360 -0.6836
 3694TIP3    H132573   5.907   4.278  14.140  2.0069 -0.0750 -1.7635
 3694TIP3    H232574   6.033   4.230  14.209 -0.1773 -1.5558  1.4739
 3695TIP3   OH232575   6.421   4.872   5.346 -0.1679  0.0691  0.6146
 3695TIP3    H132576   6.453   4.949   5.298 -1.3852 -0.0374 -0.4097
 3695TIP3    H232577   6.453   4.886   5.436  0.2278  1.4201  0.2992
 3696TIP3   OH232578   4.401   5.329   4.919  0.3868 -0.1388  0.7562
 3696TIP3    H132579   4.407   5.424   4.909  1.5362 -0.1247  1.4378
 3696TIP3    H232580   4.479   5.305   4.969  0.0945 -1.4414  0.6214
 3697TIP3   OH232581   5.025   3.536  16.787  0.3312  0.9304 -0.0651
 3697TIP3    H132582   4.944   3.563  16.745  0.3212 -0.6075 -1.1325
 3697TIP3    H232583   5.078   3.615  16.792 -0.0566  1.3779 -2.1470
 3698TIP3   OH232584   3.623   4.105   2.655  0.1094  0.0652 -0.3027
 3698TIP3    H132585   3.622   4.073   2.745 -1.1472  1.0852  0.0767
 3698TIP3    H232586   3.638   4.199   2.663 -0.4155  0.2301 -1.1313
 3699TIP3   OH232587   5.607   6.614   1.039  0.2436 -0.1454  0.1559
 3699TIP3    H132588   5.686   6.571   1.073  0.2127  0.1139  0.5580
 3699TIP3    H232589   5.550   6.623   1.115 -0.1637 -0.3006 -0.1281
 3700TIP3   OH232590   0.446   2.488  15.205 -0.6032 -0.4870  0.3623
 3700TIP3    H132591   0.419   2.411  15.255  1.0628 -1.6224 -0.3919
 3700TIP3    H232592   0.367   2.518  15.161 -0.9009 -3.0687 -1.0106
 3701TIP3   OH232593   3.102   6.464  11.812  0.0670 -0.5286  0.0947
 3701TIP3    H132594   3.162   6.390  11.796 -0.8826 -1.2728 -0.1250
 3701TIP3    H232595   3.016   6.423  11.822 -0.5443  0.5885 -0.4206
 3702TIP3   OH232596   2.659   0.855   1.716  0.3274 -0.2960  0.5269
 3702TIP3    H132597   2.654   0.759   1.711 -0.2940 -0.2247 -0.5237
 3702TIP3    H232598   2.694   0.881   1.632  0.0266  0.4303  0.6211
 3703TIP3   OH232599   0.937   2.212   1.059 -0.1381 -0.0152  0.2420
 3703TIP3    H132600   0.862   2.267   1.082 -0.1937  0.0167 -0.0220
 3703TIP3    H232601   0.911   2.168   0.978 -0.2654 -0.7590  0.6789
 3704TIP3   OH232602   4.188   3.231   5.560  0.0387  0.6115  0.5050
 3704TIP3    H132603   4.097   3.212   5.581  0.1206  0.7589  0.9985
 3704TIP3    H232604   4.225   3.146   5.533 -0.1557  0.4897  0.6253
 3705TIP3   OH232605   4.510   5.169  11.528  0.6476  0.7650  0.3652
 3705TIP3    H132606   4.604   5.157  11.517  0.4285 -1.5766  0.4611
 3705TIP3    H232607   4.493   5.139  11.618 -0.0789  2.0762  0.6855
 3706TIP3   OH232608   5.290   1.362  13.726 -0.1564 -0.2461 -0.0630
 3706TIP3    H132609   5.352   1.318  13.785 -0.6044 -2.1306 -0.9158
 3706TIP3    H232610   5.314   1.330  13.639 -0.5037  1.2647 -0.7404
 3707TIP3   OH232611   3.140   6.766  15.729 -0.6764  0.1127 -0.2019
 3707TIP3    H132612   3.129   6.812  15.813 -0.2452  0.2026 -0.1940
 3707TIP3    H232613   3.219   6.714  15.741 -0.5780  0.1764 -0.5787
 3708TIP3   OH232614   2.010   3.300  14.768  0.0593 -0.2957 -0.0167
 3708TIP3    H132615   2.057   3.217  14.759 -1.6928 -1.4763  1.0930
 3708TIP3    H232616   2.040   3.335  14.852 -0.6468 -0.8248  0.4726
 3709TIP3   OH232617   1.482   6.714  15.803  0.0950 -0.4092 -0.1402
 3709TIP3    H132618   1.528   6.637  15.770 -1.1815  0.0201 -3.1808
 3709TIP3    H232619   1.426   6.742  15.731 -1.5562  1.7639  1.8327
 3710TIP3   OH232620   4.187   1.413  14.739 -0.2998  0.5338 -0.6797
 3710TIP3    H132621   4.147   1.480  14.794 -0.6618 -0.8952  0.8864
 3710TIP3    H232622   4.235   1.357  14.800  1.1298  0.1291 -2.1048
 3711TIP3   OH232623   2.522   5.506   2.766 -0.3998 -0.2121  0.5999
 3711TIP3    H132624   2.477   5.546   2.691 -1.5029 -0.4877  1.0894
 3711TIP3    H232625   2.614   5.505   2.741 -0.8337 -1.0325 -1.0944
 3712TIP3   OH232626   1.717   4.265  11.089  0.9207 -0.0244 -0.3691
 3712TIP3    H132627   1.782   4.195  11.088 -0.4660 -1.3442 -0.9147
 3712TIP3    H232628   1.634   4.222  11.067 -0.2277  1.5308  0.6895
 3713TIP3   OH232629   2.393   6.517  10.489 -0.0766 -0.0690  0.1559
 3713TIP3    H132630   2.465   6.455  10.480 -0.3077 -0.1249 -1.6085
 3713TIP3    H232631   2.424   6.580  10.554  1.6491  0.0177 -0.6938
 3714TIP3   OH232632   6.199   0.683  16.161 -0.1811 -0.3949 -0.1203
 3714TIP3    H132633   6.150   0.765  16.161 -0.9298 -0.8108  0.9647
 3714TIP3    H232634   6.247   0.683  16.078 -1.2007  0.5179 -0.7320
 3715TIP3   OH232635   5.192   5.066  13.837 -0.1293 -0.3866  0.1061
 3715TIP3    H132636   5.271   5.012  13.844 -0.3523 -0.8542 -0.8018
 3715TIP3    H232637   5.198   5.106  13.750 -0.7195 -0.1403  0.1732
 3716TIP3   OH232638   6.202   1.744   2.849 -0.2890  0.1419 -0.4114
 3716TIP3    H132639   6.223   1.806   2.918 -1.8560  0.2048  0.0577
 3716TIP3    H232640   6.268   1.675   2.858 -0.6255 -0.0163  1.3951
 3717TIP3   OH232641   5.123   1.532   3.590 -0.9574 -0.3863 -0.2227
 3717TIP3    H132642   5.200   1.475   3.594 -1.2656 -0.8140 -0.3398
 3717TIP3    H232643   5.143   1.603   3.651  0.5672  0.7817 -1.9587
 3718TIP3   OH232644   0.514   1.866   2.330  0.3363  0.4830  0.2178
 3718TIP3    H132645   0.540   1.945   2.282 -0.2033  0.2591 -0.4566
 3718TIP3    H232646   0.461   1.816   2.267 -1.8955  1.0118  1.5947
 3719TIP3   OH232647   3.328   2.253  11.962 -0.0279  0.0476  0.6115
 3719TIP3    H132648   3.385   2.178  11.979  0.1048  0.5357  2.4689
 3719TIP3    H232649   3.240   2.221  11.981 -0.2816 -0.3543 -1.0951
 3720TIP3   OH232650   0.139   2.647  15.967 -0.4056 -0.0076 -0.4083
 3720TIP3    H132651   0.102   2.673  16.051 -0.2727 -0.0117 -0.3485
 3720TIP3    H232652   0.191   2.722  15.939 -1.4512  0.4967 -1.0818
 3721TIP3   OH232653   5.202   3.744  16.616 -0.1201  0.6773 -0.2965
 3721TIP3    H132654   5.180   3.837  16.627  0.7121  0.7453  0.9718
 3721TIP3    H232655   5.297   3.740  16.628  0.0770 -0.1526 -1.8101
 3722TIP3   OH232656   0.553   6.385  13.508  0.2186 -0.1065  0.2074
 3722TIP3    H132657   0.459   6.399  13.522  0.2287 -1.3459  1.7231
 3722TIP3    H232658   0.558   6.302  13.460  0.4236  1.9673 -3.8724
 3723TIP3   OH232659   0.420   6.715   3.580  0.0304 -0.2243 -0.4614
 3723TIP3    H132660   0.432   6.621   3.569 -0.7290 -0.2485 -1.1904
 3723TIP3    H232661   0.433   6.752   3.493  0.1873  0.3315 -0.2079
 3724TIP3   OH232662   4.009   0.152   4.065 -0.1356  0.7262 -0.2158
 3724TIP3    H132663   3.972   0.067   4.088  1.6956  0.2747  1.2049
 3724TIP3    H232664   3.998   0.205   4.144  1.9182  0.6632  0.1599
 3725TIP3   OH232665   0.946   1.190  14.279  0.0702 -0.1219 -0.4796
 3725TIP3    H132666   1.028   1.141  14.289  0.0490 -0.3752 -1.5100
 3725TIP3    H232667   0.930   1.191  14.185 -0.9895  0.1378 -0.3007
 3726TIP3   OH232668   0.261   5.373  14.206  0.2090  0.1842  0.6635
 3726TIP3    H132669   0.270   5.279  14.221  0.7017  0.2614  0.8481
 3726TIP3    H232670   0.348   5.403  14.181 -0.0240  0.5304  0.2508
 3727TIP3   OH232671   1.616   0.538   4.742  0.3589  0.4929 -0.1403
 3727TIP3    H132672   1.555   0.605   4.772  0.1336 -0.1170  0.7879
 3727TIP3    H232673   1.580   0.508   4.659 -0.1793  0.6809  0.0220
 3728TIP3   OH232674   1.187   5.755  11.534 -0.7295 -0.7815 -0.0456
 3728TIP3    H132675   1.172   5.818  11.463  2.6317  0.0140 -0.2542
 3728TIP3    H232676   1.110   5.761  11.590 -2.0595  0.9177 -1.9448
 3729TIP3   OH232677   4.247   1.621  17.253  0.1726  0.4409  0.0397
 3729TIP3    H132678   4.190   1.596  17.326 -0.0801 -4.4548 -1.4984
 3729TIP3    H232679   4.334   1.626  17.291 -0.4084  1.8435  1.2899
 3730TIP3   OH232680   6.302   0.810   0.717  0.0084  0.1033 -0.2405
 3730TIP3    H132681   6.365   0.742   0.693 -0.1882 -0.6878  1.3826
 3730TIP3    H232682   6.321   0.831   0.808 -1.6282  0.3281  0.0900
 3731TIP3   OH232683   2.026   1.067  10.968 -0.2875  0.1364 -0.5368
 3731TIP3    H132684   2.112   1.028  10.956  1.2046  2.5305  1.5657
 3731TIP3    H232685   2.034   1.156  10.935 -2.6055 -0.0923 -2.0544
 3732TIP3   OH232686   3.172   5.928   3.728  0.2344  0.4109  0.2087
 3732TIP3    H132687   3.266   5.942   3.729  0.2303  0.4236  0.5556
 3732TIP3    H232688   3.138   5.995   3.668  0.7141 -1.3664 -2.2246
 3733TIP3   OH232689   3.727   5.713   0.145  0.4165 -0.0519  0.1068
 3733TIP3    H132690   3.651   5.708   0.087  2.3222  2.7073 -2.9847
 3733TIP3    H232691   3.704   5.781   0.209 -0.3083 -0.4632  0.3004
 3734TIP3   OH232692   6.609   2.692  16.174 -0.2046 -0.8795  0.5085
 3734TIP3    H132693   6.701   2.669  16.162  0.1752  0.7233  0.1120
 3734TIP3    H232694   6.564   2.655  16.099  0.2373 -1.0361  0.3208
 3735TIP3   OH232695   3.452   2.457  16.799 -0.0818  0.1799  0.0094
 3735TIP3    H132696   3.437   2.533  16.743  0.8157  0.6183  0.3548
 3735TIP3    H232697   3.483   2.389  16.739 -0.7259  0.1275 -0.2731
 3736TIP3   OH232698   6.626   6.231   4.947 -0.2312 -0.1274  0.4155
 3736TIP3    H132699   6.537   6.214   4.978 -0.0792  2.5493  2.7859
 3736TIP3    H232700   6.682   6.207   5.021  0.8038  0.2762 -0.2156
 3737TIP3   OH232701   3.925   3.407   3.810 -0.2215 -0.3581  0.2794
 3737TIP3    H132702   3.834   3.401   3.841 -0.3595 -0.6757 -0.1720
 3737TIP3    H232703   3.922   3.373   3.721 -0.4266  3.4097 -1.3316
 3738TIP3   OH232704   5.604   2.945   0.912 -0.4432  0.2915  0.4970
 3738TIP3    H132705   5.583   3.008   0.980  0.3592  1.2540 -0.1283
 3738TIP3    H232706   5.690   2.910   0.936 -0.0562  0.7936 -0.1171
 3739TIP3   OH232707   4.466   5.845   2.051  0.4034  0.1155  0.2559
 3739TIP3    H132708   4.389   5.822   1.999 -0.7221 -1.3567  2.4626
 3739TIP3    H232709   4.443   5.927   2.094  1.2278  1.1794 -1.2014
 3740TIP3   OH232710   3.543   3.356  11.363 -0.1650 -0.3610  0.5826
 3740TIP3    H132711   3.619   3.305  11.334  0.9894  0.3181  2.2859
 3740TIP3    H232712   3.482   3.350  11.290  0.4127 -3.1696  0.2139
 3741TIP3   OH232713   1.481   3.019  11.784 -0.0502  0.3755 -0.8014
 3741TIP3    H132714   1.537   3.082  11.738 -0.8176  0.6458 -1.4033
 3741TIP3    H232715   1.420   3.074  11.834 -0.4372  0.1101 -0.9750
 3742TIP3   OH232716   2.933   5.892  14.433 -0.1137  0.3869 -0.1289
 3742TIP3    H132717   2.861   5.859  14.486 -1.8933  0.5998 -2.2558
 3742TIP3    H232718   2.916   5.986  14.425 -0.5209  0.1896 -1.9165
 3743TIP3   OH232719   5.004   4.034  14.926 -0.1385  0.3016 -0.4772
 3743TIP3    H132720   5.054   3.961  14.964  0.5906  1.0547  0.0647
 3743TIP3    H232721   4.962   3.997  14.849 -0.4554 -0.9009  0.2515
 3744TIP3   OH232722   5.023   1.809   2.592 -0.4017  0.7608 -0.1334
 3744TIP3    H132723   5.061   1.721   2.585 -0.8041  0.3442  2.1977
 3744TIP3    H232724   4.963   1.815   2.517 -0.5058 -1.0234 -0.2321
 3745TIP3   OH232725   6.009   6.680  12.142 -0.0074 -0.0466  0.7578
 3745TIP3    H132726   6.035   6.618  12.211  1.5869  0.9357  1.0824
 3745TIP3    H232727   6.091   6.707  12.102 -0.7797  0.8607 -0.2691
 3746TIP3   OH232728   6.493   2.181   3.202  0.6647  0.1677 -0.5076
 3746TIP3    H132729   6.467   2.101   3.249  3.7839 -0.2857  0.6947
 3746TIP3    H232730   6.442   2.251   3.243  0.1783 -0.8017  0.6023
 3747TIP3   OH232731   6.452   3.768   5.037  0.6542  0.4412 -0.1425
 3747TIP3    H132732   6.419   3.789   5.124  1.1906  1.5968 -0.1927
 3747TIP3    H232733   6.413   3.834   4.980  1.0326  0.2652 -0.6187
 3748TIP3   OH232734   3.270   3.217  17.267 -0.1895 -0.4928  0.1288
 3748TIP3    H132735   3.199   3.272  17.298  0.1806  1.1047 -1.7009
 3748TIP3    H232736   3.226   3.139  17.232 -1.4582  1.5907 -3.4626
 3749TIP3   OH232737   1.647   4.708   3.160 -0.3253 -0.5066  0.3131
 3749TIP3    H132738   1.707   4.699   3.085 -1.6996  0.1007 -0.9220
 3749TIP3    H232739   1.690   4.771   3.217 -0.3952  1.0575 -1.2579
 3750TIP3   OH232740   3.941   2.464   3.236 -0.7858  0.4415  0.5745
 3750TIP3    H132741   3.974   2.429   3.153 -1.5584  1.5798 -0.2614
 3750TIP3    H232742   3.916   2.387   3.287  3.0583 -0.5316  1.3138
 3751TIP3   OH232743   1.359   4.354   0.214 -0.2232  0.4730 -0.3656
 3751TIP3    H132744   1.440   4.303   0.208 -0.1598  0.6126 -0.7815
 3751TIP3    H232745   1.339   4.377   0.123  0.0122  1.6023 -0.1468
 3752TIP3   OH232746   3.736   5.610  13.530 -0.2565 -0.2623  0.2051
 3752TIP3    H132747   3.672   5.674  13.497  0.0372  0.0917  0.3198
 3752TIP3    H232748   3.713   5.600  13.622 -0.0036  0.0403  0.3027
 3753TIP3   OH232749   2.282   0.157  12.325  0.4782  0.0179  0.6250
 3753TIP3    H132750   2.239   0.141  12.241  1.1422 -0.3695  0.3529
 3753TIP3    H232751   2.256   0.246  12.349 -0.6260 -0.2668  0.5594
 3754TIP3   OH232752   5.335   5.879  17.195  0.3507 -0.3356  0.0663
 3754TIP3    H132753   5.287   5.870  17.112 -0.8515  1.4667  0.5220
 3754TIP3    H232754   5.342   5.973  17.209  3.3665 -0.5141  0.4645
 3755TIP3   OH232755   1.581   0.602   3.373  0.3158  0.0615  0.2429
 3755TIP3    H132756   1.581   0.549   3.453  2.7281  0.9302  0.9177
 3755TIP3    H232757   1.492   0.636   3.366 -0.0920 -0.4862  2.2332
 3756TIP3   OH232758   1.053   5.455   2.647  0.1280  0.2456  0.5037
 3756TIP3    H132759   0.999   5.522   2.688  0.2834 -0.1485  1.3673
 3756TIP3    H232760   1.109   5.422   2.717  0.3711 -0.4732 -0.0101
 3757TIP3   OH232761   5.193   5.241   6.129 -0.6385  0.4558  0.2003
 3757TIP3    H132762   5.232   5.294   6.199  0.8504  0.6103 -0.6904
 3757TIP3    H232763   5.120   5.196   6.171 -0.7177  1.6906  1.4717
 3758TIP3   OH232764   6.480   3.460  14.414  0.1017 -0.0809  0.0282
 3758TIP3    H132765   6.558   3.410  14.437  2.3115  1.8980 -2.3599
 3758TIP3    H232766   6.501   3.550  14.441 -1.2046  0.5448 -0.9396
 3759TIP3   OH232767   3.672   2.563   6.643 -0.1766 -0.1483 -0.1710
 3759TIP3    H132768   3.730   2.596   6.575 -0.9306  1.4141 -0.1049
 3759TIP3    H232769   3.685   2.468   6.642  0.5682 -0.0629 -1.7874
 3760TIP3   OH232770   0.039   1.499  14.823 -0.0255 -0.3637  0.1473
 3760TIP3    H132771   0.025   1.408  14.794 -0.6476 -0.4803  0.7923
 3760TIP3    H232772  -0.048   1.540  14.816  0.0614 -0.0769  0.7434
 3761TIP3   OH232773   6.759   2.714   2.086  0.4483  0.6959  0.5229
 3761TIP3    H132774   6.679   2.762   2.066  0.3438  0.1067 -0.5375
 3761TIP3    H232775   6.767   2.720   2.181 -0.5118  1.3008  0.5808
 3762TIP3   OH232776   2.055   5.487  16.181 -0.0190 -0.2073  0.1292
 3762TIP3    H132777   1.964   5.509  16.162  0.2145  1.5998  0.8830
 3762TIP3    H232778   2.104   5.515  16.103  0.2317  1.8186  0.9441
 3763TIP3   OH232779   0.571   0.829  12.098  0.6219 -0.4164  0.0374
 3763TIP3    H132780   0.561   0.776  12.177  2.1853 -1.2009 -0.2384
 3763TIP3    H232781   0.633   0.779  12.045  0.3271  0.5721 -1.2680
 3764TIP3   OH232782   4.313   3.022   0.349 -0.0650 -0.1513 -0.0608
 3764TIP3    H132783   4.336   3.092   0.410  0.0119  0.2725 -0.5578
 3764TIP3    H232784   4.279   3.069   0.272  0.0263 -0.6593 -0.4146
 3765TIP3   OH232785   6.708   5.814   0.610  0.2719 -0.3242  0.2776
 3765TIP3    H132786   6.749   5.887   0.562 -0.7666  0.1735  0.1327
 3765TIP3    H232787   6.643   5.856   0.666  1.0112 -0.9625  1.6607
 3766TIP3   OH232788   2.716   0.444  13.735 -0.3667  0.1746  0.2170
 3766TIP3    H132789   2.653   0.516  13.746 -1.3908 -0.1026 -2.9385
 3766TIP3    H232790   2.671   0.382  13.678  2.2580 -0.7238 -1.0144
 3767TIP3   OH232791   4.915   0.064   1.045  0.1678 -0.5750 -0.5043
 3767TIP3    H132792   4.862   0.125   0.994 -0.1511 -0.9050 -0.5744
 3767TIP3    H232793   4.927   0.106   1.130 -0.0486 -0.4170 -0.5537
 3768TIP3   OH232794   4.379   6.418   6.147 -0.4976 -0.0693  0.1474
 3768TIP3    H132795   4.457   6.395   6.198 -1.0507  1.4196  1.7458
 3768TIP3    H232796   4.396   6.508   6.117 -1.7525  0.4452  0.8976
 3769TIP3   OH232797   5.770   5.393   1.055 -0.1363 -0.0534  0.1391
 3769TIP3    H132798   5.692   5.348   1.024  0.8274 -0.5322 -1.7949
 3769TIP3    H232799   5.794   5.347   1.136 -0.7306 -1.2164 -0.3220
 3770TIP3   OH232800   5.482   5.228  15.904  0.4493 -0.6097 -0.3046
 3770TIP3    H132801   5.413   5.283  15.865 -1.5024 -2.2345  0.6691
 3770TIP3    H232802   5.497   5.267  15.990  3.2631  1.7191 -1.6564
 3771TIP3   OH232803   2.486   5.267   1.498  0.0826  0.3763 -0.1674
 3771TIP3    H132804   2.479   5.342   1.557 -1.6096 -1.0774  1.6159
 3771TIP3    H232805   2.414   5.279   1.436  0.0231  0.4011 -0.0935
 3772TIP3   OH232806   4.341   1.670  13.154 -0.1737 -0.1277  0.6873
 3772TIP3    H132807   4.350   1.613  13.230  0.8246 -0.9341 -0.0248
 3772TIP3    H232808   4.349   1.759  13.190 -0.7602 -0.4530  1.6608
 3773TIP3   OH232809   1.433   5.556  16.572  0.4547 -0.5848 -0.3699
 3773TIP3    H132810   1.342   5.572  16.547  0.9354  0.5719 -1.5471
 3773TIP3    H232811   1.428   5.495  16.645 -1.3808  1.1627  1.0839
 3774TIP3   OH232812   0.158   3.789  11.246 -0.7669  0.1352 -0.2795
 3774TIP3    H132813   0.157   3.713  11.188 -1.1807  0.9998 -1.4357
 3774TIP3    H232814   0.223   3.848  11.208 -0.7115  0.5336  0.4045
 3775TIP3   OH232815   2.832   4.994   2.629  0.7928  0.4465 -0.2041
 3775TIP3    H132816   2.875   5.071   2.666  0.0578  0.7932 -0.0318
 3775TIP3    H232817   2.747   5.028   2.599  0.2937 -0.3855  0.2505
 3776TIP3   OH232818   0.663   1.541   0.387  0.4950  0.2548  0.1959
 3776TIP3    H132819   0.672   1.624   0.339  0.1946  0.3140  0.2398
 3776TIP3    H232820   0.751   1.521   0.416  0.2946  1.5588  1.8633
 3777TIP3   OH232821   1.462   4.051   6.324 -0.5980  0.7735 -0.3520
 3777TIP3    H132822   1.459   4.016   6.413 -0.1532  0.0984 -0.5944
 3777TIP3    H232823   1.452   4.146   6.336  0.6024  0.8259  0.5186
 3778TIP3   OH232824   1.941   5.327   1.176 -0.1720 -0.1939  0.5496
 3778TIP3    H132825   1.977   5.263   1.237  1.2518 -1.1688 -1.2105
 3778TIP3    H232826   1.861   5.358   1.218  1.2618  0.0154  3.4025
 3779TIP3   OH232827   6.709   1.392   6.414  0.0856  0.3181  0.5343
 3779TIP3    H132828   6.720   1.477   6.457 -2.4213  0.4909  0.9639
 3779TIP3    H232829   6.669   1.412   6.330 -1.0824 -0.4526  0.8846
 3780TIP3   OH232830   3.970   0.016   5.185 -0.2663 -0.4549  0.3848
 3780TIP3    H132831   3.974  -0.067   5.139  0.0408 -1.0063  1.3681
 3780TIP3    H232832   3.901   0.066   5.140  0.8571 -0.4638 -1.4298
 3781TIP3   OH232833   3.719   0.547   6.093 -0.2463 -0.1402 -0.3639
 3781TIP3    H132834   3.800   0.554   6.144 -0.1168  0.7092 -0.6586
 3781TIP3    H232835   3.650   0.566   6.156 -0.2743 -1.4089  0.0151
 3782TIP3   OH232836   1.748   0.140  17.220 -0.3671 -0.2172  0.3854
 3782TIP3    H132837   1.721   0.083  17.148 -1.2067  0.4608  0.1462
 3782TIP3    H232838   1.742   0.229  17.183  1.1225  0.0324  0.6718
 3783TIP3   OH232839   0.313   3.683  13.100 -0.1340  0.1275 -0.2544
 3783TIP3    H132840   0.226   3.710  13.068  0.3072  2.2879  0.1723
 3783TIP3    H232841   0.298   3.662  13.192 -0.0599  1.4518  0.0754
 3784TIP3   OH232842   6.433   5.113   1.387 -0.5070  0.1424 -0.3512
 3784TIP3    H132843   6.397   5.054   1.453 -2.4461  0.2473 -1.2434
 3784TIP3    H232844   6.489   5.173   1.437  0.0856 -1.3151  0.8071
 3785TIP3   OH232845   0.440   4.861  12.768  0.5299  0.3250  0.4378
 3785TIP3    H132846   0.497   4.937  12.757  0.9639  0.1435  1.3566
 3785TIP3    H232847   0.419   4.834  12.678  0.9349  1.0984  0.0989
 3786TIP3   OH232848   5.671   5.052   4.901  0.6366 -0.2828 -0.0694
 3786TIP3    H132849   5.613   5.114   4.945  1.3725  0.0500  0.4461
 3786TIP3    H232850   5.749   5.103   4.878  1.6078 -1.1777  1.1108
 3787TIP3   OH232851   2.034   4.923   2.768  0.2766  0.1590  0.4278
 3787TIP3    H132852   2.010   4.844   2.720  1.0535  0.4582 -0.5024
 3787TIP3    H232853   1.988   4.993   2.723 -0.9737  0.1734  1.6897
 3788TIP3   OH232854   0.620   1.434  15.682 -0.0204  0.1743  0.0194
 3788TIP3    H132855   0.675   1.387  15.619 -0.8527  0.5360 -1.0119
 3788TIP3    H232856   0.630   1.386  15.764  1.8517  0.2452 -0.1180
 3789TIP3   OH232857   4.582   6.442   5.207  0.1470  0.3794 -0.1344
 3789TIP3    H132858   4.628   6.433   5.123 -1.4363 -1.9029 -0.8392
 3789TIP3    H232859   4.566   6.536   5.215  2.2416  0.9167 -1.2896
 3790TIP3   OH232860   6.210   1.117  15.061  0.3503 -0.5454 -0.3516
 3790TIP3    H132861   6.181   1.049  15.001 -0.4808 -0.4011 -0.1241
 3790TIP3    H232862   6.130   1.162  15.088  0.8137  0.0750  0.0427
 3791TIP3   OH232863   0.881   6.773   1.741  0.3405  0.4296  0.5547
 3791TIP3    H132864   0.826   6.695   1.749 -0.2736  0.9688  1.7564
 3791TIP3    H232865   0.912   6.790   1.830  0.4069  1.5924  0.3240
 3792TIP3   OH232866   6.176   4.210  14.127  0.7446  0.2460  0.6267
 3792TIP3    H132867   6.241   4.238  14.063  0.2211  1.1870  0.4817
 3792TIP3    H232868   6.126   4.142  14.082  0.8321  0.4103  0.2740
 3793TIP3   OH232869   3.915   3.701   0.792 -0.2217  0.3740  0.0268
 3793TIP3    H132870   3.979   3.673   0.726 -0.5195  1.9680 -1.0079
 3793TIP3    H232871   3.831   3.699   0.746 -0.6110  0.3068  0.7378
 3794TIP3   OH232872   3.896   2.711   1.362  0.0283  0.2340  0.1754
 3794TIP3    H132873   3.833   2.641   1.347 -0.0075  0.3025 -0.0065
 3794TIP3    H232874   3.953   2.678   1.431 -0.3882  0.2938  0.5471
 3795TIP3   OH232875   3.827   2.525  14.560  0.1989 -0.7458  0.1631
 3795TIP3    H132876   3.761   2.456  14.571  0.3463 -1.1398 -1.2736
 3795TIP3    H232877   3.910   2.482  14.579  0.2163 -0.7173  0.1521
 3796TIP3   OH232878   1.962   3.478   1.435 -0.3036 -0.7861 -0.0168
 3796TIP3    H132879   2.033   3.443   1.381  2.5402  1.5580  1.8752
 3796TIP3    H232880   1.965   3.427   1.515 -0.2667 -0.2185  0.3502
 3797TIP3   OH232881   1.742   2.415   0.639 -1.1703  0.3095  0.5255
 3797TIP3    H132882   1.770   2.386   0.552 -0.6767  0.3667  0.6620
 3797TIP3    H232883   1.685   2.490   0.622 -0.2277  0.9946  0.2867
 3798TIP3   OH232884   1.604   0.387  16.259  0.4560  0.0149 -0.2733
 3798TIP3    H132885   1.676   0.410  16.318  0.0819  0.4169  0.0401
 3798TIP3    H232886   1.619   0.296  16.236  0.3275 -0.3152  0.8697
 3799TIP3   OH232887   4.657   2.204   5.872  0.1959  0.2349  0.2829
 3799TIP3    H132888   4.639   2.240   5.785 -1.0736  0.9741  0.8333
 3799TIP3    H232889   4.625   2.114   5.867  0.6708  0.0858 -0.1866
 3800TIP3   OH232890   0.493   0.914   0.210  0.4304  0.1657  0.1085
 3800TIP3    H132891   0.475   0.830   0.253 -0.3992  0.4479  0.3423
 3800TIP3    H232892   0.488   0.894   0.116 -2.3325  0.3980  0.1077
 3801TIP3   OH232893   1.901   2.777   4.397 -0.6434 -0.1266 -0.2879
 3801TIP3    H132894   1.846   2.698   4.399 -0.0982 -0.5056  0.3917
 3801TIP3    H232895   1.838   2.849   4.404 -1.4294 -0.2870 -3.8407
 3802TIP3   OH232896   3.096   3.020  17.140  0.3995 -0.4766  0.5160
 3802TIP3    H132897   3.147   2.992  17.064  1.9124  0.1692  1.2541
 3802TIP3    H232898   3.014   2.970  17.133  1.0391 -1.4108 -0.8134
 3803TIP3   OH232899   4.666   0.531  12.273  0.1833  0.0998  0.3606
 3803TIP3    H132900   4.750   0.548  12.315  0.6685 -0.0903 -0.5099
 3803TIP3    H232901   4.687   0.519  12.180 -0.9370  1.1472 -0.0520
 3804TIP3   OH232902   5.417   1.498  11.523  0.0882  0.0746  0.0522
 3804TIP3    H132903   5.507   1.465  11.516  0.3094 -0.0093  2.4143
 3804TIP3    H232904   5.420   1.560  11.596 -1.4429  1.3847 -0.9421
 3805TIP3   OH232905   6.759   6.545   1.477 -0.1718  0.0841 -0.0710
 3805TIP3    H132906   6.824   6.606   1.441  2.4579 -2.0715  0.6914
 3805TIP3    H232907   6.686   6.550   1.415  1.2471  1.6433 -1.7793
 3806TIP3   OH232908   1.116   4.085  14.307 -0.1327  0.9035 -0.3166
 3806TIP3    H132909   1.202   4.107  14.271 -0.4074 -0.7193 -2.1097
 3806TIP3    H232910   1.065   4.166  14.296  0.4187  1.0972 -1.7090
 3807TIP3   OH232911   2.954   0.574   2.845 -0.2556 -0.1366 -0.1388
 3807TIP3    H132912   2.972   0.665   2.819 -1.9610  0.9429  2.0913
 3807TIP3    H232913   3.007   0.560   2.923 -0.4162 -0.8617 -0.1518
 3808TIP3   OH232914   4.058   6.511   1.917 -0.2668 -0.2644  0.0078
 3808TIP3    H132915   4.028   6.572   1.850  0.5248  0.6567  0.4641
 3808TIP3    H232916   4.023   6.546   1.999  1.0597  0.1831  0.4037
 3809TIP3   OH232917   0.359   4.284  12.938 -0.0161 -0.3989  0.4384
 3809TIP3    H132918   0.448   4.296  12.971 -1.1963  1.1154  3.4057
 3809TIP3    H232919   0.356   4.336  12.858  1.7167 -0.3699  0.3596
 3810TIP3   OH232920   0.373   1.759   4.426 -0.7273 -1.0174  0.1440
 3810TIP3    H132921   0.402   1.683   4.376 -1.7077 -1.2052 -0.1657
 3810TIP3    H232922   0.277   1.752   4.426 -0.8164  0.0552  0.3534
 3811TIP3   OH232923   1.940   2.883  11.103 -0.1925 -0.3819  0.1089
 3811TIP3    H132924   1.954   2.978  11.110 -0.1402 -0.3868  0.0675
 3811TIP3    H232925   1.980   2.847  11.182  0.8936 -0.4892 -0.4688
 3812TIP3   OH232926   6.449   4.838   0.406 -0.2788  0.0535  0.5726
 3812TIP3    H132927   6.389   4.772   0.439 -1.0090  0.7510  0.6663
 3812TIP3    H232928   6.416   4.921   0.442  1.1067  0.3761  1.1533
 3813TIP3   OH232929   6.503   0.103   0.025  0.3086 -0.2541  0.2017
 3813TIP3    H132930   6.454   0.153   0.090 -1.0129 -1.4642  0.1828
 3813TIP3    H232931   6.482   0.144  -0.059 -1.2131 -1.1159  0.1228
 3814TIP3   OH232932   5.264   2.742   5.615 -0.2136 -0.6252 -0.2202
 3814TIP3    H132933   5.241   2.719   5.705 -0.4312 -0.1467 -0.1481
 3814TIP3    H232934   5.180   2.744   5.569 -0.0416 -1.5135 -0.5935
 3815TIP3   OH232935   4.610   2.757  17.002  0.3475  0.0901  0.2889
 3815TIP3    H132936   4.517   2.736  17.002  0.1829  0.7186  1.4326
 3815TIP3    H232937   4.641   2.731  16.915 -1.5915  2.9514 -1.4401
 3816TIP3   OH232938   5.651   5.121   3.627 -0.5321 -0.5945  0.0253
 3816TIP3    H132939   5.604   5.200   3.600 -0.3740 -1.4764 -3.2984
 3816TIP3    H232940   5.740   5.150   3.645 -0.9828  0.2753  0.8913
 3817TIP3   OH232941   4.765   2.163   3.321 -0.2234  0.2775  0.9904
 3817TIP3    H132942   4.807   2.247   3.337  0.2302 -0.2324  2.6889
 3817TIP3    H232943   4.825   2.118   3.261  1.2222 -0.0540  2.5990
 3818TIP3   OH232944   3.929   2.250  11.229 -0.3104 -0.3393  0.1587
 3818TIP3    H132945   4.008   2.213  11.270 -0.8123  1.0567  2.6236
 3818TIP3    H232946   3.962   2.301  11.155  0.8849 -1.3867 -0.0562
 3819TIP3   OH232947   4.209   4.149   5.904  0.0741 -0.3355 -0.2721
 3819TIP3    H132948   4.296   4.110   5.901  0.5736  0.8026 -0.9382
 3819TIP3    H232949   4.223   4.242   5.887 -1.1620  0.0454  0.6011
 3820TIP3   OH232950   0.441   6.727  13.158 -0.2507  0.3611 -0.7473
 3820TIP3    H132951   0.373   6.662  13.141  0.1733 -1.3165  2.9674
 3820TIP3    H232952   0.519   6.691  13.116 -0.2342 -1.1579  0.4942
 3821TIP3   OH232953   6.408   0.281  15.194  0.2582  0.1686  0.6343
 3821TIP3    H132954   6.470   0.216  15.228 -0.2949 -0.5356  0.3167
 3821TIP3    H232955   6.329   0.269  15.247 -0.8741 -1.4277 -1.2988
 3822TIP3   OH232956   4.893   3.222  14.909  0.0442 -0.0412 -0.0763
 3822TIP3    H132957   4.987   3.240  14.914 -0.2377  2.3655 -1.7812
 3822TIP3    H232958   4.882   3.173  14.827 -0.1808 -0.4010  0.1658
 3823TIP3   OH232959   2.654   0.302  14.735 -0.1822  0.1973  0.0709
 3823TIP3    H132960   2.631   0.217  14.774  1.0701 -0.5228 -0.7010
 3823TIP3    H232961   2.629   0.292  14.643 -1.1874  1.1415  0.2187
 3824TIP3   OH232962   2.120   0.033  17.098  0.1641  0.7343  0.1037
 3824TIP3    H132963   2.036  -0.009  17.118  0.9195 -0.8933 -0.0131
 3824TIP3    H232964   2.185  -0.020  17.145  1.1534  1.8696  0.0591
 3825TIP3   OH232965   2.983   3.826   1.919 -0.0292 -0.1817  0.1406
 3825TIP3    H132966   3.022   3.909   1.944  0.0541 -0.3527  0.5879
 3825TIP3    H232967   2.973   3.832   1.824  0.0938  0.2852  0.1540
 3826TIP3   OH232968   5.410   1.609   1.528  0.1434 -0.1951 -0.7798
 3826TIP3    H132969   5.506   1.607   1.529  0.1486 -2.4025 -0.7046
 3826TIP3    H232970   5.384   1.517   1.536 -2.0102  0.4617  0.8306
 3827TIP3   OH232971   2.088   5.875   5.717 -0.0060  0.3750  0.3561
 3827TIP3    H132972   1.994   5.876   5.701  0.1439 -0.9813 -0.8474
 3827TIP3    H232973   2.101   5.808   5.783  0.1081  0.6457  0.6103
 3828TIP3   OH232974   0.716   1.682   4.229 -0.1084 -0.7896 -0.3059
 3828TIP3    H132975   0.770   1.658   4.154  1.1797  0.2100  0.2630
 3828TIP3    H232976   0.653   1.745   4.193  0.0967 -0.7909 -0.6748
 3829TIP3   OH232977   3.762   4.861  12.550 -0.0264  0.2619 -0.3223
 3829TIP3    H132978   3.784   4.932  12.611 -1.7912  0.2511  0.3934
 3829TIP3    H232979   3.667   4.859  12.549 -0.0449 -1.9685 -0.4707
 3830TIP3   OH232980   5.873   4.317   6.690  0.4240 -0.2693 -0.4119
 3830TIP3    H132981   5.810   4.300   6.621  1.1722  0.6228 -1.3407
 3830TIP3    H232982   5.844   4.399   6.730  0.0373 -0.7416  0.3077
 3831TIP3   OH232983   1.046   4.766  15.856 -0.0410  0.0097 -0.7980
 3831TIP3    H132984   1.016   4.696  15.913  1.0229  0.2842  0.1419
 3831TIP3    H232985   1.016   4.847  15.899  0.1705  0.1925 -0.9913
 3832TIP3   OH232986   4.869   2.848   2.046  0.3942  0.6602  0.7748
 3832TIP3    H132987   4.836   2.774   1.995  0.1174 -0.5204  2.5734
 3832TIP3    H232988   4.941   2.883   1.994  2.1296 -2.4041  0.8915
 3833TIP3   OH232989   6.668   4.520  13.724 -0.2170  0.3398 -0.3694
 3833TIP3    H132990   6.762   4.533  13.740  0.2528  1.3061 -3.3873
 3833TIP3    H232991   6.628   4.530  13.811  2.3878  0.2786  0.9612
 3834TIP3   OH232992   0.761   6.597  16.761  0.1180 -0.1577 -0.1856
 3834TIP3    H132993   0.824   6.664  16.734 -0.6538  1.1450  1.0596
 3834TIP3    H232994   0.719   6.634  16.839 -0.7055 -1.8926  0.2512
 3835TIP3   OH232995   3.490   6.314   0.534 -0.1967  0.7203 -0.5536
 3835TIP3    H132996   3.509   6.318   0.440 -0.9115  0.7902 -0.7061
 3835TIP3    H232997   3.401   6.278   0.538 -0.3208  1.0860  0.0806
 3836TIP3   OH232998   5.718   2.497   1.062 -0.2483  0.1742 -0.2331
 3836TIP3    H132999   5.783   2.555   1.101 -2.0794  0.6996  2.2603
 3836TIP3    H233000   5.731   2.507   0.967  1.8774  1.8429  0.1594
 3837TIP3   OH233001   3.237   1.889  13.029 -0.3726  0.1339 -0.1393
 3837TIP3    H133002   3.280   1.803  13.028 -1.0340 -0.1971 -0.1600
 3837TIP3    H233003   3.179   1.889  12.953 -3.1522 -0.8536  1.8260
 3838TIP3   OH233004   1.042   5.947   2.129  0.2407 -0.3431  0.1142
 3838TIP3    H133005   0.971   6.003   2.160 -1.2094 -1.4992 -0.9906
 3838TIP3    H233006   1.035   5.949   2.034  0.9164 -1.4460  0.0209
 3839TIP3   OH233007   1.121   6.038   1.563 -0.0389  0.1559  0.1032
 3839TIP3    H133008   1.068   5.958   1.560  1.3133 -0.7518 -0.4475
 3839TIP3    H233009   1.162   6.043   1.477  0.1851  1.2717  0.2513
 3840TIP3   OH233010   0.803   6.095   1.295 -0.4178  0.0924  0.1880
 3840TIP3    H133011   0.728   6.109   1.352 -0.0840 -0.9158  0.8977
 3840TIP3    H233012   0.768   6.101   1.207 -1.4084 -0.7620  0.5136
 3841TIP3   OH233013   2.751   4.770   4.022  0.4365  0.5212  0.3588
 3841TIP3    H133014   2.748   4.831   4.095  1.8807 -0.8907  1.6986
 3841TIP3    H233015   2.766   4.684   4.063 -0.0974 -0.5274 -1.5166
 3842TIP3   OH233016   3.655   6.158  12.090 -0.6601  0.0418 -0.6998
 3842TIP3    H133017   3.709   6.225  12.048  0.0553 -0.6466 -0.9081
 3842TIP3    H233018   3.635   6.193  12.176  1.7947 -0.5062  0.1585
 3843TIP3   OH233019   0.505   0.464  15.183  0.6950  0.2494 -0.2511
 3843TIP3    H133020   0.438   0.530  15.200  0.2094 -0.4202  0.5097
 3843TIP3    H233021   0.500   0.448  15.089 -0.5499 -0.1508 -0.1254
 3844TIP3   OH233022   0.068   2.101  11.408 -0.2910  0.2938  0.6622
 3844TIP3    H133023   0.030   2.180  11.445  0.4719  1.2976 -0.6161
 3844TIP3    H233024   0.159   2.100  11.440 -0.5209 -0.5517  1.3604
 3845TIP3   OH233025   5.697   5.061   4.331  0.3998 -0.1066 -0.0545
 3845TIP3    H133026   5.637   5.089   4.399  0.4739 -0.5870  0.2120
 3845TIP3    H233027   5.649   4.996   4.281  0.7726 -0.6894  0.3211
 3846TIP3   OH233028   1.311   5.926  15.293 -0.1164  0.4275  0.3947
 3846TIP3    H133029   1.264   5.843  15.283  0.2334  0.1125  1.3270
 3846TIP3    H233030   1.352   5.940  15.207  1.0709 -1.1267  0.6698
 3847TIP3   OH233031   0.390   3.492   1.597 -0.1728  0.2014  0.3389
 3847TIP3    H133032   0.357   3.559   1.538  0.6611  0.5242  0.2219
 3847TIP3    H233033   0.399   3.536   1.682 -1.4390 -0.2807  0.7508
 3848TIP3   OH233034   4.452   4.202  15.154 -0.4417  0.0197 -0.0702
 3848TIP3    H133035   4.532   4.153  15.141 -2.0132 -2.5646 -0.6550
 3848TIP3    H233036   4.431   4.189  15.247 -1.3299 -1.2292 -0.4312
 3849TIP3   OH233037   2.204   0.294  11.348 -0.0449 -0.1026 -0.6676
 3849TIP3    H133038   2.180   0.368  11.404 -0.8393 -2.4841  2.4279
 3849TIP3    H233039   2.299   0.289  11.353 -0.1492 -1.4433  2.3985
 3850TIP3   OH233040   6.669   2.926   3.158  0.1933  0.4106 -0.2197
 3850TIP3    H133041   6.738   2.959   3.216  1.9458 -2.0689 -0.7526
 3850TIP3    H233042   6.705   2.935   3.070  0.5046 -2.1779 -0.4227
 3851TIP3   OH233043   5.107   3.348   0.573 -0.0082  0.2795 -0.3739
 3851TIP3    H133044   5.108   3.442   0.593 -0.0684  0.3238 -0.5683
 3851TIP3    H233045   5.035   3.339   0.510 -0.4767 -0.0147  0.1962
 3852TIP3   OH233046   6.679   4.385   3.831 -0.3518 -0.5160 -0.4897
 3852TIP3    H133047   6.738   4.310   3.830 -0.6911 -0.7853 -1.6741
 3852TIP3    H233048   6.629   4.375   3.912  0.1753 -1.1201 -0.2312
 3853TIP3   OH233049   1.789   3.258  16.470 -0.4621  0.6896  0.5268
 3853TIP3    H133050   1.791   3.172  16.513  1.0514  0.6882  0.5179
 3853TIP3    H233051   1.745   3.315  16.532  0.2885  0.3347  1.4032
 3854TIP3   OH233052   0.130   2.397  11.247 -0.3770 -0.2721  0.3640
 3854TIP3    H133053   0.169   2.445  11.173  2.2974  0.0540  1.8526
 3854TIP3    H233054   0.037   2.393  11.226  0.0185  1.2755 -2.1995
 3855TIP3   OH233055   3.569   5.521   1.246  0.2558 -0.1281 -0.0493
 3855TIP3    H133056   3.595   5.474   1.167 -1.6909 -2.4589  0.5702
 3855TIP3    H233057   3.504   5.585   1.216  0.9397  0.3547 -0.5432
 3856TIP3   OH233058   0.574   5.814  12.685 -0.2735 -0.1795 -0.5460
 3856TIP3    H133059   0.669   5.823  12.676 -0.4809  1.4998 -1.2652
 3856TIP3    H233060   0.545   5.775  12.603 -0.1272 -1.6792  0.0729
 3857TIP3   OH233061   1.904   0.286  10.729  0.3878  0.0581  0.2551
 3857TIP3    H133062   1.933   0.232  10.655  1.0093 -1.2230  1.3928
 3857TIP3    H233063   1.983   0.331  10.758  0.5752 -0.9435  1.3391
 3858TIP3   OH233064   1.409   6.457   1.000  0.2695  1.0109  0.1646
 3858TIP3    H133065   1.394   6.363   1.008  1.9295  0.6266 -0.7429
 3858TIP3    H233066   1.324   6.493   0.977 -0.0189 -0.5284 -1.3547
 3859TIP3   OH233067   1.339   3.866  11.959 -0.4830  0.2580  0.0530
 3859TIP3    H133068   1.305   3.847  11.872 -1.3814 -0.5673  0.5581
 3859TIP3    H233069   1.433   3.876  11.947 -0.3411 -1.6658 -0.7332
 3860TIP3   OH233070   4.627   6.698   4.706 -0.1758  0.9447  0.6351
 3860TIP3    H133071   4.688   6.636   4.665  0.8968  1.9536  0.6452
 3860TIP3    H233072   4.546   6.649   4.715  0.8225 -0.6942  1.2632
 3861TIP3   OH233073   1.485   0.224   3.769 -0.1011 -0.5147 -0.5686
 3861TIP3    H133074   1.549   0.167   3.726  0.2753  0.2906 -1.1016
 3861TIP3    H233075   1.518   0.234   3.858  0.2505 -0.4943 -0.7001
 3862TIP3   OH233076   2.267   6.479   6.542  0.7909  0.1816 -0.0955
 3862TIP3    H133077   2.231   6.391   6.544 -2.0196  1.0877 -2.3866
 3862TIP3    H233078   2.304   6.488   6.454  3.1155  0.6283  0.8615
 3863TIP3   OH233079   0.803   2.880   1.356 -0.0774 -0.2965 -0.1505
 3863TIP3    H133080   0.714   2.909   1.333 -0.1881  1.2469  1.8802
 3863TIP3    H233081   0.803   2.877   1.452  2.0450 -0.3250 -0.1014
 3864TIP3   OH233082   1.162   6.671   3.378 -0.1907 -0.1737  0.1470
 3864TIP3    H133083   1.070   6.645   3.385  0.1429 -1.4908  0.0472
 3864TIP3    H233084   1.197   6.614   3.310  0.7375  0.2112  0.2955
 3865TIP3   OH233085   1.045   5.303   0.645  0.1807 -0.1937 -0.0938
 3865TIP3    H133086   1.045   5.346   0.560 -0.5263 -0.7123 -0.3674
 3865TIP3    H233087   0.966   5.335   0.689  0.1010 -0.5591  0.0367
 3866TIP3   OH233088   0.302   0.267  15.552 -0.2996  0.0844  0.5398
 3866TIP3    H133089   0.397   0.252  15.550  0.1359  2.3950  0.6475
 3866TIP3    H233090   0.278   0.256  15.644  0.4445  2.2220  1.0457
 3867TIP3   OH233091   4.461   6.040  12.760  0.1688  0.4931 -0.5301
 3867TIP3    H133092   4.415   6.049  12.676  1.2705 -0.8275 -1.3086
 3867TIP3    H233093   4.410   5.976  12.808  0.7270 -0.3684 -1.0698
 3868TIP3   OH233094   0.442   1.603   3.057  0.3009  0.2739 -0.4904
 3868TIP3    H133095   0.429   1.546   3.133 -0.1958 -0.6536 -1.2512
 3868TIP3    H233096   0.532   1.635   3.066  0.1693  0.3759  0.6058
 3869TIP3   OH233097   1.075   6.728   2.575  0.7930  0.2346 -0.3929
 3869TIP3    H133098   1.054   6.736   2.668 -0.5379 -0.6027 -0.5967
 3869TIP3    H233099   1.098   6.636   2.563  0.9819  0.3412 -0.8906
 3870TIP3   OH233100   2.136   3.607  11.560  0.2037 -0.3803 -0.0091
 3870TIP3    H133101   2.113   3.523  11.600  1.0311 -0.4473  0.3463
 3870TIP3    H233102   2.069   3.621  11.494 -1.3294 -0.1673  1.5261
 3871TIP3   OH233103   0.217   4.942   0.939 -0.2304  0.4725  0.2260
 3871TIP3    H133104   0.305   4.906   0.939 -0.0058  0.9947  0.8704
 3871TIP3    H233105   0.230   5.037   0.940 -0.7718  0.5564  1.6643
 3872TIP3   OH233106   5.287   0.613   2.983 -0.1833 -0.1861 -0.1859
 3872TIP3    H133107   5.258   0.537   2.932 -1.4080  0.6942 -0.8602
 3872TIP3    H233108   5.224   0.682   2.960  0.2655  0.7254  1.2211
 3873TIP3   OH233109   4.103   2.136   5.212 -0.0254  0.2038  0.1236
 3873TIP3    H133110   4.128   2.052   5.174 -1.3594 -0.2027  0.0743
 3873TIP3    H233111   4.114   2.199   5.141 -0.2223 -0.1492 -0.2219
 3874TIP3   OH233112   3.646   4.464  15.178  0.0118  0.0048 -0.6055
 3874TIP3    H133113   3.664   4.373  15.200 -2.2180 -0.5431 -0.8119
 3874TIP3    H233114   3.684   4.476  15.091 -0.2960 -0.9596 -0.8886
 3875TIP3   OH233115   2.795   2.741  13.799 -0.0093 -0.0924 -0.1062
 3875TIP3    H133116   2.737   2.790  13.857  0.7800  0.2066  0.4496
 3875TIP3    H233117   2.882   2.775  13.818  0.4472 -1.0739 -0.3639
 3876TIP3   OH233118   3.410   4.431   4.461  0.0079 -0.4000  0.2305
 3876TIP3    H133119   3.366   4.489   4.524 -1.3800  0.3087 -1.3240
 3876TIP3    H233120   3.490   4.478   4.437 -0.4808  0.2883 -0.0657
 3877TIP3   OH233121   2.698   1.005   5.901 -0.4075  0.0157  0.2044
 3877TIP3    H133122   2.792   1.003   5.919 -0.2942  0.4939 -0.2954
 3877TIP3    H233123   2.681   1.095   5.874 -0.6063 -0.5889 -1.8332
 3878TIP3   OH233124   2.259   5.311  12.752  0.5971  0.0340  0.3131
 3878TIP3    H133125   2.304   5.316  12.667  3.6295 -1.1726  1.6862
 3878TIP3    H233126   2.274   5.398  12.791  1.0575 -0.0936  0.4299
 3879TIP3   OH233127   2.163   5.218  11.070  0.1833  0.6931 -0.2008
 3879TIP3    H133128   2.152   5.124  11.083 -0.4444  0.8313  0.3008
 3879TIP3    H233129   2.088   5.258  11.116  0.7083  1.4599  0.0039
 3880TIP3   OH233130   6.397   3.618   1.981  0.7185  0.4232  0.0349
 3880TIP3    H133131   6.388   3.628   1.887 -1.8332 -0.6452  0.0970
 3880TIP3    H233132   6.332   3.677   2.018 -0.1155 -1.0336  0.9981
 3881TIP3   OH233133   5.210   3.652   6.212  0.2197 -0.3650  0.3742
 3881TIP3    H133134   5.224   3.583   6.277  0.7878 -1.3035 -0.7158
 3881TIP3    H233135   5.263   3.625   6.137 -1.7186 -0.2062 -1.1300
 3882TIP3   OH233136   0.159   2.252  12.356 -0.0232 -0.0203  0.0257
 3882TIP3    H133137   0.152   2.170  12.306 -0.6174 -0.6490  1.1018
 3882TIP3    H233138   0.252   2.263  12.371 -0.0138 -1.2239  1.0074
 3883TIP3   OH233139   0.006   5.151   3.528 -0.5028 -0.2907  0.1044
 3883TIP3    H133140   0.081   5.109   3.486 -1.6093 -1.2967 -0.9679
 3883TIP3    H233141  -0.038   5.197   3.456 -0.9664  0.1925  0.6957
 3884TIP3   OH233142   0.230   0.224   1.105  0.2449 -0.2959  0.3545
 3884TIP3    H133143   0.234   0.294   1.041  0.8321 -0.3695  0.2990
 3884TIP3    H233144   0.205   0.267   1.187  0.8665  0.0217  0.3812
 3885TIP3   OH233145   6.435   4.019  13.378  0.3966 -0.1038  0.3863
 3885TIP3    H133146   6.392   4.040  13.462 -0.7991 -1.3127  0.1147
 3885TIP3    H233147   6.382   4.064  13.312  1.3175  0.8184  0.2602
 3886TIP3   OH233148   4.125   6.353  16.792  0.0350 -0.3642 -0.0971
 3886TIP3    H133149   4.201   6.329  16.846 -1.8265  0.6201  3.2278
 3886TIP3    H233150   4.138   6.445  16.772 -0.1128 -0.2705  0.2261
 3887TIP3   OH233151   3.360   5.904   2.107  0.3470  0.1661  0.3648
 3887TIP3    H133152   3.362   5.973   2.040 -0.3960 -1.2338 -1.1500
 3887TIP3    H233153   3.326   5.949   2.185 -0.0440  1.5448 -0.5468
 3888TIP3   OH233154   0.656   6.488   0.571 -0.0996  0.0269  0.6457
 3888TIP3    H133155   0.635   6.396   0.582  1.1348 -0.3164  0.2593
 3888TIP3    H233156   0.653   6.525   0.659 -0.4526 -0.4106  0.8156
 3889TIP3   OH233157   2.722   5.894  15.269 -0.2624 -0.1317 -0.4723
 3889TIP3    H133158   2.719   5.964  15.204  1.1885 -0.2702 -0.7275
 3889TIP3    H233159   2.816   5.881  15.286 -0.5862  0.6669  2.4663
 3890TIP3   OH233160   6.749   0.809   2.478 -0.2058  0.6631 -0.5135
 3890TIP3    H133161   6.728   0.758   2.401  0.9375 -1.6013  0.5669
 3890TIP3    H233162   6.711   0.760   2.551  0.1658  1.8408  0.5149
 3891TIP3   OH233163   2.620   5.397  14.583  0.1337 -0.5304 -1.1113
 3891TIP3    H133164   2.624   5.434  14.495 -1.6945 -1.3882 -1.6131
 3891TIP3    H233165   2.709   5.405  14.617  0.8245  0.0343 -2.9465
 3892TIP3   OH233166   6.065   6.289   4.334 -0.4303 -0.0660  0.0562
 3892TIP3    H133167   6.035   6.230   4.403  0.5711 -3.0574 -1.8501
 3892TIP3    H233168   6.160   6.290   4.344 -0.3573  0.3036 -0.6188
 3893TIP3   OH233169   4.027   2.237   2.541 -0.2682 -0.3394 -0.1948
 3893TIP3    H133170   3.987   2.198   2.619  0.6609  0.3133  0.6252
 3893TIP3    H233171   4.067   2.318   2.573 -1.3928  0.8541 -1.6909
 3894TIP3   OH233172   3.895   5.067  14.007  0.1139 -0.5591  0.0408
 3894TIP3    H133173   3.990   5.076  14.007  0.0712 -0.0248 -0.2125
 3894TIP3    H233174   3.878   4.981  13.969  0.4734 -0.2536 -0.8248
 3895TIP3   OH233175   0.949   0.687   4.552 -0.0343 -0.0085 -0.0641
 3895TIP3    H133176   1.008   0.648   4.487 -1.3302 -0.7674 -0.8482
 3895TIP3    H233177   0.927   0.614   4.611  0.6744  0.5369  0.9077
 3896TIP3   OH233178   6.757   5.626  13.920 -0.5984  0.3158  0.4088
 3896TIP3    H133179   6.671   5.668  13.917 -0.1584  1.1801 -0.9359
 3896TIP3    H233180   6.738   5.536  13.948 -2.2029 -0.0448 -1.5387
 3897TIP3   OH233181   3.990   6.731   1.758  0.2922  0.1848  0.0359
 3897TIP3    H133182   4.049   6.800   1.791 -0.5774  1.2551 -0.5618
 3897TIP3    H233183   4.004   6.731   1.664 -0.4126  0.2215 -0.0713
 3898TIP3   OH233184   0.853   4.354  11.846  0.3684 -0.6186 -0.2441
 3898TIP3    H133185   0.868   4.260  11.858  0.8903 -0.3878  1.0597
 3898TIP3    H233186   0.843   4.388  11.935  2.7509  0.9736 -0.4988
 3899TIP3   OH233187   3.340   2.643   3.330  0.3060 -0.4260 -0.0488
 3899TIP3    H133188   3.262   2.598   3.301 -1.1434  1.2427  1.0518
 3899TIP3    H233189   3.325   2.660   3.423  0.9949  1.7841 -0.2856
 3900TIP3   OH233190   0.394   1.719  13.195 -0.3372  0.0179  0.0628
 3900TIP3    H133191   0.459   1.719  13.265  1.7354 -0.0923 -1.7257
 3900TIP3    H233192   0.412   1.799  13.145 -0.8404 -0.5634 -1.0977
 3901TIP3   OH233193   0.915   4.516   6.365  0.6383  0.2151 -0.4195
 3901TIP3    H133194   0.837   4.549   6.321  0.6163 -0.2475 -0.7401
 3901TIP3    H233195   0.942   4.441   6.312  0.7830 -0.1699  0.1824
 3902TIP3   OH233196   1.209   0.533  13.664 -0.3610  0.2244 -0.0675
 3902TIP3    H133197   1.116   0.556  13.663  0.1143  2.3992  0.0609
 3902TIP3    H233198   1.224   0.490  13.580 -1.0188  2.1092 -1.2219
 3903TIP3   OH233199   3.506   5.026   3.262 -1.1607 -0.1829  0.3365
 3903TIP3    H133200   3.450   5.042   3.186 -0.2947 -0.3596 -0.3447
 3903TIP3    H233201   3.512   4.931   3.268 -0.4933 -0.1581  0.0826
 3904TIP3   OH233202   2.410   0.691  16.155  0.0524 -0.3306 -0.8690
 3904TIP3    H133203   2.505   0.707  16.159  0.0944 -0.8496  1.0971
 3904TIP3    H233204   2.371   0.776  16.176  0.0397  0.0327 -2.2633
 3905TIP3   OH233205   2.546   3.832   3.918  1.0259  0.2059 -0.0682
 3905TIP3    H133206   2.495   3.874   3.849  0.0298 -0.2854  0.3448
 3905TIP3    H233207   2.547   3.740   3.893  0.0012 -0.1046  0.9361
 3906TIP3   OH233208   2.641   2.370  12.112  0.4594  0.0117 -0.5641
 3906TIP3    H133209   2.567   2.376  12.052 -1.4312  0.8491  1.6777
 3906TIP3    H233210   2.670   2.461  12.123 -1.7393  0.5006  2.5530
 3907TIP3   OH233211   4.230   4.446  15.917 -0.0859 -0.5619 -0.5897
 3907TIP3    H133212   4.223   4.538  15.892 -2.1944 -0.0212  1.5854
 3907TIP3    H233213   4.290   4.408  15.853 -0.1549  2.0193 -2.3364
 3908TIP3   OH233214   0.795   5.802   2.414 -0.7456 -0.2833  0.6722
 3908TIP3    H133215   0.842   5.723   2.385  2.6844  1.4359  1.0724
 3908TIP3    H233216   0.760   5.840   2.334  1.1187 -0.1336 -0.1160
 3909TIP3   OH233217   0.978   5.150  12.598 -1.1047  0.0236 -0.2594
 3909TIP3    H133218   0.925   5.189  12.529  0.0518  1.5796 -0.3064
 3909TIP3    H233219   0.953   5.198  12.678  0.9004  1.5145 -0.4599
 3910TIP3   OH233220   0.108   5.522   3.905  0.4676 -0.5029 -0.6032
 3910TIP3    H133221   0.085   5.445   3.958  1.8192 -0.8162 -0.4416
 3910TIP3    H233222   0.093   5.494   3.815  1.1043 -1.0260 -0.5562
 3911TIP3   OH233223   3.395   0.226   4.924  0.3586  0.9316 -0.2321
 3911TIP3    H133224   3.325   0.205   4.986  0.2025  0.9718 -0.3918
 3911TIP3    H233225   3.349   0.244   4.842  0.6472 -1.3951 -0.9975
 3912TIP3   OH233226   3.640   2.730  11.790  0.5448  0.4465  0.4125
 3912TIP3    H133227   3.687   2.651  11.762 -0.5366 -1.0417  2.5501
 3912TIP3    H233228   3.687   2.760  11.868 -0.3993  0.5656  0.9468
 3913TIP3   OH233229   1.842   4.223  15.225  0.2580  0.0876  0.2204
 3913TIP3    H133230   1.832   4.239  15.131  2.1560 -1.5491 -0.3365
 3913TIP3    H233231   1.763   4.259  15.264  0.0764  2.1547 -1.8198
 3914TIP3   OH233232   0.865   0.171   4.804  0.2684 -0.3348 -0.0021
 3914TIP3    H133233   0.908   0.108   4.861 -0.6056  1.3984  2.7354
 3914TIP3    H233234   0.775   0.174   4.836 -0.0495  1.2918 -0.9745
 3915TIP3   OH233235   0.076   2.880   4.176  0.4448 -0.5089 -0.8974
 3915TIP3    H133236   0.022   2.829   4.116 -0.3066 -0.7797 -0.0298
 3915TIP3    H233237   0.081   2.967   4.138  0.4866 -0.8351 -1.6473
 3916TIP3   OH233238   6.632   2.438  14.186  0.4040 -0.4626 -0.3651
 3916TIP3    H133239   6.706   2.497  14.200  1.0799 -1.3444 -0.1006
 3916TIP3    H233240   6.560   2.495  14.162  1.2205  0.4062 -0.8138
 3917TIP3   OH233241   5.354   2.962   2.493 -0.0654 -0.2774 -0.0742
 3917TIP3    H133242   5.440   2.930   2.463  1.0576  1.5789  1.0175
 3917TIP3    H233243   5.292   2.922   2.432  1.8101  0.5594 -2.7381
 3918TIP3   OH233244   5.857   5.127   0.180  0.0606 -0.0440  0.4224
 3918TIP3    H133245   5.780   5.132   0.123  0.6189  0.2967 -0.3346
 3918TIP3    H233246   5.849   5.044   0.226 -1.7675  0.8500  1.8495
 3919TIP3   OH233247   3.582   6.296  16.860 -0.2230  0.6496  0.3125
 3919TIP3    H133248   3.617   6.207  16.854  1.2913  1.1688  0.8695
 3919TIP3    H233249   3.654   6.352  16.828 -0.7901  1.7282  0.8652
 3920TIP3   OH233250   1.243   1.378   6.319  0.9411 -0.4636 -0.1157
 3920TIP3    H133251   1.152   1.364   6.347  0.2177 -1.0947 -2.5098
 3920TIP3    H233252   1.243   1.466   6.280  1.6200 -0.0774  0.7165
 3921TIP3   OH233253   3.358   3.533   5.968 -0.1791  0.7985 -0.2072
 3921TIP3    H133254   3.313   3.517   6.051 -0.9774  0.0755 -0.7749
 3921TIP3    H233255   3.291   3.520   5.901  0.1887  2.3589 -0.9388
 3922TIP3   OH233256   5.303   4.219  14.067 -0.1399  0.4957 -0.0806
 3922TIP3    H133257   5.329   4.127  14.057  1.1932  0.6855  1.3383
 3922TIP3    H233258   5.350   4.265  13.998  0.6700  0.3561  0.3672
 3923TIP3   OH233259   2.000   1.636  13.184 -0.6526  0.3151 -0.1877
 3923TIP3    H133260   2.031   1.616  13.272 -0.4019  0.2565 -0.2900
 3923TIP3    H233261   1.907   1.655  13.196 -1.5187 -3.0763 -0.3654
 3924TIP3   OH233262   3.826   5.897   4.564  0.3108 -0.1785  0.1743
 3924TIP3    H133263   3.876   5.815   4.564  2.4205  1.0180  0.1157
 3924TIP3    H233264   3.786   5.900   4.477  1.1201 -0.6522 -0.2303
 3925TIP3   OH233265   0.079   1.847   0.585  0.4022  0.2846  0.7401
 3925TIP3    H133266  -0.010   1.865   0.615  0.7692 -0.0564  2.1018
 3925TIP3    H233267   0.079   1.752   0.568  0.4610  0.3165  0.5589
 3926TIP3   OH233268   6.337   4.700   2.540 -0.1447 -0.6441 -1.1351
 3926TIP3    H133269   6.374   4.621   2.579  0.3593  0.0242 -0.2345
 3926TIP3    H233270   6.274   4.667   2.475  0.3766 -1.7786 -1.0907
 3927TIP3   OH233271   2.274   6.668   5.807 -0.1346  0.1255 -0.3167
 3927TIP3    H133272   2.244   6.734   5.869  0.3597  1.6390 -1.6228
 3927TIP3    H233273   2.229   6.588   5.834 -0.2182  0.7993  1.7439
 3928TIP3   OH233274   4.251   2.583   0.696  0.2299  0.1428 -0.2864
 3928TIP3    H133275   4.285   2.511   0.749  0.1427 -0.7580 -1.4099
 3928TIP3    H233276   4.303   2.580   0.615  0.6890  1.7833 -0.0866
 3929TIP3   OH233277   0.155   2.545  15.685  0.1938 -0.2097 -0.0534
 3929TIP3    H133278   0.069   2.502  15.683  0.2925 -0.4117  0.0300
 3929TIP3    H233279   0.146   2.611  15.754  0.0617 -0.1342 -0.1409
 3930TIP3   OH233280   3.452   4.241  13.932  0.3176 -0.1442  0.4755
 3930TIP3    H133281   3.391   4.192  13.988 -0.1689  1.1951  1.1616
 3930TIP3    H233282   3.452   4.192  13.850 -1.5133 -0.3349  0.5371
 3931TIP3   OH233283   0.334   2.410  11.676  0.2923  0.5091  0.5602
 3931TIP3    H133284   0.305   2.383  11.589  0.1629 -0.8918  1.0050
 3931TIP3    H233285   0.324   2.331  11.730  0.4315  1.3273  1.8318
 3932TIP3   OH233286   3.544   3.320   0.022 -0.1787 -0.1825 -0.1941
 3932TIP3    H133287   3.519   3.382   0.090  1.3634 -1.1717  1.3428
 3932TIP3    H233288   3.463   3.272   0.002 -0.7224  0.3623  0.6645
 3933TIP3   OH233289   5.217   4.104  12.359  0.0767 -0.0654 -0.0050
 3933TIP3    H133290   5.267   4.062  12.288  2.4039  0.7319  1.0872
 3933TIP3    H233291   5.142   4.144  12.314  1.6947  0.7932 -2.1241
 3934TIP3   OH233292   3.160   0.266   4.086  0.0683 -0.0807 -0.0924
 3934TIP3    H133293   3.109   0.197   4.045 -0.2383 -0.2862  0.6123
 3934TIP3    H233294   3.196   0.317   4.013 -0.5056 -0.3972 -0.6021
 3935TIP3   OH233295   1.834   0.848   5.913 -0.4620 -0.6149 -0.3782
 3935TIP3    H133296   1.822   0.835   6.007  0.0763 -0.7740 -0.3271
 3935TIP3    H233297   1.776   0.784   5.872 -0.7379 -0.5095 -0.1556
 3936TIP3   OH233298   2.952   1.945  10.693  0.3728  0.1107 -0.2662
 3936TIP3    H133299   2.957   1.932  10.788 -1.4391  0.9074 -0.0231
 3936TIP3    H233300   3.005   1.874  10.657 -0.2048 -1.2076  1.3138
 3937TIP3   OH233301   1.393   4.940  17.075 -0.0705 -0.3963 -0.2808
 3937TIP3    H133302   1.434   4.945  17.161 -0.3076 -0.0189 -0.1844
 3937TIP3    H233303   1.443   4.874  17.027  0.2271 -0.4152  0.0568
 3938TIP3   OH233304   6.235   2.788  16.396  0.3817 -0.0642 -0.7437
 3938TIP3    H133305   6.153   2.764  16.354  0.7223 -0.1869 -1.3514
 3938TIP3    H233306   6.241   2.730  16.472 -1.7274  2.2133  1.3195
 3939TIP3   OH233307   2.540   0.840   5.084  0.6984  0.1691 -0.5512
 3939TIP3    H133308   2.624   0.825   5.127  1.3387  0.6372 -1.5849
 3939TIP3    H233309   2.563   0.855   4.992 -0.4752  0.7271 -0.7759
 3940TIP3   OH233310   6.520   2.119   4.991 -0.3733  0.0559 -0.2467
 3940TIP3    H133311   6.540   2.131   4.898  0.0289 -1.2073 -0.3313
 3940TIP3    H233312   6.604   2.132   5.035 -0.2580 -0.8340 -0.1988
 3941TIP3   OH233313   1.721   4.104  16.702 -0.3926 -0.4731 -0.1634
 3941TIP3    H133314   1.811   4.122  16.675 -0.3814 -0.4885 -0.1358
 3941TIP3    H233315   1.728   4.032  16.764 -0.5618 -1.5845 -1.3878
 3942TIP3   OH233316   3.864   0.349  16.465 -0.2969  0.0188  0.0024
 3942TIP3    H133317   3.933   0.406  16.499 -1.5317  1.0067  0.9666
 3942TIP3    H233318   3.786   0.374  16.514 -1.1752 -1.6291 -0.4811
 3943TIP3   OH233319   5.536   5.992  10.840  0.1094  0.5330 -0.1880
 3943TIP3    H133320   5.462   6.042  10.806 -0.7018  1.0355  2.1638
 3943TIP3    H233321   5.613   6.033  10.800 -0.8208 -0.4679 -3.2612
 3944TIP3   OH233322   1.962   5.960  12.076  0.9336 -0.1784  0.1946
 3944TIP3    H133323   1.973   6.052  12.050  1.5656  0.1808  1.6186
 3944TIP3    H233324   1.892   5.928  12.019  0.5705  1.2317 -0.2162
 3945TIP3   OH233325   2.130   4.564   1.295  0.2674  0.2301  0.3498
 3945TIP3    H133326   2.076   4.626   1.245  0.9209  0.7593  0.2866
 3945TIP3    H233327   2.184   4.521   1.229  1.6497  1.4412  0.6357
 3946TIP3   OH233328   5.924   3.694   4.298  0.3556 -0.0191 -0.3416
 3946TIP3    H133329   5.948   3.670   4.209  2.1114  0.6191 -0.0773
 3946TIP3    H233330   6.005   3.727   4.337 -0.7031  1.1292  1.0221
 3947TIP3   OH233331   3.396   2.050  11.100 -0.4544  0.1741  0.1756
 3947TIP3    H133332   3.474   2.095  11.067 -1.1482  1.2861 -0.0092
 3947TIP3    H233333   3.400   1.963  11.060  1.3262 -0.2483  1.1428
 3948TIP3   OH233334   4.390   5.450   2.978 -0.6178  0.0283 -0.4977
 3948TIP3    H133335   4.408   5.414   3.065  0.5099  1.0868 -0.2500
 3948TIP3    H233336   4.393   5.375   2.919 -0.1491 -0.5415  0.2268
 3949TIP3   OH233337   3.785   0.892   3.147  0.1784 -0.2189  0.2397
 3949TIP3    H133338   3.841   0.844   3.086 -0.0818  0.3859 -0.4925
 3949TIP3    H233339   3.702   0.845   3.145 -1.1866  1.9822 -2.9708
 3950TIP3   OH233340   5.631   6.445   2.197  0.5497  0.0134  0.3130
 3950TIP3    H133341   5.620   6.536   2.167  0.2527 -0.2536 -0.4109
 3950TIP3    H233342   5.684   6.404   2.128 -0.7329 -0.8005 -0.2212
 3951TIP3   OH233343   5.994   2.652  11.487 -0.0160 -0.0897  0.1722
 3951TIP3    H133344   5.975   2.663  11.580 -0.6050  0.7325 -0.0304
 3951TIP3    H233345   5.984   2.740  11.450 -1.8626 -0.7412 -1.0218
 3952TIP3   OH233346   4.232   5.448   3.813  0.1725  0.0359  0.6441
 3952TIP3    H133347   4.191   5.403   3.739 -1.5167  0.6964  1.1313
 3952TIP3    H233348   4.261   5.377   3.871  2.9349 -0.5428 -1.3001
 3953TIP3   OH233349   0.348   1.378  14.302 -0.2664 -0.1473 -0.0723
 3953TIP3    H133350   0.398   1.428  14.237  0.6951 -1.1144 -0.1054
 3953TIP3    H233351   0.415   1.332  14.353 -1.1129 -1.6497 -0.2556
 3954TIP3   OH233352   1.957   3.545  13.638 -0.2607 -0.3449 -0.1478
 3954TIP3    H133353   1.941   3.631  13.676  1.3836 -0.5030  1.0163
 3954TIP3    H233354   2.052   3.534  13.643 -0.0602 -0.9227 -3.2315
 3955TIP3   OH233355   2.371   3.287  13.672  0.0885 -0.1872 -0.3088
 3955TIP3    H133356   2.308   3.277  13.600 -0.0887  0.8254 -0.3158
 3955TIP3    H233357   2.317   3.284  13.751  0.5339 -3.7765 -0.0005
 3956TIP3   OH233358   0.770   0.386  12.584  0.4436  0.5496 -0.3861
 3956TIP3    H133359   0.686   0.371  12.628  1.7639  0.3830  2.2967
 3956TIP3    H233360   0.792   0.477  12.604  1.1360  0.4471 -0.6551
 3957TIP3   OH233361   6.221   3.354  13.476 -0.6338 -0.5480 -0.1558
 3957TIP3    H133362   6.188   3.443  13.464  1.4561  0.4286  0.7886
 3957TIP3    H233363   6.143   3.301  13.489 -1.9702  1.0251 -1.3572
 3958TIP3   OH233364   2.480   2.042  13.122  0.2503 -0.5397 -0.9774
 3958TIP3    H133365   2.494   2.038  13.028 -0.9062  2.8041 -1.4325
 3958TIP3    H233366   2.563   2.075  13.158 -0.5468  2.3467 -1.4899
 3959TIP3   OH233367   3.359   4.336   2.075  0.3138  0.2650  0.1371
 3959TIP3    H133368   3.325   4.257   2.118  2.1137 -0.0280  1.1097
 3959TIP3    H233369   3.343   4.407   2.137 -1.4155  0.7409 -0.7898
 3960TIP3   OH233370   3.278   5.844   6.172 -0.1873  0.2085 -0.7173
 3960TIP3    H133371   3.242   5.931   6.190 -0.0252  0.2770 -0.7331
 3960TIP3    H233372   3.202   5.794   6.140 -0.9567 -0.4701  1.8995
 3961TIP3   OH233373   2.997   1.456  15.491 -0.1484 -0.4242  0.6364
 3961TIP3    H133374   3.012   1.482  15.400  0.8189 -1.8370  0.3638
 3961TIP3    H233375   3.076   1.486  15.537 -0.2601 -0.4545  0.8472
 3962TIP3   OH233376   5.342   1.546   1.797 -0.4091  0.4047 -0.4704
 3962TIP3    H133377   5.354   1.588   1.712 -0.8007  1.5727  0.0368
 3962TIP3    H233378   5.296   1.611   1.850  1.9042  0.6326  1.3866
 3963TIP3   OH233379   6.085   0.219   4.199 -0.2567 -0.6710 -0.3629
 3963TIP3    H133380   6.005   0.265   4.226  0.4051 -0.2913  1.0284
 3963TIP3    H233381   6.074   0.206   4.105 -1.7857 -0.2887 -0.2679
 3964TIP3   OH233382   3.347   3.221  12.054 -0.0031 -0.8550 -0.3157
 3964TIP3    H133383   3.416   3.180  12.001 -1.3111 -0.3979 -2.4835
 3964TIP3    H233384   3.376   3.208  12.144  3.5138  0.3418 -1.1061
 3965TIP3   OH233385   5.666   1.406   6.418  0.2690  0.5439  0.0250
 3965TIP3    H133386   5.697   1.487   6.377 -0.0634  1.3001  1.2046
 3965TIP3    H233387   5.721   1.397   6.497 -0.2284  0.0475  0.3186
 3966TIP3   OH233388   2.745   3.206   5.289  0.2095  0.4119  0.3394
 3966TIP3    H133389   2.667   3.223   5.342 -0.9569 -0.3418 -1.0517
 3966TIP3    H233390   2.795   3.287   5.294 -0.7298  0.9793  1.1435
 3967TIP3   OH233391   3.800   2.203  10.864 -0.1878 -0.1252  0.3776
 3967TIP3    H133392   3.821   2.159  10.782 -0.0245 -1.2831  1.0141
 3967TIP3    H233393   3.881   2.249  10.888 -0.6364  1.3038 -0.7436
 3968TIP3   OH233394   5.544   0.155  15.395  0.4703  0.6012  0.2954
 3968TIP3    H133395   5.555   0.062  15.374  0.1763  0.4273  0.8827
 3968TIP3    H233396   5.512   0.194  15.314  1.4764  0.3727 -0.2348
 3969TIP3   OH233397   2.805   0.878  12.393 -0.1480 -0.0764  0.4873
 3969TIP3    H133398   2.872   0.810  12.381 -0.8584 -0.9138  1.0915
 3969TIP3    H233399   2.724   0.836  12.366 -0.8508 -0.0366  2.3829
 3970TIP3   OH233400   6.488   0.466   6.291  0.0066 -0.1852  0.0709
 3970TIP3    H133401   6.426   0.529   6.325  0.8997  0.7023  0.1124
 3970TIP3    H233402   6.570   0.515   6.282  0.1980 -0.7608 -1.9170
 3971TIP3   OH233403   6.142   2.864  11.028 -0.2577 -0.1011  0.1000
 3971TIP3    H133404   6.138   2.859  10.932 -2.1006  2.1365 -0.0229
 3971TIP3    H233405   6.124   2.956  11.048 -0.7671 -0.6788  2.6359
 3972TIP3   OH233406   6.161   0.537  13.934  0.3854 -0.3483 -0.0391
 3972TIP3    H133407   6.117   0.490  14.005 -1.3870  1.1988 -0.0185
 3972TIP3    H233408   6.119   0.504  13.854  0.9065 -0.5809 -0.2224
 3973TIP3   OH233409   5.850   5.613  11.065  0.3059 -0.0941 -0.2532
 3973TIP3    H133410   5.937   5.653  11.055  0.4456  0.0708  1.3354
 3973TIP3    H233411   5.797   5.653  10.996  1.6586 -0.7116 -1.6901
 3974TIP3   OH233412   3.944   5.103   0.311  0.4602  0.3433  0.3949
 3974TIP3    H133413   4.015   5.052   0.353 -0.0629 -0.6856  0.0682
 3974TIP3    H233414   3.930   5.059   0.227 -0.6336  0.4662  0.4980
 3975TIP3   OH233415   4.437   5.803  13.181  0.2909  0.4092 -0.2358
 3975TIP3    H133416   4.492   5.731  13.212  1.5210  1.8341  1.0687
 3975TIP3    H233417   4.358   5.761  13.148  0.3560 -1.4595  1.7996
 3976TIP3   OH233418   5.507   3.657   0.673 -0.1132 -0.2475  0.4902
 3976TIP3    H133419   5.443   3.607   0.724 -2.9525  0.6425 -1.8485
 3976TIP3    H233420   5.523   3.602   0.596  0.1125  0.5872 -0.0636
 3977TIP3   OH233421   0.286   3.226   0.334 -0.5801 -0.0991 -0.5788
 3977TIP3    H133422   0.366   3.183   0.302 -0.4951 -0.2899 -0.1147
 3977TIP3    H233423   0.232   3.155   0.368 -0.7650  0.0793 -0.4973
 3978TIP3   OH233424   1.596   5.327   4.003  0.0228 -0.6109 -0.1728
 3978TIP3    H133425   1.553   5.407   3.972  1.0337 -0.1586 -0.4574
 3978TIP3    H233426   1.553   5.307   4.086  0.9897  1.2931  0.8546
 3979TIP3   OH233427   3.551   5.356   6.691 -0.6475 -0.3327 -0.0739
 3979TIP3    H133428   3.646   5.357   6.703 -0.7189 -1.2426  0.6416
 3979TIP3    H233429   3.531   5.267   6.663 -1.4245 -0.5126  0.9848
 3980TIP3   OH233430   6.166   1.102   0.682 -0.3820  0.0001 -0.1847
 3980TIP3    H133431   6.193   1.011   0.674 -1.0536 -0.2911  0.6502
 3980TIP3    H233432   6.124   1.122   0.598  0.8787 -0.0557 -0.8434
 3981TIP3   OH233433   4.440   6.081  12.130 -0.1385  0.3361  0.3459
 3981TIP3    H133434   4.531   6.108  12.128  0.0020 -0.1113 -2.1094
 3981TIP3    H233435   4.439   5.994  12.089 -1.6294  0.2540  0.4742
 3982TIP3   OH233436   6.398   3.139  12.619 -0.3395  0.2464 -0.4434
 3982TIP3    H133437   6.447   3.102  12.545  0.5888  0.9300 -0.1804
 3982TIP3    H233438   6.461   3.144  12.690 -0.7803  1.1344 -0.0966
 3983TIP3   OH233439   2.801   1.124  11.903  0.1524  0.0508 -0.4931
 3983TIP3    H133440   2.716   1.142  11.863  0.7075  0.7413 -1.4026
 3983TIP3    H233441   2.782   1.115  11.996 -0.9195  0.1792 -0.6867
 3984TIP3   OH233442   6.185   4.416   0.123  0.3914  0.6850  0.0412
 3984TIP3    H133443   6.099   4.395   0.160  0.7604  2.5880  2.2504
 3984TIP3    H233444   6.231   4.332   0.120 -1.2117 -0.2162 -0.2907
 3985TIP3   OH233445   2.370   0.274   0.020 -0.0091 -0.0691  0.0140
 3985TIP3    H133446   2.461   0.284   0.048  0.4907  0.6807 -1.7248
 3985TIP3    H233447   2.371   0.301  -0.072 -2.6560  3.3375  0.8405
 3986TIP3   OH233448   3.801   4.748  13.428 -0.4796 -0.2687  0.3326
 3986TIP3    H133449   3.877   4.785  13.473  1.9820 -3.3205 -0.9731
 3986TIP3    H233450   3.763   4.685  13.489  0.6297 -1.7319 -0.4235
 3987TIP3   OH233451   6.423   6.615  15.295  0.2022 -0.1209  0.0522
 3987TIP3    H133452   6.450   6.576  15.378  1.1908  0.6664  0.1241
 3987TIP3    H233453   6.413   6.541  15.235 -0.0932 -0.6557  0.7561
 3988TIP3   OH233454   6.614   4.467  13.394 -0.0513  0.1609 -0.4667
 3988TIP3    H133455   6.559   4.439  13.321  0.3169  1.0860 -1.1300
 3988TIP3    H233456   6.682   4.521  13.353  1.1478 -0.6504  0.3614
 3989TIP3   OH233457   1.632   3.957   3.797  0.9757 -0.6258 -0.1299
 3989TIP3    H133458   1.586   3.955   3.713  0.4563  0.7839  0.1001
 3989TIP3    H233459   1.571   3.919   3.859  0.7062 -0.1522 -0.1011
 3990TIP3   OH233460   1.946   2.037   5.800  0.3863 -0.1370 -0.2500
 3990TIP3    H133461   2.026   1.990   5.825 -0.4114 -0.3837  2.0876
 3990TIP3    H233462   1.967   2.129   5.819  0.3436 -0.1186 -0.2937
 3991TIP3   OH233463   0.187   6.621  15.245  1.0585  0.0233 -0.6538
 3991TIP3    H133464   0.223   6.680  15.179  1.8322  0.0315 -0.2449
 3991TIP3    H233465   0.186   6.674  15.325 -0.1154  0.0978 -0.7020
 3992TIP3   OH233466   0.530   1.278   4.472  0.0717  0.5963  0.4907
 3992TIP3    H133467   0.475   1.268   4.395  0.3240 -1.9500  0.5750
 3992TIP3    H233468   0.608   1.323   4.440 -0.6296  1.2780 -0.3110
 3993TIP3   OH233469   5.196   5.202   5.710 -0.2577 -0.2886  0.2693
 3993TIP3    H133470   5.152   5.119   5.691  1.8423 -1.6550  0.9944
 3993TIP3    H233471   5.239   5.187   5.794  1.0679  1.1514 -0.1111
 3994TIP3   OH233472   6.471   3.873  13.913 -0.0380 -0.3391 -0.9108
 3994TIP3    H133473   6.547   3.916  13.952  0.9737 -1.7029 -1.2875
 3994TIP3    H233474   6.454   3.799  13.970 -1.8607  0.6075 -0.1743
 3995TIP3   OH233475   1.982   6.306   6.079 -0.0758  0.3765 -0.1902
 3995TIP3    H133476   2.007   6.330   6.168  1.0284 -1.0681 -0.0821
 3995TIP3    H233477   1.925   6.229   6.091  0.1023  0.1610 -0.7380
 3996TIP3   OH233478   6.248   2.722  16.657 -0.5546 -0.8077  0.1709
 3996TIP3    H133479   6.229   2.780  16.731 -1.5445 -1.2452  0.2845
 3996TIP3    H233480   6.203   2.640  16.679 -1.4284 -0.7316 -1.2102
 3997TIP3   OH233481   4.384   5.529  11.726 -0.3446 -0.3966 -0.3134
 3997TIP3    H133482   4.319   5.526  11.796 -0.9348 -0.3323 -0.8465
 3997TIP3    H233483   4.373   5.446  11.680  1.1192 -1.1432  0.5981
 3998TIP3   OH233484   6.140   4.323  13.002 -0.4951  0.3338 -0.1050
 3998TIP3    H133485   6.061   4.273  12.987  1.5183 -2.6354 -1.9093
 3998TIP3    H233486   6.173   4.343  12.914  1.3654  0.3583  0.5382
 3999TIP3   OH233487   6.664   6.328  12.646  0.4725  0.4353 -0.3141
 3999TIP3    H133488   6.594   6.299  12.588  0.7723  1.0254 -0.9954
 3999TIP3    H233489   6.709   6.397  12.596  0.7056  0.9965  0.6408
 4000TIP3   OH233490   2.575   1.373   2.051 -0.0100 -0.0247  0.2438
 4000TIP3    H133491   2.504   1.429   2.020  0.8688 -0.1253 -2.1354
 4000TIP3    H233492   2.624   1.428   2.112 -0.6004  0.9572 -0.1410
 4001TIP3   OH233493   1.725   3.117   2.196  0.3707 -0.0023  0.7319
 4001TIP3    H133494   1.672   3.180   2.244  1.0207 -0.3467  1.9220
 4001TIP3    H233495   1.804   3.166   2.171 -1.3487  1.2502 -3.1095
 4002TIP3   OH233496   5.877   0.116   5.485  0.6147 -0.3508 -0.8791
 4002TIP3    H133497   5.943   0.100   5.552 -1.0660 -2.7324  0.3527
 4002TIP3    H233498   5.920   0.176   5.424  4.2790 -2.4849 -0.7175
 4003TIP3   OH233499   3.664   5.698  15.205 -0.0543 -0.4980 -0.2154
 4003TIP3    H133500   3.710   5.624  15.246  0.7665  0.2461  0.2538
 4003TIP3    H233501   3.677   5.684  15.111  0.6552 -0.6151 -0.1112
 4004TIP3   OH233502   2.376   4.034  11.728  0.2363  0.0777  0.3346
 4004TIP3    H133503   2.392   3.941  11.714  2.3494  0.2903  1.0926
 4004TIP3    H233504   2.409   4.076  11.648 -0.2625  0.2429  0.2069
 4005TIP3   OH233505   2.742   2.972  15.812 -0.2824 -0.7513 -0.1863
 4005TIP3    H133506   2.732   2.903  15.746 -0.6470 -0.9526  0.0808
 4005TIP3    H233507   2.666   3.028  15.800 -0.3006 -0.7368  0.0059
 4006TIP3   OH233508   6.163   5.478  11.734 -0.0242 -0.0393 -0.1053
 4006TIP3    H133509   6.226   5.491  11.663 -0.1818 -2.0746 -0.6717
 4006TIP3    H233510   6.213   5.431  11.802 -0.5405 -0.3983  0.0323
 4007TIP3   OH233511   0.155   0.936  12.495  0.2636  0.2950  0.2112
 4007TIP3    H133512   0.248   0.931  12.470 -0.1029 -3.3252 -1.1299
 4007TIP3    H233513   0.116   0.996  12.431  1.4126  0.6431 -0.1939
 4008TIP3   OH233514   6.606   0.363   0.369  0.4000  0.3413 -0.4244
 4008TIP3    H133515   6.604   0.404   0.455 -1.8164  1.5203 -0.9788
 4008TIP3    H233516   6.692   0.386   0.334  0.8749  0.8356  0.9708
 4009TIP3   OH233517   4.319   2.321  16.409 -0.3296  0.0777 -0.7358
 4009TIP3    H133518   4.364   2.393  16.364  0.8954 -0.7703 -0.9038
 4009TIP3    H233519   4.382   2.249  16.410 -0.9924 -0.5360  0.7295
 4010TIP3   OH233520   5.103   0.424   4.537  0.3735  0.2105 -0.0301
 4010TIP3    H133521   5.035   0.484   4.566  0.1144  0.7015 -1.5956
 4010TIP3    H233522   5.093   0.348   4.594 -1.3739  0.3367 -0.1225
 4011TIP3   OH233523   5.464   3.833   2.542  0.6163 -0.3722  0.0929
 4011TIP3    H133524   5.395   3.872   2.487  0.5079 -2.5882 -1.4900
 4011TIP3    H233525   5.432   3.745   2.561  3.0350 -1.5444 -0.8441
 4012TIP3   OH233526   1.611   1.758  16.282 -0.3312 -0.7390  0.4451
 4012TIP3    H133527   1.703   1.769  16.256 -0.3695  1.2670  1.0037
 4012TIP3    H233528   1.614   1.704  16.360  0.4380 -0.2035  0.7974
 4013TIP3   OH233529   3.437   0.227  10.906  0.2007 -0.0196 -0.2124
 4013TIP3    H133530   3.406   0.222  10.996 -0.3178 -0.2464 -0.3977
 4013TIP3    H233531   3.492   0.150  10.894  0.6282  0.2409  0.0367
 4014TIP3   OH233532   2.380   3.012  11.531  0.0381 -0.7407  0.2389
 4014TIP3    H133533   2.304   3.049  11.485  2.1477  3.8217 -0.0949
 4014TIP3    H233534   2.417   2.949  11.468 -2.0184 -1.2544 -0.5475
 4015TIP3   OH233535   2.506   6.730   3.935 -0.5802 -0.1807 -0.3216
 4015TIP3    H133536   2.429   6.782   3.910  0.1553  1.5674  0.8512
 4015TIP3    H233537   2.580   6.777   3.896  0.0233 -0.9676 -0.1469
 4016TIP3   OH233538   5.948   4.887  16.357  0.0885 -0.5299 -0.1329
 4016TIP3    H133539   5.891   4.817  16.388  0.2899 -0.9199 -0.6346
 4016TIP3    H233540   5.987   4.922  16.437 -0.9644 -0.1467  0.2336
 4017TIP3   OH233541   1.846   5.082   3.593 -0.3554 -0.4269 -0.2182
 4017TIP3    H133542   1.824   4.997   3.630 -0.6619  0.5745  2.0540
 4017TIP3    H233543   1.763   5.114   3.556 -0.6415 -0.4070  0.4321
 4018TIP3   OH233544   5.697   4.297  14.490 -0.0700  0.5676  0.5624
 4018TIP3    H133545   5.752   4.234  14.444  1.8970  2.5748 -0.0000
 4018TIP3    H233546   5.613   4.293  14.445  0.0077 -1.5463  0.5070
 4019TIP3   OH233547   2.201   2.469  17.005 -0.0114 -0.3856  0.5256
 4019TIP3    H133548   2.278   2.454  17.060  0.6083  2.1470  0.4686
 4019TIP3    H233549   2.126   2.450  17.062  0.6299 -1.5458  0.9999
 4020TIP3   OH233550   4.846   4.461   2.561 -0.1099 -0.4300 -0.7972
 4020TIP3    H133551   4.935   4.447   2.595  0.4524 -0.2993 -2.1578
 4020TIP3    H233552   4.857   4.525   2.491 -1.4597  0.4429 -0.2569
 4021TIP3   OH233553   1.034   2.985  12.261 -0.2052 -0.2124 -0.4752
 4021TIP3    H133554   1.013   2.917  12.324  0.4810 -0.6502 -0.7125
 4021TIP3    H233555   1.012   3.067  12.306 -0.3550 -0.5519  0.0784
 4022TIP3   OH233556   0.493   2.103  15.665  0.1434  0.4120  0.2513
 4022TIP3    H133557   0.557   2.073  15.601  0.3275  0.2879  0.4928
 4022TIP3    H233558   0.437   2.026  15.681 -0.3818  0.6600 -0.3355
 4023TIP3   OH233559   6.748   5.046   1.586 -0.2851  0.0133  0.3973
 4023TIP3    H133560   6.817   4.986   1.556  0.2899  1.2301 -0.7783
 4023TIP3    H233561   6.686   5.049   1.513  0.1526  1.5260  0.0659
 4024TIP3   OH233562   5.807   2.960   1.369 -0.1647 -0.2528 -0.6441
 4024TIP3    H133563   5.870   3.004   1.313 -0.2192 -0.2052 -0.6671
 4024TIP3    H233564   5.796   3.018   1.444  0.8962 -0.9065  0.0533
 4025TIP3   OH233565   1.319   5.170   5.089 -0.1010  0.6352  0.0354
 4025TIP3    H133566   1.368   5.222   5.025  0.6272  1.6185  1.3542
 4025TIP3    H233567   1.386   5.113   5.128 -0.4906  0.2305  0.1131
 4026TIP3   OH233568   4.089   3.941  10.882 -0.0266  0.0986 -0.3026
 4026TIP3    H133569   4.000   3.910  10.869  0.4431 -1.4479 -0.0637
 4026TIP3    H233570   4.080   4.034  10.902 -1.7225 -0.3670  1.3408
 4027TIP3   OH233571   5.469   5.399  16.968 -0.8511  0.3959  0.0538
 4027TIP3    H133572   5.458   5.493  16.983 -1.5606  0.2469  0.4675
 4027TIP3    H233573   5.400   5.376  16.905 -0.6266  0.1653 -0.1108
 4028TIP3   OH233574   6.422   5.978   1.112 -0.4483 -0.5675 -0.4363
 4028TIP3    H133575   6.455   5.890   1.095  1.2046 -0.1964  0.6257
 4028TIP3    H233576   6.500   6.031   1.128 -1.2831  1.4794 -2.5235
 4029TIP3   OH233577   4.784   5.152   4.575  0.0155  0.0264  0.0750
 4029TIP3    H133578   4.826   5.182   4.494 -0.4828  0.0793 -0.1709
 4029TIP3    H233579   4.743   5.232   4.611  0.2753  0.0128  0.4036
 4030TIP3   OH233580   2.329   5.159   2.598 -0.8393 -0.6419  0.1716
 4030TIP3    H133581   2.312   5.147   2.691  0.5710 -1.1647  0.3759
 4030TIP3    H233582   2.242   5.152   2.557 -1.7565  1.5219  1.5891
 4031TIP3   OH233583   6.584   5.310   1.547  0.1868 -0.4231  0.2466
 4031TIP3    H133584   6.535   5.327   1.628  1.5393  0.3028  0.9515
 4031TIP3    H233585   6.580   5.394   1.500 -1.6559 -1.1939 -1.0764
 4032TIP3   OH233586   4.040   5.628  15.337 -0.1609  0.0270  0.6725
 4032TIP3    H133587   4.013   5.705  15.386 -1.0158 -1.0671  2.0156
 4032TIP3    H233588   3.965   5.569  15.342  0.7442 -1.2002  0.3830
 4033TIP3   OH233589   4.326   5.124   3.779 -0.0232 -0.2041  0.0005
 4033TIP3    H133590   4.388   5.184   3.738 -0.2154 -0.5448 -0.8082
 4033TIP3    H233591   4.331   5.144   3.872 -0.5891  1.5287 -0.3195
 4034TIP3   OH233592   5.066   3.643  16.414 -0.5000 -0.5931  0.1609
 4034TIP3    H133593   5.106   3.684  16.491 -2.0531 -0.9635  1.1935
 4034TIP3    H233594   5.084   3.549  16.425  0.1280 -0.5496 -0.4515
 4035TIP3   OH233595   5.072   6.345  15.757 -0.0539 -0.2944 -0.1634
 4035TIP3    H133596   4.992   6.293  15.748  0.7201 -1.3622 -1.3466
 4035TIP3    H233597   5.065   6.411  15.688 -0.8015  0.9008  1.0136
 4036TIP3   OH233598   6.689   0.483  12.810  0.6124 -0.1112 -0.9952
 4036TIP3    H133599   6.665   0.468  12.718 -3.8222  0.1186 -0.0610
 4036TIP3    H233600   6.714   0.397  12.842 -2.2965 -1.2148 -1.3917
 4037TIP3   OH233601   1.961   6.049   1.165 -0.1364 -0.0897  0.9370
 4037TIP3    H133602   1.876   6.081   1.135 -0.1416  0.1957  1.2574
 4037TIP3    H233603   1.951   5.954   1.169 -1.3257  0.0727  3.6383
 4038TIP3   OH233604   6.195   0.760   1.747  0.2228  0.0085 -0.3976
 4038TIP3    H133605   6.165   0.764   1.837  0.9811 -1.7763 -0.0163
 4038TIP3    H233606   6.288   0.736   1.753  0.1062 -0.8941 -1.6302
 4039TIP3   OH233607   6.662   1.812  16.340  0.0910  0.6854 -0.0974
 4039TIP3    H133608   6.680   1.906  16.343 -2.6260  1.2988 -0.1995
 4039TIP3    H233609   6.656   1.785  16.432 -0.0077  0.8318 -0.0605
 4040TIP3   OH233610   5.468   0.531  16.084 -0.6399 -0.1688 -0.6503
 4040TIP3    H133611   5.400   0.490  16.138  0.8364 -1.3968  0.3622
 4040TIP3    H233612   5.490   0.464  16.019 -1.0342  0.5783 -1.5799
 4041TIP3   OH233613   0.744   5.330  16.710  0.1791  0.2228  0.0202
 4041TIP3    H133614   0.797   5.367  16.639  0.7854  0.4617  0.5935
 4041TIP3    H233615   0.787   5.247  16.732 -1.5410 -1.2264 -1.7016
 4042TIP3   OH233616   4.383   4.816  14.248  0.6703  0.0219  0.6162
 4042TIP3    H133617   4.454   4.817  14.313  1.2331 -0.0115  0.0089
 4042TIP3    H233618   4.322   4.883  14.278  1.2864  0.5139  0.7907
 4043TIP3   OH233619   1.137   1.673   0.593  0.0769 -0.2398  0.5410
 4043TIP3    H133620   1.114   1.728   0.518 -1.6264 -0.1922  1.0447
 4043TIP3    H233621   1.134   1.732   0.668 -1.2800 -0.8606  1.0204
 4044TIP3   OH233622   3.788   1.665  11.037 -0.0071  0.4424  0.1165
 4044TIP3    H133623   3.871   1.640  11.077  1.5836  1.4691 -2.3504
 4044TIP3    H233624   3.778   1.758  11.056 -0.4385  0.4094  0.0824
 4045TIP3   OH233625   3.362   0.673  12.622 -0.0246  0.2518 -0.3463
 4045TIP3    H133626   3.378   0.593  12.572 -2.1599  1.6514 -3.5308
 4045TIP3    H233627   3.423   0.737  12.585  1.7343  0.2305  2.2390
 4046TIP3   OH233628   4.894   6.112   4.762  0.2949 -0.2888  0.5673
 4046TIP3    H133629   4.898   6.192   4.710  0.5885  0.9515  2.4414
 4046TIP3    H233630   4.833   6.056   4.713  1.5617  0.2504 -1.8018
 4047TIP3   OH233631   2.290   1.522   3.304  0.0352  0.4951 -0.4247
 4047TIP3    H133632   2.216   1.517   3.365 -0.4462  1.4179 -0.9067
 4047TIP3    H233633   2.249   1.538   3.219  0.7413 -0.0724 -0.8792
 4048TIP3   OH233634   2.646   1.341   0.621  0.0325 -0.1915 -0.0564
 4048TIP3    H133635   2.633   1.430   0.588 -1.1282  0.5253  2.1483
 4048TIP3    H233636   2.691   1.352   0.704 -0.0208 -1.6777  0.1994
 4049TIP3   OH233637   5.109   1.556   5.502  0.3069 -0.4416  0.2037
 4049TIP3    H133638   5.162   1.523   5.430  0.4102 -3.4415  1.5086
 4049TIP3    H233639   5.167   1.555   5.577  0.0149  2.0097  0.5536
 4050TIP3   OH233640   4.221   6.378  13.451 -0.6228  0.2128  0.0534
 4050TIP3    H133641   4.160   6.442  13.414 -0.4071  1.6461  2.0609
 4050TIP3    H233642   4.167   6.325  13.510 -0.6721 -1.1185 -1.1373
 4051TIP3   OH233643   4.790   1.900  16.054 -0.0781  0.0996  0.5396
 4051TIP3    H133644   4.729   1.875  15.985 -0.0980  0.0628  0.5699
 4051TIP3    H233645   4.877   1.882  16.017 -0.1320 -1.9039  1.2783
 4052TIP3   OH233646   2.657   2.312   1.508 -0.6396  0.1911 -0.8976
 4052TIP3    H133647   2.591   2.346   1.449 -1.1672 -0.3931 -0.6556
 4052TIP3    H233648   2.646   2.217   1.504 -0.9150  0.1508  0.3941
 4053TIP3   OH233649   2.980   3.704  16.632  0.3364 -0.4692  0.0250
 4053TIP3    H133650   2.896   3.703  16.679 -1.7102  0.3522 -3.3116
 4053TIP3    H233651   2.997   3.797  16.617  0.2710 -0.7207 -1.8282
 4054TIP3   OH233652   3.158   5.849   2.750 -0.1774 -0.3124 -0.2236
 4054TIP3    H133653   3.214   5.876   2.823  0.7026 -2.7191  0.0583
 4054TIP3    H233654   3.214   5.855   2.673  0.0914 -1.4200 -0.1310
 4055TIP3   OH233655   0.606   5.791  11.413  0.3532 -0.1863  0.6357
 4055TIP3    H133656   0.680   5.818  11.359  0.6094 -1.5186  0.2706
 4055TIP3    H233657   0.628   5.820  11.501 -0.3392  2.5653  0.0141
 4056TIP3   OH233658   4.266   4.401   2.482  0.3195 -0.3510 -0.3693
 4056TIP3    H133659   4.285   4.439   2.567  0.1664 -0.1165 -0.4382
 4056TIP3    H233660   4.198   4.337   2.498 -0.0790  0.0614 -0.3927
 4057TIP3   OH233661   2.275   0.758  15.030  0.3166  0.0944 -0.0647
 4057TIP3    H133662   2.206   0.754  14.964  0.4836  0.5420 -0.2759
 4057TIP3    H233663   2.304   0.850  15.029  0.2042  0.1489  0.7551
 4058TIP3   OH233664   4.314   1.082  16.204 -0.0509 -0.1185  0.1396
 4058TIP3    H133665   4.246   1.016  16.214 -0.9629  0.8163  0.3818
 4058TIP3    H233666   4.277   1.145  16.141 -0.0591  1.1694  1.3753
 4059TIP3   OH233667   2.385   6.017   0.126 -0.3509  0.1464 -0.4332
 4059TIP3    H133668   2.369   6.046   0.037 -2.2843 -0.9079 -0.4701
 4059TIP3    H233669   2.328   6.073   0.180 -0.9338 -0.7322 -0.1105
 4060TIP3   OH233670   4.329   6.355  15.256 -0.5244 -0.3516  0.2336
 4060TIP3    H133671   4.306   6.402  15.176 -1.6696 -0.1959  0.6513
 4060TIP3    H233672   4.246   6.342  15.302  0.3787  2.0480  2.8048
 4061TIP3   OH233673   2.789   4.374  11.832 -1.0459  0.0017 -0.1884
 4061TIP3    H133674   2.744   4.385  11.916 -2.0948  0.7743 -0.8161
 4061TIP3    H233675   2.878   4.405  11.849 -0.2677 -2.7583  1.4260
 4062TIP3   OH233676   2.017   6.624   4.209 -0.4096 -0.2727  0.1929
 4062TIP3    H133677   2.013   6.578   4.125  1.7272 -0.9327  0.3770
 4062TIP3    H233678   1.983   6.712   4.191  0.7299 -0.1527 -1.5732
 4063TIP3   OH233679   4.021   3.012  15.890  0.2449  0.6263 -0.0239
 4063TIP3    H133680   4.016   2.966  15.974  0.7385  1.5820  0.5467
 4063TIP3    H233681   4.110   2.994  15.859  0.0427  0.2256 -0.3750
 4064TIP3   OH233682   1.232   4.445  15.252 -0.0891 -0.2406  0.0306
 4064TIP3    H133683   1.305   4.503  15.274  0.5047 -0.8889 -0.1615
 4064TIP3    H233684   1.244   4.427  15.159  1.0163 -2.3470  0.5102
 4065TIP3   OH233685   1.303   5.180  11.207 -0.3640 -0.3318 -0.1567
 4065TIP3    H133686   1.340   5.234  11.137 -0.0599 -0.7990 -0.3587
 4065TIP3    H233687   1.357   5.199  11.283  0.6632 -1.4260 -0.5873
 4066TIP3   OH233688   0.228   4.221  17.182 -0.0261  0.2395 -0.1547
 4066TIP3    H133689   0.288   4.285  17.222  0.0373  0.4351 -0.5546
 4066TIP3    H233690   0.233   4.145  17.240  1.3696 -0.1213 -0.7029
 4067TIP3   OH233691   2.308   2.940  12.097  0.0035  0.5070 -0.1179
 4067TIP3    H133692   2.333   3.000  12.167  0.2079  0.4771 -0.1646
 4067TIP3    H233693   2.299   2.995  12.019 -0.3888  0.5654 -0.0323
 4068TIP3   OH233694   4.766   6.679   3.671 -0.3213 -0.3773 -0.0415
 4068TIP3    H133695   4.808   6.683   3.757  0.7256  1.8571 -0.5786
 4068TIP3    H233696   4.809   6.606   3.626  0.9884  0.0727  0.4412
 4069TIP3   OH233697   6.170   2.911  15.635  0.7199  0.3787  0.6477
 4069TIP3    H133698   6.100   2.957  15.682 -2.3741 -0.8812 -2.3114
 4069TIP3    H233699   6.207   2.977  15.576  0.1865  0.4446  0.3817
 4070TIP3   OH233700   1.225   2.546  12.129  0.1864 -0.1303 -0.3844
 4070TIP3    H133701   1.295   2.480  12.122  1.9220  1.5358  0.3955
 4070TIP3    H233702   1.228   2.592  12.045 -1.4021 -1.3096 -1.1513
 4071TIP3   OH233703   5.692   5.371  14.253  0.3493 -0.3663 -0.0807
 4071TIP3    H133704   5.598   5.364  14.266  0.0391 -1.5908 -2.5014
 4071TIP3    H233705   5.729   5.342  14.337 -1.4108 -0.6043  0.6619
 4072TIP3   OH233706   2.266   4.153   6.334 -0.0938 -0.3142 -0.2206
 4072TIP3    H133707   2.199   4.131   6.398 -0.2214  2.1503  0.5600
 4072TIP3    H233708   2.347   4.120   6.372 -0.0934  1.5303  1.5246
 4073TIP3   OH233709   4.877   0.687  11.828 -0.0978  0.1264 -0.1815
 4073TIP3    H133710   4.923   0.606  11.805  1.6906  1.0763 -0.0304
 4073TIP3    H233711   4.843   0.671  11.916  1.6495  0.0915  0.5225
 4074TIP3   OH233712   5.612   3.671  11.485 -0.2525 -0.2892  0.3076
 4074TIP3    H133713   5.689   3.695  11.435 -0.0891 -1.0009  0.2142
 4074TIP3    H233714   5.627   3.580  11.512 -0.9144 -0.3387  0.5455
 4075TIP3   OH233715   6.447   0.409  10.667 -0.1180 -0.0442 -0.2281
 4075TIP3    H133716   6.530   0.379  10.632  0.2769  1.1654 -0.3947
 4075TIP3    H233717   6.445   0.503  10.646 -1.5657 -0.0756 -0.3068
 4076TIP3   OH233718   4.971   2.538  13.978  0.5916  0.6341  0.3255
 4076TIP3    H133719   5.043   2.584  14.019  0.5885  1.4412 -0.5636
 4076TIP3    H233720   4.976   2.449  14.015  0.6971  1.2648  1.9183
 4077TIP3   OH233721   4.361   4.618   6.586  0.3689 -0.3889 -0.1187
 4077TIP3    H133722   4.336   4.574   6.666  2.1362  0.2263  0.8384
 4077TIP3    H233723   4.446   4.580   6.562  0.4071  0.2240 -1.0548
 4078TIP3   OH233724   3.329   1.498   3.647 -0.1520  0.0436 -0.4695
 4078TIP3    H133725   3.390   1.465   3.581 -0.9124 -1.6521 -0.3679
 4078TIP3    H233726   3.380   1.563   3.696  1.9639 -2.0614  0.2881
 4079TIP3   OH233727   0.799   1.194  13.741 -0.3641  0.0798 -0.7034
 4079TIP3    H133728   0.725   1.144  13.775  0.3173 -0.1035  0.5578
 4079TIP3    H233729   0.780   1.285  13.764 -0.1281  0.0137 -0.2419
 4080TIP3   OH233730   5.890   3.873   5.200 -0.1831  0.3999  0.0915
 4080TIP3    H133731   5.944   3.862   5.122 -1.9216 -0.2577 -1.0770
 4080TIP3    H233732   5.838   3.951   5.182  0.2319  0.9209  1.1174
 4081TIP3   OH233733   2.722   4.065  14.323 -0.4595  0.1184 -0.7486
 4081TIP3    H133734   2.718   4.019  14.239  1.0767  0.7165 -1.1866
 4081TIP3    H233735   2.795   4.127  14.313 -0.7516  0.7564  0.7569
 4082TIP3   OH233736   2.203   0.397   1.024  0.2869 -0.0736 -0.0526
 4082TIP3    H133737   2.264   0.365   0.958  0.5673 -0.8493  0.5622
 4082TIP3    H233738   2.135   0.442   0.974  0.4341 -0.7415 -0.8815
 4083TIP3   OH233739   4.782   4.831  14.685  0.2895  0.2274  0.3625
 4083TIP3    H133740   4.816   4.748  14.652  1.2316  0.6697  0.1733
 4083TIP3    H233741   4.778   4.819  14.780  1.4592  0.3177  0.4359
 4084TIP3   OH233742   2.960   0.273  16.767  0.2009  0.0006 -0.1386
 4084TIP3    H133743   2.997   0.185  16.762  1.7917  0.6079  0.5818
 4084TIP3    H233744   2.988   0.315  16.685 -2.1071 -0.6797 -1.3806
 4085TIP3   OH233745   5.200   3.976  14.584  0.0686 -0.3268 -0.1276
 4085TIP3    H133746   5.116   3.950  14.623  0.1376  0.1797  0.3657
 4085TIP3    H233747   5.262   3.974  14.657  0.5189 -0.8229 -0.5139
 4086TIP3   OH233748   3.274   6.801  12.731 -0.6290 -0.0286  0.2839
 4086TIP3    H133749   3.275   6.725  12.673 -1.0826  0.6183 -0.5965
 4086TIP3    H233750   3.308   6.873  12.678  2.1086 -0.0592  1.8254
 4087TIP3   OH233751   1.833   2.996   3.318  0.1507  0.3936  0.2109
 4087TIP3    H133752   1.837   3.085   3.351 -1.8060  0.0337  1.5933
 4087TIP3    H233753   1.741   2.971   3.326  0.6233 -1.7150 -0.2120
 4088TIP3   OH233754   0.827   5.661  16.865 -0.3201 -0.4249  0.2475
 4088TIP3    H133755   0.889   5.588  16.865  1.0109  0.6524  1.1355
 4088TIP3    H233756   0.816   5.683  16.772  2.0902  0.4802  0.0940
 4089TIP3   OH233757   2.177   0.330   4.541 -0.2505 -0.0132  0.2131
 4089TIP3    H133758   2.181   0.362   4.631  1.8413  0.9606 -0.1665
 4089TIP3    H233759   2.085   0.341   4.515 -1.4586 -2.4289  2.8830
 4090TIP3   OH233760   5.554   1.037   5.391  0.5075 -0.3536  0.1824
 4090TIP3    H133761   5.614   0.983   5.340  0.4891  1.2146 -1.6198
 4090TIP3    H233762   5.475   0.984   5.399  0.7572 -0.9148 -0.8548
 4091TIP3   OH233763   4.493   2.373  16.020 -0.4119 -0.0468  0.3056
 4091TIP3    H133764   4.418   2.316  16.039  0.3598 -0.8989  0.8839
 4091TIP3    H233765   4.516   2.410  16.106 -1.0726  1.3891 -0.1000
 4092TIP3   OH233766   2.886   5.598   1.895 -0.2468 -0.0292  0.1964
 4092TIP3    H133767   2.907   5.675   1.842  0.3682 -0.8146 -0.7331
 4092TIP3    H233768   2.805   5.622   1.940 -0.1976  1.0714 -0.2566
 4093TIP3   OH233769   0.853   5.003  13.924 -0.1972 -0.1383 -0.0067
 4093TIP3    H133770   0.773   4.976  13.880  0.0645 -1.8646  0.4844
 4093TIP3    H233771   0.890   4.922  13.959  1.4407  0.6965  0.3281
 4094TIP3   OH233772   3.713   0.747  12.070 -0.5564 -0.3753 -0.8703
 4094TIP3    H133773   3.625   0.775  12.048 -0.6030  0.8634  0.7622
 4094TIP3    H233774   3.770   0.805  12.020 -0.6638 -0.1371 -0.7155
 4095TIP3   OH233775   5.905   2.561   2.428 -0.1575  0.6642 -0.5874
 4095TIP3    H133776   5.957   2.481   2.426 -1.1117 -0.0631  1.0810
 4095TIP3    H233777   5.851   2.557   2.349 -0.4077 -0.4974 -0.3657
 4096TIP3   OH233778   4.906   3.903  16.433 -0.5043 -0.4380 -0.7433
 4096TIP3    H133779   4.960   3.961  16.487 -1.4611  0.3460 -0.5909
 4096TIP3    H233780   4.953   3.820  16.434  0.3640  0.0295 -0.0866
 4097TIP3   OH233781   6.401   2.770   3.399  0.0803 -0.1040  0.5695
 4097TIP3    H133782   6.429   2.837   3.336 -0.7548  0.2244  0.5414
 4097TIP3    H233783   6.363   2.701   3.345 -0.5602  0.1405  0.6992
 4098TIP3   OH233784   1.667   1.617   0.656  0.4407  0.8024 -0.3001
 4098TIP3    H133785   1.672   1.635   0.750 -0.8234  2.3373 -0.4804
 4098TIP3    H233786   1.575   1.594   0.640  0.5036  1.1572 -1.2452
 4099TIP3   OH233787   2.548   4.419  17.069  0.4481 -0.1347  0.0613
 4099TIP3    H133788   2.628   4.468  17.085  0.5031 -0.4906  0.9270
 4099TIP3    H233789   2.539   4.361  17.145 -2.0573  1.7876  1.4057
 4100TIP3   OH233790   1.732   6.241  16.756 -0.6678  0.2492  0.1792
 4100TIP3    H133791   1.788   6.243  16.834  0.5440  2.0636 -0.6591
 4100TIP3    H233792   1.736   6.330  16.721 -1.6334 -0.3648 -1.6509
 4101TIP3   OH233793   5.018   4.028   2.298  0.4297 -0.1221  0.3101
 4101TIP3    H133794   4.989   4.075   2.377 -1.4869 -1.4255  0.4606
 4101TIP3    H233795   4.980   4.078   2.226 -1.6829 -1.3349  0.4739
 4102TIP3   OH233796   6.276   1.497   3.758  0.5992  0.3088 -0.1058
 4102TIP3    H133797   6.341   1.444   3.712 -0.2884  0.2697 -1.3702
 4102TIP3    H233798   6.210   1.433   3.787  1.0237  0.3658  1.0492
 4103TIP3   OH233799   6.341   0.295   5.175  0.3328 -0.2086 -0.1728
 4103TIP3    H133800   6.381   0.381   5.187 -0.4175  0.2503 -0.7743
 4103TIP3    H233801   6.394   0.235   5.226  2.4153  0.1800 -1.7586
 4104TIP3   OH233802   0.424   2.693   5.320  0.3089  0.5109  0.0324
 4104TIP3    H133803   0.443   2.701   5.227  1.3739  0.2632  0.2178
 4104TIP3    H233804   0.493   2.637   5.354 -0.3214  0.2316  0.8975
 4105TIP3   OH233805   0.609   2.859  14.593  0.2437  1.1084 -0.2619
 4105TIP3    H133806   0.633   2.882  14.683  1.4431  1.7329 -0.7248
 4105TIP3    H233807   0.519   2.889  14.585 -0.6467 -0.8477  1.3699
 4106TIP3   OH233808   6.211   6.691   3.060 -0.3769  0.1202  0.2418
 4106TIP3    H133809   6.271   6.754   3.021 -0.6756 -0.2962 -0.9110
 4106TIP3    H233810   6.129   6.702   3.012 -1.1061  0.3787  1.5090
 4107TIP3   OH233811   2.179   6.550   3.729 -0.5031  0.0380 -0.7207
 4107TIP3    H133812   2.265   6.536   3.688  1.8598 -1.2817  4.0431
 4107TIP3    H233813   2.126   6.476   3.699  0.7997 -0.4798 -1.8613
 4108TIP3   OH233814   6.556   5.680   5.253 -0.2042  0.3125  0.7220
 4108TIP3    H133815   6.521   5.591   5.263 -1.2465  0.6648  0.3263
 4108TIP3    H233816   6.639   5.668   5.208 -1.7744 -0.2655 -2.2384
 4109TIP3   OH233817   4.757   4.143  16.303 -0.1595  0.6602  0.3480
 4109TIP3    H133818   4.815   4.192  16.361 -1.2064  1.7341  0.5078
 4109TIP3    H233819   4.688   4.205  16.279 -0.6037 -0.2380 -0.7834
 4110TIP3   OH233820   0.499   6.558   6.800 -0.3216 -0.4876 -0.2559
 4110TIP3    H133821   0.521   6.470   6.831  0.2286 -0.4490 -0.5314
 4110TIP3    H233822   0.558   6.573   6.726 -1.8093 -0.7202 -1.5654
 4111TIP3   OH233823   1.834   1.739  12.953  0.2976  0.4855 -0.1761
 4111TIP3    H133824   1.818   1.758  13.045 -1.9123 -0.4847 -0.3026
 4111TIP3    H233825   1.904   1.800  12.927  1.6406  0.1472  2.3377
 4112TIP3   OH233826   4.481   0.265  15.161 -0.7140 -0.2017 -0.1805
 4112TIP3    H133827   4.460   0.180  15.199  0.3101 -0.6758 -0.6643
 4112TIP3    H233828   4.496   0.247  15.069  2.1424  0.0241  0.1696
 4113TIP3   OH233829   6.811   3.294  16.222 -0.0686  0.2775  0.1860
 4113TIP3    H133830   6.804   3.382  16.184  0.5862 -0.1706 -1.0407
 4113TIP3    H233831   6.818   3.309  16.316 -1.0783  1.4820  0.1054
 4114TIP3   OH233832   4.642   0.943  16.049 -0.0094  0.3602  0.2294
 4114TIP3    H133833   4.694   1.022  16.039  0.4583 -0.0096 -0.3552
 4114TIP3    H233834   4.692   0.875  16.004 -0.0702 -0.4213  1.2915
 4115TIP3   OH233835   4.776   4.329  11.077 -0.0862  0.6322 -0.3621
 4115TIP3    H133836   4.752   4.337  10.985  0.6698 -0.4748 -0.6873
 4115TIP3    H233837   4.850   4.388  11.088 -0.2369  0.8361 -0.4425
 4116TIP3   OH233838   4.479   3.720   0.985  0.0733  0.2875  0.0544
 4116TIP3    H133839   4.467   3.625   0.984 -0.9488  0.3966  0.2135
 4116TIP3    H233840   4.572   3.734   0.967  0.1730 -0.7319 -0.2398
 4117TIP3   OH233841   1.379   0.326  15.894 -0.1064 -0.5025  0.1153
 4117TIP3    H133842   1.451   0.323  15.832  1.1132 -0.6591  1.4775
 4117TIP3    H233843   1.318   0.389  15.858  1.1101  0.2529 -0.6743
 4118TIP3   OH233844   1.767   5.277  15.609 -0.3019  0.0787 -0.2430
 4118TIP3    H133845   1.699   5.265  15.542  0.6915 -0.4585 -1.1840
 4118TIP3    H233846   1.764   5.371  15.629 -2.0948 -0.1128  0.5997
 4119TIP3   OH233847   4.136   5.302  15.745 -0.8315  0.1846 -0.0483
 4119TIP3    H133848   4.188   5.251  15.807  2.4691  0.0644 -2.6498
 4119TIP3    H233849   4.155   5.393  15.767  0.1694  0.1444 -0.7070
 4120TIP3   OH233850   1.966   4.168   2.971 -0.0923  0.3051  0.1204
 4120TIP3    H133851   1.953   4.261   2.952 -1.6783 -0.1785 -1.4831
 4120TIP3    H233852   1.950   4.160   3.065 -1.3603  1.4610  0.0304
 4121TIP3   OH233853   0.667   5.607   5.772 -0.1960 -1.1127 -0.4159
 4121TIP3    H133854   0.747   5.583   5.817  0.3540  0.1201 -0.7057
 4121TIP3    H233855   0.651   5.534   5.711  1.1387 -1.0069 -0.9276
 4122TIP3   OH233856   5.422   2.417  14.368 -0.3086 -0.1685 -0.3115
 4122TIP3    H133857   5.421   2.352  14.439  1.0065 -0.2488 -0.3476
 4122TIP3    H233858   5.454   2.497  14.410 -1.6070  0.3900 -0.3421
 4123TIP3   OH233859   5.268   3.078  14.439 -0.2817  0.3780  0.6345
 4123TIP3    H133860   5.206   3.010  14.466 -0.9117  1.2513  1.4946
 4123TIP3    H233861   5.219   3.133  14.378 -0.7634  1.6984  2.1394
 4124TIP3   OH233862   0.811   4.623  16.425 -0.2274 -0.0624 -0.7185
 4124TIP3    H133863   0.743   4.593  16.365 -0.6131 -1.1830  0.2388
 4124TIP3    H233864   0.764   4.658  16.500  0.2444  0.1539 -0.5183
 4125TIP3   OH233865   5.838   5.374   2.065  0.0461  0.3133  0.5917
 4125TIP3    H133866   5.934   5.375   2.067  0.0677 -0.5895  0.3186
 4125TIP3    H233867   5.816   5.304   2.004 -0.7902  1.4227 -0.4288
 4126TIP3   OH233868   0.992   3.211  14.912  0.0269 -0.4489 -0.2684
 4126TIP3    H133869   0.932   3.285  14.922 -0.6584 -1.0838  0.4322
 4126TIP3    H233870   1.051   3.218  14.988  0.3566 -0.2777 -0.5352
 4127TIP3   OH233871   1.190   0.312  13.044 -0.4036 -0.4722 -0.0271
 4127TIP3    H133872   1.225   0.399  13.061 -1.9780  0.1860  0.0207
 4127TIP3    H233873   1.205   0.263  13.125  1.5416 -0.6358 -0.4584
 4128TIP3   OH233874   4.744   0.389  12.028 -0.6522 -0.0799 -0.0501
 4128TIP3    H133875   4.734   0.429  11.942 -1.0950  1.0331  0.5016
 4128TIP3    H233876   4.749   0.295  12.010  0.3161  0.1908 -1.3680
 4129TIP3   OH233877   3.531   3.295  12.501  0.1307 -0.0256 -0.3075
 4129TIP3    H133878   3.440   3.269  12.486  0.0174  0.8319 -1.1736
 4129TIP3    H233879   3.560   3.329  12.417  0.7544  1.2341  0.4004
 4130TIP3   OH233880   3.680   1.128  15.613  0.5370  0.3489 -0.8160
 4130TIP3    H133881   3.677   1.220  15.588 -2.0133  0.7978  0.7972
 4130TIP3    H233882   3.607   1.088  15.566 -0.1871 -0.1838  0.6978
 4131TIP3   OH233883   1.391   3.286  11.901  0.6507 -0.0231 -0.0523
 4131TIP3    H133884   1.379   3.301  11.807 -0.2221  0.1422  0.0740
 4131TIP3    H233885   1.302   3.286  11.936  1.0310  1.2743  0.9872
 4132TIP3   OH233886   5.298   1.262   3.513  0.4899 -0.5269 -0.2200
 4132TIP3    H133887   5.236   1.270   3.440  1.1556 -0.1823 -0.7539
 4132TIP3    H233888   5.357   1.336   3.503 -0.6221  0.7532  1.8734
 4133TIP3   OH233889   2.759   0.175  11.767  0.0834  0.7190  0.3217
 4133TIP3    H133890   2.759   0.118  11.691  2.0860  1.2692 -0.1575
 4133TIP3    H233891   2.674   0.160  11.809 -1.0914  0.4247 -2.0160
 4134TIP3   OH233892   4.514   1.119   1.155  0.0571 -0.0084  0.0012
 4134TIP3    H133893   4.466   1.199   1.178  1.3032  0.3769  1.5066
 4134TIP3    H233894   4.577   1.147   1.088  0.8559  0.4374  0.9100
 4135TIP3   OH233895   6.441   3.359   3.325  0.0166  0.2487  0.8311
 4135TIP3    H133896   6.352   3.328   3.308  0.3620 -0.3698  0.0817
 4135TIP3    H233897   6.460   3.329   3.414 -1.5510  2.8884  2.2250
 4136TIP3   OH233898   6.630   0.400  12.554 -0.2534  0.1594 -0.0234
 4136TIP3    H133899   6.702   0.422  12.496 -0.6706 -0.8811 -0.9739
 4136TIP3    H233900   6.655   0.316  12.592 -1.0020 -0.2743 -0.4633
 4137TIP3   OH233901   2.283   4.143  17.020  0.4077  0.4630  0.8281
 4137TIP3    H133902   2.262   4.170  16.930  0.9251 -0.2228  0.4939
 4137TIP3    H233903   2.372   4.108  17.014 -0.0271 -0.7735  1.3658
 4138TIP3   OH233904   1.264   1.079  11.333 -0.2924 -0.1294  0.2441
 4138TIP3    H133905   1.190   1.032  11.372 -1.5206 -0.5938 -2.4253
 4138TIP3    H233906   1.265   1.051  11.241  4.4259 -1.6979  0.4809
 4139TIP3   OH233907   2.573   2.906  14.832  0.0614  0.3803 -0.1475
 4139TIP3    H133908   2.562   2.847  14.758 -2.2209  2.0951 -1.2844
 4139TIP3    H233909   2.555   2.853  14.909  0.0585 -0.8493 -0.9757
 4140TIP3   OH233910   2.226   4.445  11.340  0.1136  0.1663  0.4631
 4140TIP3    H133911   2.209   4.455  11.434 -0.3132 -0.3207  0.4446
 4140TIP3    H233912   2.163   4.379  11.311  1.4874 -1.1235  0.2329
 4141TIP3   OH233913   3.280   1.838  15.740 -0.4315 -0.0508  0.3601
 4141TIP3    H133914   3.299   1.784  15.664 -0.4869  1.0360 -0.4510
 4141TIP3    H233915   3.300   1.928  15.712 -1.3545  0.4826  1.3046
 4142TIP3   OH233916   0.209   2.851  10.954 -0.2153  0.3445 -0.5788
 4142TIP3    H133917   0.171   2.764  10.949  0.8979 -0.4407  2.2028
 4142TIP3    H233918   0.135   2.911  10.949 -1.2806 -0.8912 -0.0561
 4143TIP3   OH233919   1.545   1.588  16.659  0.4447 -0.2698 -0.1869
 4143TIP3    H133920   1.600   1.518  16.625  0.2920  1.1490 -3.7915
 4143TIP3    H233921   1.599   1.667  16.649 -0.4777  0.5317  0.9282
 4144TIP3   OH233922   0.399   4.818  17.110 -0.2605  0.4410 -0.2137
 4144TIP3    H133923   0.304   4.814  17.113 -0.3577  1.5745 -1.0591
 4144TIP3    H233924   0.418   4.888  17.048  1.1287  0.0974 -0.2127
 4145TIP3   OH233925   3.323   1.782  10.995  0.3866  0.0250 -0.2501
 4145TIP3    H133926   3.390   1.719  10.970 -0.7925 -1.7574  0.8457
 4145TIP3    H233927   3.257   1.776  10.926 -0.5941 -1.3644  0.7532
 4146TIP3   OH233928   1.357   6.557   2.819 -0.5005  0.2629 -0.6314
 4146TIP3    H133929   1.398   6.638   2.790 -0.7905  0.6120 -0.0697
 4146TIP3    H233930   1.263   6.573   2.811 -0.5581 -0.0772 -0.6739
 4147TIP3   OH233931   1.328   4.459  11.746  0.1092 -0.1712  0.3237
 4147TIP3    H133932   1.292   4.533  11.697 -1.6528 -0.2849  1.3515
 4147TIP3    H233933   1.256   4.430  11.801  0.8957 -2.3926  0.2834
 4148TIP3   OH233934   4.558   1.061  14.695 -0.3022  0.1584 -0.4076
 4148TIP3    H133935   4.556   0.976  14.738  2.4361 -0.5361 -1.4086
 4148TIP3    H233936   4.527   1.045  14.606  0.0198  0.2180 -0.5352
 4149TIP3   OH233937   1.240   2.535  12.956  0.5987  0.9132  0.2884
 4149TIP3    H133938   1.246   2.533  12.860  0.3971  1.4079  0.2585
 4149TIP3    H233939   1.317   2.487  12.986  1.5981  2.2099 -0.1144
 4150TIP3   OH233940   0.655   5.981   3.736  0.2539  0.3221 -0.1622
 4150TIP3    H133941   0.689   5.916   3.797 -0.2717  1.0770  0.9646
 4150TIP3    H233942   0.690   6.065   3.767 -0.2543  0.7526 -0.7085
 4151TIP3   OH233943   1.957   4.635   4.399 -0.1626  0.3047 -0.6035
 4151TIP3    H133944   1.999   4.667   4.319 -0.2522  0.3108 -0.6471
 4151TIP3    H233945   1.865   4.657   4.389  0.0204  1.4908  0.0650
 4152TIP3   OH233946   4.304   0.718   1.086  0.5639  0.2472 -0.5473
 4152TIP3    H133947   4.350   0.636   1.067  0.7270  0.4895 -1.2502
 4152TIP3    H233948   4.212   0.694   1.094  0.6298 -0.0246 -0.6198
 4153TIP3   OH233949   3.387   4.145  13.287  0.0578 -0.0094 -0.6971
 4153TIP3    H133950   3.461   4.087  13.275  0.5850  0.2976  0.8704
 4153TIP3    H233951   3.424   4.223  13.329 -0.6266  1.4686 -2.6955
 4154TIP3   OH233952   0.615   2.379  11.523 -0.5260  0.5621 -0.8553
 4154TIP3    H133953   0.524   2.393  11.496  0.2713  2.4188 -2.9061
 4154TIP3    H233954   0.637   2.455  11.576 -0.5995 -0.7086  1.1007
 4155TIP3   OH233955   4.245   3.526   5.342 -0.4148 -0.3799  0.0146
 4155TIP3    H133956   4.164   3.557   5.382 -0.8693  0.4087 -1.4492
 4155TIP3    H233957   4.219   3.451   5.288 -0.0130 -0.6771  0.2236
 4156TIP3   OH233958   0.336   6.258   4.939  0.4351 -0.2989 -0.0321
 4156TIP3    H133959   0.379   6.276   5.022  0.6337  2.3483 -0.6370
 4156TIP3    H233960   0.391   6.190   4.899  2.3539  0.8535  0.5251
 4157TIP3   OH233961   4.172   4.685  10.776  0.0723 -0.4126  0.2809
 4157TIP3    H133962   4.147   4.699  10.685  2.2625  2.4007 -0.0120
 4157TIP3    H233963   4.256   4.639  10.772 -0.0042 -0.6326  0.9245
 4158TIP3   OH233964   4.758   5.879   2.040 -0.7353 -0.8509 -0.4140
 4158TIP3    H133965   4.674   5.873   1.995 -0.2118 -1.4043 -1.3556
 4158TIP3    H233966   4.786   5.789   2.052  0.0085 -0.6630 -0.6717
 4159TIP3   OH233967   5.627   0.398  16.661 -0.2681 -0.0206 -0.0042
 4159TIP3    H133968   5.570   0.448  16.601 -1.5333 -0.7341  0.5681
 4159TIP3    H233969   5.587   0.311  16.665  1.2602 -0.7640 -0.0848
 4160TIP3   OH233970   4.944   6.263  11.747  0.8262 -0.0222  0.1160
 4160TIP3    H133971   4.875   6.230  11.689  1.1805  0.2918 -0.4911
 4160TIP3    H233972   4.996   6.186  11.769  1.2270  0.0051 -0.7161
 4161TIP3   OH233973   5.792   1.955   5.295 -0.5796  0.4320  0.7559
 4161TIP3    H133974   5.826   1.869   5.272  1.1435  1.0570  0.7694
 4161TIP3    H233975   5.799   1.959   5.390 -2.8248 -0.2311  0.9943
 4162TIP3   OH233976   6.155   3.075  15.054  0.1358  0.2683 -0.3087
 4162TIP3    H133977   6.080   3.128  15.082  0.0307  0.3181 -0.6660
 4162TIP3    H233978   6.172   3.104  14.964 -0.0076 -0.3901 -0.5584
 4163TIP3   OH233979   6.816   5.364  12.573 -0.1187  0.1569 -0.1177
 4163TIP3    H133980   6.859   5.359  12.488  0.1999  2.2506 -0.1103
 4163TIP3    H233981   6.888   5.368  12.636 -0.3563 -0.8595  0.2390
 4164TIP3   OH233982   4.600   4.799   1.135 -0.5628  0.0064 -0.0977
 4164TIP3    H133983   4.665   4.815   1.204 -0.8550  0.1807  0.1414
 4164TIP3    H233984   4.579   4.706   1.144  0.2812 -0.2574 -0.7342
 4165TIP3   OH233985   4.146   2.681   3.369  0.5622  0.2043  0.1109
 4165TIP3    H133986   4.135   2.595   3.408  0.5865 -0.7660 -1.8778
 4165TIP3    H233987   4.066   2.729   3.391  0.7538 -0.1301  1.6292
 4166TIP3   OH233988   3.642   5.934   4.759  0.0514  0.2702 -0.1188
 4166TIP3    H133989   3.653   6.027   4.778 -1.7936  0.4349  0.3108
 4166TIP3    H233990   3.702   5.917   4.686  0.4735  1.7601 -0.1572
 4167TIP3   OH233991   3.839   4.748  15.976  0.6956 -0.3669  0.1512
 4167TIP3    H133992   3.765   4.775  16.030  1.9162  0.5704  1.4414
 4167TIP3    H233993   3.811   4.667  15.934 -1.4651  0.5583 -0.3097
 4168TIP3   OH233994   1.829   0.867  11.526  0.4488  0.2989 -0.1744
 4168TIP3    H133995   1.916   0.906  11.515  0.2627  0.7680 -0.0286
 4168TIP3    H233996   1.781   0.930  11.580 -0.1913  0.3635 -0.7950
 4169TIP3   OH233997   2.790   0.720  16.757 -0.0805  0.6390 -0.2363
 4169TIP3    H133998   2.729   0.786  16.791  1.9739  1.2038  2.7359
 4169TIP3    H233999   2.838   0.764  16.687 -0.8899  1.2264 -0.4291
 4170TIP3   OH234000   1.755   0.138  13.480 -0.0855 -0.5554 -0.0262
 4170TIP3    H134001   1.788   0.060  13.435 -0.5278 -0.0075 -1.3349
 4170TIP3    H234002   1.814   0.150  13.554 -1.9579 -4.1464  2.3538
 4171TIP3   OH234003   4.098   4.780  11.325 -0.4299  0.0093 -0.1994
 4171TIP3    H134004   4.003   4.784  11.313 -0.3808  1.4766 -0.2669
 4171TIP3    H234005   4.111   4.706  11.385 -1.9417  1.7552  2.5305
 4172TIP3   OH234006   3.874   5.880  13.807 -0.0452  0.3014  0.2664
 4172TIP3    H134007   3.940   5.941  13.771 -0.6780  1.8238  1.5520
 4172TIP3    H234008   3.791   5.926  13.795 -0.6793 -0.8147  0.2959
 4173TIP3   OH234009   5.228   4.228  15.336 -0.1864  0.1494  0.1459
 4173TIP3    H134010   5.239   4.323  15.333  0.0928  0.0946 -1.0607
 4173TIP3    H234011   5.161   4.214  15.403 -0.3960  1.2078  0.1754
 4174TIP3   OH234012   1.293   3.992  14.703  0.0569  0.7266  0.3252
 4174TIP3    H134013   1.381   3.970  14.673  0.2631  3.1275 -1.1157
 4174TIP3    H234014   1.292   3.966  14.795  3.3222  3.1450  1.2466
 4175TIP3   OH234015   5.346   0.343  12.190 -0.1088 -0.4743  0.1927
 4175TIP3    H134016   5.422   0.390  12.156 -0.3902 -0.0311  0.1547
 4175TIP3    H234017   5.355   0.254  12.157 -0.9005  0.1630 -1.9233
 4176TIP3   OH234018   4.853   2.927  10.809  0.1453  0.6249 -0.1400
 4176TIP3    H134019   4.914   2.994  10.839  3.1280 -1.9237  0.0123
 4176TIP3    H234020   4.880   2.909  10.719 -2.2508  1.2693 -1.0697
 4177TIP3   OH234021   0.909   5.473   5.370 -0.1158 -0.0324  0.1381
 4177TIP3    H134022   0.932   5.441   5.458 -1.6704 -0.6749  0.3401
 4177TIP3    H234023   0.981   5.443   5.314 -0.9644 -3.0922  0.4988
 4178TIP3   OH234024   6.072   4.876   6.635 -0.0020  0.2135  0.4082
 4178TIP3    H134025   6.157   4.897   6.672 -0.2718  0.4455  0.9090
 4178TIP3    H234026   6.048   4.954   6.584 -0.8322  1.0250  1.9571
 4179TIP3   OH234027   0.389   2.995  11.857  0.3366 -0.0584  0.2356
 4179TIP3    H134028   0.318   3.058  11.840 -0.5205 -0.4062  2.2664
 4179TIP3    H234029   0.361   2.915  11.814 -0.0657  0.0722  0.2499
 4180TIP3   OH234030   6.032   3.688  13.067  0.2262  0.0874  0.1234
 4180TIP3    H134031   6.043   3.762  13.127 -0.3346  1.1703 -1.0559
 4180TIP3    H234032   6.054   3.611  13.120 -1.0236  0.9017  1.9406
 4181TIP3   OH234033   5.158   0.446   4.929 -0.3723 -0.0418  0.2657
 4181TIP3    H134034   5.230   0.467   4.869 -2.2694  0.6497 -1.8890
 4181TIP3    H234035   5.127   0.360   4.900 -1.9450  0.7346 -0.4665
 4182TIP3   OH234036   3.008   3.583   0.679  0.1105  0.6703  0.2646
 4182TIP3    H134037   3.092   3.613   0.643  0.6420  1.2121  1.8938
 4182TIP3    H234038   2.952   3.572   0.601  1.0584  2.2682 -0.7039
 4183TIP3   OH234039   0.298   3.492  17.156  0.3366  0.9917  0.4611
 4183TIP3    H134040   0.313   3.582  17.127  0.6953  0.9871  0.6267
 4183TIP3    H234041   0.295   3.498  17.252 -0.8119  1.0056  0.4441
 4184TIP3   OH234042   0.962   1.961  13.280  0.1000 -0.5373  0.5791
 4184TIP3    H134043   0.969   1.956  13.376  2.9785  0.0553  0.4582
 4184TIP3    H234044   0.981   1.872  13.250 -0.1638 -0.5706  0.5015
 4185TIP3   OH234045   2.657   6.432  12.998  0.7097  0.3520  0.4922
 4185TIP3    H134046   2.600   6.438  12.921 -0.3966  1.5498  1.3432
 4185TIP3    H234047   2.695   6.345  12.993  0.4975  0.3230 -1.2879
 4186TIP3   OH234048   1.729   3.546  12.736 -1.0382  0.4626 -0.1219
 4186TIP3    H134049   1.655   3.583  12.784 -1.1347  0.4943 -0.2955
 4186TIP3    H234050   1.789   3.620  12.724  0.8679 -0.2885  3.4274
 4187TIP3   OH234051   4.497   6.647  12.720 -0.4825 -0.3857 -0.1442
 4187TIP3    H134052   4.414   6.598  12.714 -0.7513  0.0191  0.1765
 4187TIP3    H234053   4.512   6.655  12.815 -0.8417  0.8112 -0.1770
 4188TIP3   OH234054   3.844   3.293   4.112  0.1821 -0.2256  0.3051
 4188TIP3    H134055   3.783   3.336   4.052  0.1592 -1.1514 -0.3579
 4188TIP3    H234056   3.887   3.365   4.158 -0.7029  0.4650  0.0757
 4189TIP3   OH234057   2.376   5.295  12.016  0.0158  0.1488 -0.1893
 4189TIP3    H134058   2.323   5.244  11.956 -1.0384  0.8019  0.1616
 4189TIP3    H234059   2.380   5.383  11.977  0.4101  0.2422  0.0478
 4190TIP3   OH234060   4.673   2.290   2.561 -0.4251 -0.4498  0.5443
 4190TIP3    H134061   4.744   2.267   2.502  1.0204  0.6612  1.7679
 4190TIP3    H234062   4.638   2.372   2.526  1.2569  0.8911  1.8130
 4191TIP3   OH234063   0.070   6.050   3.269 -0.2600 -0.0756 -0.2901
 4191TIP3    H134064   0.164   6.064   3.277 -0.2044 -0.1025 -0.8930
 4191TIP3    H234065   0.054   5.965   3.310  0.0005 -0.1451 -0.3357
 4192TIP3   OH234066   0.557   1.440   2.105 -0.0190  0.0888 -0.0057
 4192TIP3    H134067   0.502   1.383   2.052 -0.2095  1.3236 -1.2078
 4192TIP3    H234068   0.643   1.436   2.063  1.2542 -2.6996  2.5009
 4193TIP3   OH234069   4.124   1.718  11.003 -0.3929  0.2051  0.4912
 4193TIP3    H134070   4.114   1.653  11.072  6.1422  0.3345  2.3091
 4193TIP3    H234071   4.086   1.798  11.040 -0.9185 -0.6981  2.0048
 4194TIP3   OH234072   4.241   5.938   3.419 -0.0329 -0.2628  0.7813
 4194TIP3    H134073   4.271   5.989   3.494  0.0428  0.4272  0.2847
 4194TIP3    H234074   4.319   5.890   3.390 -0.1835 -0.9613  1.4597
 4195TIP3   OH234075   3.218   3.467  13.241 -0.2303  0.7115  0.3099
 4195TIP3    H134076   3.208   3.559  13.220  1.5494  1.2551  1.6240
 4195TIP3    H234077   3.184   3.459  13.330 -1.4893 -0.1808 -0.2188
 4196TIP3   OH234078   1.237   2.890   4.311 -0.2068  0.2451 -0.3105
 4196TIP3    H134079   1.214   2.964   4.254 -2.6083  0.9374  1.3436
 4196TIP3    H234080   1.277   2.931   4.388 -1.3677 -0.1373  0.5321
 4197TIP3   OH234081   4.460   3.738   5.612 -0.2535 -0.4740 -0.7347
 4197TIP3    H134082   4.508   3.818   5.590 -0.4748 -0.2813 -0.5307
 4197TIP3    H234083   4.382   3.770   5.659 -0.7739 -0.7569 -1.3905
 4198TIP3   OH234084   3.900   1.480  13.558 -0.2655  0.3126  0.7973
 4198TIP3    H134085   3.849   1.508  13.634  1.5160  0.0402  2.1448
 4198TIP3    H234086   3.931   1.393  13.581 -0.3320 -0.1058 -0.6024
 4199TIP3   OH234087   2.213   3.077   1.868  0.0421  0.6200  0.5045
 4199TIP3    H134088   2.305   3.073   1.895 -0.0446  1.1392  0.9205
 4199TIP3    H234089   2.191   2.989   1.840  0.3891  0.2527  1.3606
 4200TIP3   OH234090   4.419   1.414   1.722 -0.1682  0.1954 -0.1949
 4200TIP3    H134091   4.354   1.462   1.774 -1.1079 -1.6921  0.4820
 4200TIP3    H234092   4.493   1.401   1.782 -0.4837 -0.3673  0.0817
 4201TIP3   OH234093   2.357   4.306  11.120  0.7602  0.5458  0.5209
 4201TIP3    H134094   2.304   4.363  11.065  1.6999  0.5114 -0.4588
 4201TIP3    H234095   2.333   4.329  11.209 -2.8829 -1.3084  0.2104
 4202TIP3   OH234096   3.916   1.824  12.040 -0.0369 -0.0753  0.7854
 4202TIP3    H134097   3.962   1.745  12.068 -1.2746 -1.3959 -0.7104
 4202TIP3    H234098   3.954   1.894  12.093  0.6250 -1.7560  2.6510
 4203TIP3   OH234099   5.289   6.652  11.907  0.1168  0.0318 -0.1250
 4203TIP3    H134100   5.270   6.607  11.989 -2.2063  1.4943  0.2217
 4203TIP3    H234101   5.290   6.581  11.842 -1.5037 -0.8030  0.6873
 4204TIP3   OH234102   4.042   2.772   2.345 -0.0387 -0.4430  0.2210
 4204TIP3    H134103   3.955   2.810   2.336  0.4355  1.0077  1.4435
 4204TIP3    H234104   4.100   2.831   2.297  0.3897 -0.9735  0.0651
 4205TIP3   OH234105   5.278   3.173   0.666 -0.6249  0.7635  0.1739
 4205TIP3    H134106   5.323   3.116   0.604  1.4450  1.1033  1.2719
 4205TIP3    H234107   5.213   3.221   0.613  0.9814  0.9708 -1.6977
 4206TIP3   OH234108   5.670   0.561   2.662  0.0475  0.1427  0.3023
 4206TIP3    H134109   5.587   0.525   2.633  0.8782 -0.5558 -1.3190
 4206TIP3    H234110   5.707   0.494   2.720  0.0872 -0.1585 -0.0662
 4207TIP3   OH234111   5.586   0.347   0.943  0.3486  0.2036 -0.1851
 4207TIP3    H134112   5.661   0.288   0.952 -0.8222 -1.1305  1.7620
 4207TIP3    H234113   5.528   0.304   0.880  0.0414 -0.1657  0.3337
 4208TIP3   OH234114   2.928   1.068   1.662 -0.1905 -0.7737 -0.5986
 4208TIP3    H134115   2.929   1.035   1.752 -0.2537 -2.4927 -1.1987
 4208TIP3    H234116   2.849   1.122   1.657  0.0798 -0.2511  0.5035
 4209TIP3   OH234117   0.787   5.889   5.187  0.3585  0.4932 -0.4901
 4209TIP3    H134118   0.830   5.971   5.162  1.9777 -0.5448 -1.3184
 4209TIP3    H234119   0.776   5.842   5.105 -2.4677  0.6915 -0.2983
 4210TIP3   OH234120   0.944   4.181  14.977  0.1095 -0.3223  0.1370
 4210TIP3    H134121   0.926   4.164  15.070 -1.7060 -1.1099 -0.3042
 4210TIP3    H234122   0.927   4.097  14.934  0.3167  0.1908 -0.9845
 4211TIP3   OH234123   2.096   1.333  12.881 -0.3744  0.1555  0.8239
 4211TIP3    H134124   2.022   1.395  12.879  0.4608  1.1687  0.3845
 4211TIP3    H234125   2.165   1.376  12.830  0.5756 -0.7110  1.3395
 4212TIP3   OH234126   3.288   3.306   1.013  0.4167 -0.1738  0.3624
 4212TIP3    H134127   3.278   3.220   1.056 -0.1424 -0.4628 -0.3300
 4212TIP3    H234128   3.199   3.332   0.992  0.5859  0.6010  0.5967
 4213TIP3   OH234129   3.647   3.469   6.034 -0.1504 -0.2499 -0.4489
 4213TIP3    H134130   3.557   3.501   6.036  0.1381  0.6642 -1.2042
 4213TIP3    H234131   3.692   3.518   6.103 -0.0317 -0.0697 -0.6545
 4214TIP3   OH234132   5.127   3.378  16.229  0.5693  0.1638  1.3131
 4214TIP3    H134133   5.056   3.381  16.164  2.3544  1.9103 -0.6990
 4214TIP3    H234134   5.112   3.296  16.276 -1.4685 -0.6435 -0.5352
 4215TIP3   OH234135   2.598   5.092   2.519  0.3627  0.2130  0.4944
 4215TIP3    H134136   2.521   5.121   2.568  0.0030  0.0033  0.0596
 4215TIP3    H234137   2.573   5.102   2.427  0.7109 -0.2405  0.3492
 4216TIP3   OH234138   6.212   3.086  11.978  0.1008 -0.0008 -0.1287
 4216TIP3    H134139   6.154   3.033  11.924 -1.0565  2.0156 -1.0048
 4216TIP3    H234140   6.299   3.049  11.964 -0.4890 -0.8942 -1.6291
 4217TIP3   OH234141   0.012   6.267  14.301 -0.0165 -0.9056  0.2835
 4217TIP3    H134142   0.057   6.187  14.327 -0.0301 -0.7016  0.9584
 4217TIP3    H234143   0.014   6.266  14.205 -0.2118 -1.8215  0.2757
 4218TIP3   OH234144   2.647   5.793   5.629 -0.8402  0.9025  0.1473
 4218TIP3    H134145   2.637   5.732   5.556  1.1409  1.9358 -1.0723
 4218TIP3    H234146   2.593   5.756   5.698  1.3776 -3.0780  0.0499
 4219TIP3   OH234147   2.838   1.791   1.413  0.3402  0.1248 -0.2207
 4219TIP3    H134148   2.896   1.743   1.471  0.7339  0.2567 -0.4988
 4219TIP3    H234149   2.835   1.880   1.449 -0.8041 -0.2272  0.5955
 4220TIP3   OH234150   2.561   1.219  12.329 -0.2899  0.2644  0.8444
 4220TIP3    H134151   2.590   1.188  12.244  0.9933  1.0459  0.9742
 4220TIP3    H234152   2.641   1.225  12.381 -0.7042  2.0861  1.3482
 4221TIP3   OH234153   4.238   1.907   0.002 -0.9401 -0.1667  0.1935
 4221TIP3    H134154   4.231   1.822  -0.042  1.9981 -1.3881  1.7625
 4221TIP3    H234155   4.315   1.948  -0.037 -1.2969  0.9973  0.6816
 4222TIP3   OH234156   1.493   6.179   1.699 -0.0705  0.1221  0.2568
 4222TIP3    H134157   1.451   6.125   1.766 -2.4171 -0.4539 -1.5355
 4222TIP3    H234158   1.528   6.115   1.636 -0.9907  0.6333 -0.8058
 4223TIP3   OH234159   6.333   5.818  12.715  0.4060 -0.0131 -0.5799
 4223TIP3    H134160   6.416   5.773  12.704  0.4163 -0.4022  0.8646
 4223TIP3    H234161   6.338   5.894  12.657  2.2674  0.6122  0.3286
 4224TIP3   OH234162   1.210   4.146  15.954  0.1656 -0.0489  0.0013
 4224TIP3    H134163   1.287   4.136  15.899  1.0309  0.5332  1.0558
 4224TIP3    H234164   1.203   4.240  15.969  0.5796 -0.2594  1.7040
 4225TIP3   OH234165   4.073   6.598  17.160  0.2406 -0.1295 -0.0891
 4225TIP3    H134166   4.143   6.619  17.222  0.3348 -0.3450 -0.1232
 4225TIP3    H234167   4.075   6.503  17.152 -0.5653 -0.2136  0.5135
 4226TIP3   OH234168   1.921   2.050   1.746  0.1361 -0.7487 -0.3718
 4226TIP3    H134169   1.879   1.975   1.703 -2.6001  0.6383 -0.3794
 4226TIP3    H234170   1.896   2.042   1.838  2.5336 -1.4937  0.2868
 4227TIP3   OH234171   1.751   4.514   2.171 -0.3127 -0.2720 -0.2737
 4227TIP3    H134172   1.751   4.431   2.123  4.0157 -1.5741  1.4191
 4227TIP3    H234173   1.725   4.490   2.260 -1.5862  0.7769 -0.3386
 4228TIP3   OH234174   0.158   0.211   3.031 -0.0917  0.8609  0.0372
 4228TIP3    H134175   0.135   0.153   2.958 -0.2347 -1.3389  1.7121
 4228TIP3    H234176   0.075   0.223   3.079  0.0517  2.0353  0.0074
 4229TIP3   OH234177   0.743   4.897  12.734 -0.1138 -0.4503  0.1704
 4229TIP3    H134178   0.733   4.851  12.650 -1.2443 -0.1953  0.1556
 4229TIP3    H234179   0.829   4.869  12.766  0.6269 -0.0511 -1.3745
 4230TIP3   OH234180   6.303   3.725  17.018  0.0728 -0.3806 -0.6417
 4230TIP3    H134181   6.323   3.745  16.926  2.3021  0.3169 -0.0698
 4230TIP3    H234182   6.300   3.811  17.061  2.0042 -0.7736  0.4222
 4231TIP3   OH234183   3.126   0.392   3.385  0.4549 -0.0465  0.2627
 4231TIP3    H134184   3.121   0.477   3.342 -0.2825 -0.5407 -0.6546
 4231TIP3    H234185   3.040   0.380   3.426  1.0465  0.2870  1.6674
 4232TIP3   OH234186   3.348   4.155  16.064  0.7094 -0.2821 -0.1319
 4232TIP3    H134187   3.361   4.092  16.136  0.5763 -1.1815 -0.8791
 4232TIP3    H234188   3.428   4.147  16.011  0.9489  0.6167  0.0877
 4233TIP3   OH234189   4.287   0.444   0.922  0.1213  0.1988 -0.0480
 4233TIP3    H134190   4.346   0.369   0.935 -0.9303 -0.4484  1.2207
 4233TIP3    H234191   4.266   0.442   0.828 -0.4174 -1.5358  0.0757
 4234TIP3   OH234192   0.103   3.612   1.996 -0.3370 -0.2557 -0.2645
 4234TIP3    H134193   0.115   3.699   2.034  0.7504  0.0935 -1.3274
 4234TIP3    H234194   0.081   3.629   1.904 -0.6959 -1.0960 -0.3401
 4235TIP3   OH234195   3.409   0.535   2.688  0.7463  0.0905  0.1783
 4235TIP3    H134196   3.472   0.575   2.627  0.7261 -0.5669 -0.2825
 4235TIP3    H234197   3.399   0.445   2.656 -2.8963  0.9991 -1.8201
 4236TIP3   OH234198   1.752   5.734   0.514 -0.2439  0.1540  0.6557
 4236TIP3    H134199   1.838   5.703   0.484 -0.1717  0.0857  0.9342
 4236TIP3    H234200   1.727   5.673   0.584 -0.6215  0.0386  0.4253
 4237TIP3   OH234201   0.465   6.723   1.764 -0.0636 -0.3435  0.0516
 4237TIP3    H134202   0.454   6.701   1.672  0.5038 -0.5043  0.0225
 4237TIP3    H234203   0.513   6.806   1.763  1.1277 -1.0112  0.2145
 4238TIP3   OH234204   6.547   3.193  10.640 -0.4880  0.3469 -0.1859
 4238TIP3    H134205   6.503   3.181  10.555 -0.7813  0.6605 -0.0795
 4238TIP3    H234206   6.485   3.158  10.704  0.5491 -1.7482 -0.2501
 4239TIP3   OH234207   5.017   5.736  13.379  0.1776  0.2971 -0.5315
 4239TIP3    H134208   5.069   5.658  13.365  0.9762  0.6578  0.3416
 4239TIP3    H234209   5.076   5.809  13.360 -0.4276  0.7062 -0.9057
 4240TIP3   OH234210   1.890   1.389   1.818  0.2355 -0.1307 -0.1491
 4240TIP3    H134211   1.797   1.365   1.818  0.2490 -0.2559  1.2446
 4240TIP3    H234212   1.934   1.315   1.775 -0.2349 -0.3682 -0.2272
 4241TIP3   OH234213   2.673   1.435  17.200  0.3393  0.2436  0.2272
 4241TIP3    H134214   2.586   1.456  17.166  0.1083 -0.3793  0.4027
 4241TIP3    H234215   2.696   1.509  17.256 -0.3916  0.0922  0.7384
 4242TIP3   OH234216   5.211   4.410   0.271  0.2483  0.2162  0.5375
 4242TIP3    H134217   5.292   4.451   0.303  1.2522 -2.8482  2.3030
 4242TIP3    H234218   5.231   4.386   0.180  0.9032  0.5210  0.5910
 4243TIP3   OH234219   2.240   5.759   4.283 -0.1112 -0.0108 -0.3980
 4243TIP3    H134220   2.265   5.850   4.297 -1.6493  0.2460  0.9846
 4243TIP3    H234221   2.254   5.716   4.368 -0.0315 -0.9023 -0.8458
 4244TIP3   OH234222   2.974   0.672  12.375  0.3037 -0.1364  0.3196
 4244TIP3    H134223   3.057   0.699  12.337 -0.0320  2.1582  1.0690
 4244TIP3    H234224   2.996   0.598  12.431  1.5127 -0.7678 -0.9392
 4245TIP3   OH234225   0.095   3.345  14.730 -0.2719  0.1909 -0.0127
 4245TIP3    H134226   0.028   3.412  14.745 -0.0341  1.0207 -2.2338
 4245TIP3    H234227   0.047   3.264  14.718 -0.7667  0.4854 -0.0288
 4246TIP3   OH234228   3.046   1.036   5.205  0.2193 -0.0872 -0.2732
 4246TIP3    H134229   3.071   0.947   5.226 -1.2993 -0.2555  1.0044
 4246TIP3    H234230   2.984   1.028   5.132  0.6514  0.0057 -0.6600
 4247TIP3   OH234231   0.411   1.731  13.582 -0.2747  0.2691 -0.2516
 4247TIP3    H134232   0.420   1.791  13.509  1.0872 -0.5918 -0.8384
 4247TIP3    H234233   0.479   1.758  13.644 -2.3250  1.8933  1.4144
 4248TIP3   OH234234   4.900   3.719  13.469 -0.3079  0.1356 -0.3431
 4248TIP3    H134235   4.828   3.751  13.523 -0.5852 -0.8620 -0.0971
 4248TIP3    H234236   4.953   3.796  13.452  0.3984  0.3280  2.2764
 4249TIP3   OH234237   3.673   0.846  11.735  0.1454  0.4583  0.3335
 4249TIP3    H134238   3.610   0.793  11.685  0.1081 -1.1023  1.9487
 4249TIP3    H234239   3.758   0.805  11.718  0.2911  0.6310  0.6405
 4250TIP3   OH234240   2.851   2.903  15.484 -0.1500  0.3577  0.1163
 4250TIP3    H134241   2.907   2.913  15.560  0.1761 -0.4301 -0.0185
 4250TIP3    H234242   2.762   2.901  15.520  0.1053 -3.1778  0.8478
 4251TIP3   OH234243   1.538   5.449  13.830  0.2247  0.3572 -0.0282
 4251TIP3    H134244   1.500   5.375  13.784 -0.9663 -0.6018  2.3413
 4251TIP3    H234245   1.463   5.495  13.867  1.1294  0.7856  1.3520
 4252TIP3   OH234246   1.408   1.752  16.005 -0.4020 -0.6581 -0.4771
 4252TIP3    H134247   1.389   1.750  16.099  1.7117  0.0268  0.0453
 4252TIP3    H234248   1.463   1.676  15.990  1.2724  0.5112 -0.5937
 4253TIP3   OH234249   2.183   1.814  12.192 -0.5369  0.2783  0.5184
 4253TIP3    H134250   2.269   1.778  12.213  0.1593 -0.7659 -3.4181
 4253TIP3    H234251   2.124   1.739  12.193 -0.4144  0.1321 -1.3131
 4254TIP3   OH234252   1.455   4.554   2.926  0.3067 -0.5542  0.0711
 4254TIP3    H134253   1.537   4.507   2.915  1.7124  1.4725  1.3046
 4254TIP3    H234254   1.448   4.569   3.020  0.1524  1.9960 -0.2942
 4255TIP3   OH234255   1.098   1.484  12.250 -0.0407 -0.0106  0.2202
 4255TIP3    H134256   1.137   1.504  12.335  1.5541 -0.7139 -0.3140
 4255TIP3    H234257   1.129   1.553  12.192 -0.1608 -0.1853 -0.0567
 4256TIP3   OH234258   1.245   4.377  12.353  0.3978  0.2782 -0.1253
 4256TIP3    H134259   1.176   4.334  12.303 -0.3406  0.4652  0.6989
 4256TIP3    H234260   1.262   4.317  12.426  0.3332  0.7396  0.2729
 4257TIP3   OH234261   4.886   0.739  16.720  0.1191 -0.5947 -0.1306
 4257TIP3    H134262   4.962   0.792  16.746  0.0762 -0.7639  0.3446
 4257TIP3    H234263   4.813   0.801  16.723  0.2189 -0.4570 -0.4850
 4258TIP3   OH234264   4.489   6.566   1.948  0.3281 -0.0631 -0.4205
 4258TIP3    H134265   4.462   6.568   1.856 -0.7597  0.0708 -0.1182
 4258TIP3    H234266   4.543   6.644   1.959 -0.0070  0.2294 -0.8249
 4259TIP3   OH234267   3.935   1.330  11.910 -0.0833 -0.0555 -0.1828
 4259TIP3    H134268   3.845   1.343  11.940  0.2058 -0.5265  0.9492
 4259TIP3    H234269   3.947   1.395  11.840 -0.9549  0.7534  0.4006
 4260TIP3   OH234270   5.940   0.859   6.492 -0.6732 -0.4215 -0.1744
 4260TIP3    H134271   5.875   0.796   6.525 -0.3469 -1.4989 -1.4888
 4260TIP3    H234272   6.018   0.843   6.544 -0.4888 -1.3692 -0.7196
 4261TIP3   OH234273   3.644   0.385  11.593 -0.4674 -0.0970  0.1719
 4261TIP3    H134274   3.641   0.456  11.528 -0.4600  0.4802  0.7971
 4261TIP3    H234275   3.666   0.428  11.675 -2.8605 -0.4193  1.0776
 4262TIP3   OH234276   3.533   5.638   0.482 -0.0684 -0.3409 -0.1791
 4262TIP3    H134277   3.529   5.587   0.563 -0.6562  0.9326  0.6292
 4262TIP3    H234278   3.612   5.691   0.491 -0.2955  0.0248 -0.2794
 4263TIP3   OH234279   0.911   3.565   3.330 -0.0715  0.4628 -0.2414
 4263TIP3    H134280   0.846   3.633   3.309  0.9190  1.5206 -0.0158
 4263TIP3    H234281   0.988   3.590   3.279  0.0088 -1.0878 -0.9267
 4264TIP3   OH234282   1.726   2.826   3.058 -0.0016 -0.0598 -0.3561
 4264TIP3    H134283   1.792   2.893   3.077 -0.9784  0.3990  1.7864
 4264TIP3    H234284   1.754   2.750   3.109 -1.1104  0.1555  0.6142
 4265TIP3   OH234285   3.632   2.748   1.140  0.6442 -0.2376  0.6343
 4265TIP3    H134286   3.568   2.676   1.133  0.0644  0.2727  0.5901
 4265TIP3    H234287   3.715   2.704   1.157  0.5838 -1.0404 -0.8984
 4266TIP3   OH234288   1.951   0.651   1.843 -0.0090 -0.0379 -0.5326
 4266TIP3    H134289   1.927   0.743   1.834 -1.7435 -0.2798  0.9413
 4266TIP3    H234290   1.900   0.620   1.918  0.6957 -2.1504 -0.8485
 4267TIP3   OH234291   2.736   6.619  12.076 -0.1073  0.7614 -0.1080
 4267TIP3    H134292   2.787   6.656  12.149 -0.8989 -0.4730  1.1066
 4267TIP3    H234293   2.651   6.598  12.114 -0.6742  0.4271 -1.5022
 4268TIP3   OH234294   4.903   2.886   5.303  0.2481  0.2637  0.3570
 4268TIP3    H134295   4.914   2.920   5.215 -2.6831  1.2913  0.2897
 4268TIP3    H234296   4.816   2.915   5.330 -0.1605 -2.4777  2.4757
 4269TIP3   OH234297   4.725   0.218   3.319 -0.6965  0.4168  0.3396
 4269TIP3    H134298   4.754   0.163   3.392 -2.6892  0.2029  1.0588
 4269TIP3    H234299   4.663   0.279   3.359 -1.6044  0.4962 -1.1094
 4270TIP3   OH234300   4.069   3.165   2.181 -0.0760  0.9881 -0.7048
 4270TIP3    H134301   4.150   3.130   2.219 -0.9032 -2.1210 -1.4674
 4270TIP3    H234302   4.009   3.170   2.254 -0.0837  0.2332 -0.6477
 4271TIP3   OH234303   6.167   0.955  13.345 -0.3690 -0.0778  0.3273
 4271TIP3    H134304   6.173   0.864  13.375 -1.8706  0.5528  2.6967
 4271TIP3    H234305   6.106   0.952  13.271 -0.5327 -0.9434  0.4914
 4272TIP3   OH234306   4.523   2.683   4.677  0.9208  0.1251 -0.0109
 4272TIP3    H134307   4.476   2.702   4.596  0.2719 -0.4826  0.2055
 4272TIP3    H234308   4.582   2.757   4.689 -0.7273  1.4681  0.2649
 4273TIP3   OH234309   5.935   4.724   4.250 -0.0074 -0.6170  0.0258
 4273TIP3    H134310   5.954   4.715   4.343 -2.8719 -1.9931  0.5910
 4273TIP3    H234311   5.883   4.804   4.243  0.0861 -0.5864 -0.3694
 4274TIP3   OH234312   2.509   1.111  11.394  0.4109 -0.2946 -0.0649
 4274TIP3    H134313   2.471   1.129  11.308  0.7357  2.1376  0.2236
 4274TIP3    H234314   2.441   1.138  11.456  1.3440  1.1087  0.4134
 4275TIP3   OH234315   5.536   0.592  13.281 -0.0747  0.0754 -0.0253
 4275TIP3    H134316   5.587   0.511  13.273  0.0077  0.0967  0.2924
 4275TIP3    H234317   5.456   0.575  13.230 -0.7849 -0.7998  1.3161
 4276TIP3   OH234318   4.584   5.024   2.263 -0.2388 -0.0002  0.2508
 4276TIP3    H134319   4.592   4.944   2.212 -0.4394 -0.6516  1.2256
 4276TIP3    H234320   4.673   5.060   2.266 -0.3902  0.6092 -1.4106
 4277TIP3   OH234321   1.025   3.967  11.440 -0.3260 -0.0362  0.3059
 4277TIP3    H134322   0.956   3.938  11.380  0.1901 -0.5911 -0.0333
 4277TIP3    H234323   1.078   3.889  11.454  1.0889  0.7198 -0.6052
 4278TIP3   OH234324   0.342   3.255   2.513  0.3070 -0.1305 -0.2652
 4278TIP3    H134325   0.365   3.328   2.457 -1.4578 -0.1683 -1.0950
 4278TIP3    H234326   0.353   3.177   2.457  1.5655 -0.4695  0.4183
 4279TIP3   OH234327   1.919   1.360  11.315  0.0707 -0.1255 -0.0772
 4279TIP3    H134328   1.897   1.395  11.401  1.3397  0.0475  0.1966
 4279TIP3    H234329   1.950   1.272  11.333 -0.9985 -0.6088 -0.5273
 4280TIP3   OH234330   0.253   5.396  17.034  0.6034  0.6705  0.0906
 4280TIP3    H134331   0.217   5.316  16.996  1.2409 -1.1733  3.0712
 4280TIP3    H234332   0.177   5.443  17.068  0.3809  0.5952 -0.2905
 4281TIP3   OH234333   3.632   4.396  10.697  0.3486  0.1387  0.2319
 4281TIP3    H134334   3.693   4.460  10.660  1.3006 -1.2940 -0.8104
 4281TIP3    H234335   3.568   4.382  10.627  0.0616  0.0639  0.5091
 4282TIP3   OH234336   3.059   1.945  14.189  0.2709  0.1250  0.0773
 4282TIP3    H134337   3.018   2.028  14.214 -1.7123 -1.1007  1.1102
 4282TIP3    H234338   2.995   1.904  14.130  1.9214 -0.0271 -1.7126
 4283TIP3   OH234339   1.831   6.353  12.675  0.3574 -0.0588 -0.0959
 4283TIP3    H134340   1.805   6.397  12.756  1.0955 -1.5717  1.0132
 4283TIP3    H234341   1.925   6.370  12.667  0.9262 -2.3047  0.9990
 4284TIP3   OH234342   6.661   6.313  11.161 -0.2932  0.2946 -0.6277
 4284TIP3    H134343   6.579   6.295  11.115 -0.1239 -1.1450 -0.4150
 4284TIP3    H234344   6.729   6.299  11.095 -0.2087  2.2563 -1.0237
 4285TIP3   OH234345   1.103   0.593   5.774 -0.1032  0.1175 -0.3618
 4285TIP3    H134346   1.171   0.526   5.769 -1.0297 -0.8029 -1.1586
 4285TIP3    H234347   1.109   0.639   5.690  0.7869  1.3387  0.3304
 4286TIP3   OH234348   2.999   6.190  12.780 -0.0833  0.9895  0.0538
 4286TIP3    H134349   3.028   6.101  12.797 -1.0660  0.3584 -1.3599
 4286TIP3    H234350   3.080   6.242  12.778  0.6984 -0.1891 -0.8630
 4287TIP3   OH234351   3.734   0.550  15.033  0.1193  0.6411  0.1901
 4287TIP3    H134352   3.817   0.598  15.042  0.4368  0.9387 -3.0840
 4287TIP3    H234353   3.667   0.618  15.033  0.0761  0.6011  0.5970
 4288TIP3   OH234354   2.874   5.595   3.447 -0.2234  0.0146 -0.2583
 4288TIP3    H134355   2.959   5.579   3.486 -0.1380 -0.1487 -0.5063
 4288TIP3    H234356   2.866   5.528   3.379 -0.6978 -0.1866 -0.0054
 4289TIP3   OH234357   5.580   0.408  12.083  0.7280 -0.0824  0.2362
 4289TIP3    H134358   5.596   0.358  12.003 -0.1240 -2.1969  1.2954
 4289TIP3    H234359   5.661   0.400  12.134  0.9976  0.6084 -0.0786
 4290TIP3   OH234360   0.864   1.665  10.346 -0.8494 -0.7196 -0.2601
 4290TIP3    H134361   0.807   1.730  10.304  0.4617  0.8917  0.3463
 4290TIP3    H234362   0.953   1.694  10.327 -0.2100 -2.2452  0.2148
 4291TIP3   OH234363   0.443   0.991  13.597  0.3465 -0.4727 -0.3829
 4291TIP3    H134364   0.432   0.943  13.679  0.6908  0.1542  0.0355
 4291TIP3    H234365   0.488   0.930  13.539  2.3716 -0.0923  0.7028
 4292TIP3   OH234366   0.275   0.700   0.714 -0.1421  0.5288 -0.2184
 4292TIP3    H134367   0.342   0.651   0.668 -1.1761  0.0793 -1.2843
 4292TIP3    H234368   0.281   0.789   0.678 -0.5684  0.3188 -0.8156
 4293TIP3   OH234369   5.924   5.208  16.064  0.2584 -0.5753 -0.5753
 4293TIP3    H134370   5.919   5.118  16.030  0.1109  0.3910 -3.4444
 4293TIP3    H234371   6.001   5.207  16.122  1.8638 -2.0256 -2.5490
 4294TIP3   OH234372   6.605   1.330  16.317  0.6079 -0.0318 -0.4232
 4294TIP3    H134373   6.589   1.392  16.388  1.0497  1.0655 -1.2628
 4294TIP3    H234374   6.613   1.245  16.361 -1.3910  0.2652  0.6188
 4295TIP3   OH234375   3.717   6.473  14.773  0.5105  0.0310  0.0805
 4295TIP3    H134376   3.740   6.411  14.842  0.1081  0.7397  0.8897
 4295TIP3    H234377   3.769   6.447  14.697  0.8333 -0.8779  0.6036
 4296TIP3   OH234378   3.147   5.369  16.070  0.3567  0.1111  0.2719
 4296TIP3    H134379   3.177   5.301  16.009  1.5888  1.1861 -0.3731
 4296TIP3    H234380   3.155   5.451  16.020 -0.6794  0.7781  1.1736
 4297TIP3   OH234381   5.863   2.330   3.039  0.4177 -0.0827  0.8251
 4297TIP3    H134382   5.914   2.411   3.051  0.4261 -0.2040  1.6538
 4297TIP3    H234383   5.797   2.332   3.108 -0.3601 -0.2048  0.1029
 4298TIP3   OH234384   3.348   1.521   5.160  0.0576  0.1501 -0.5609
 4298TIP3    H134385   3.333   1.515   5.254  0.3836  2.7378 -0.2692
 4298TIP3    H234386   3.321   1.436   5.125 -2.7168  0.0398  1.5188
 4299TIP3   OH234387   2.227   4.982  16.712 -0.0667 -0.1461  0.8294
 4299TIP3    H134388   2.253   5.025  16.793  0.8065  2.6934 -0.8459
 4299TIP3    H234389   2.284   5.019  16.645 -2.1148 -0.8293 -1.4358
 4300TIP3   OH234390   1.450   5.629   2.696  0.2770 -0.2526  0.1130
 4300TIP3    H134391   1.516   5.694   2.670  0.7232  0.7297  3.2864
 4300TIP3    H234392   1.415   5.597   2.613  0.1432  3.8790 -1.6808
 4301TIP3   OH234393   6.793   0.628  14.141 -0.1326 -0.0913  0.3586
 4301TIP3    H134394   6.758   0.615  14.053 -0.3175 -1.5449  0.6129
 4301TIP3    H234395   6.862   0.561  14.149 -0.4714 -0.3194  1.4866
 4302TIP3   OH234396   0.846   2.536  17.107 -0.0197 -0.0156  0.2154
 4302TIP3    H134397   0.760   2.496  17.121  0.5779 -1.2468  0.4816
 4302TIP3    H234398   0.905   2.462  17.095  1.0026  0.8204 -0.0266
 4303TIP3   OH234399   4.275   4.426   5.568  0.0680 -0.1494 -0.0476
 4303TIP3    H134400   4.276   4.436   5.663  4.3261 -0.5858  0.1475
 4303TIP3    H234401   4.329   4.349   5.551  0.6815  0.7524 -2.8313
 4304TIP3   OH234402   2.068   1.398   0.296  0.0954 -0.1996  0.1675
 4304TIP3    H134403   2.117   1.480   0.291  1.4605 -1.0445 -1.7292
 4304TIP3    H234404   2.102   1.354   0.374  0.1068  0.5644  0.6026
 4305TIP3   OH234405   2.807   2.111  10.503 -0.5879  0.7944  0.3809
 4305TIP3    H134406   2.851   2.045  10.555 -0.7206 -1.7205 -2.4377
 4305TIP3    H234407   2.718   2.115  10.538 -0.5440 -0.4937  0.6659
 4306TIP3   OH234408   6.569   5.754   1.112 -0.2395  0.6359  0.4696
 4306TIP3    H134409   6.664   5.758   1.108 -0.2890  1.4612 -0.2726
 4306TIP3    H234410   6.550   5.673   1.158  0.8186  0.2443  0.2436
 4307TIP3   OH234411   4.298   6.276   2.336  0.1588  0.0822 -0.0567
 4307TIP3    H134412   4.259   6.231   2.411 -2.7835 -0.4985 -1.7703
 4307TIP3    H234413   4.249   6.358   2.330  1.4119  0.8290 -0.4830
 4308TIP3   OH234414   6.538   3.089  12.173  0.3772 -0.8101 -0.1584
 4308TIP3    H134415   6.548   3.122  12.083  0.3167 -2.1490 -0.6707
 4308TIP3    H234416   6.501   3.002  12.162 -1.1102 -0.3957  1.2352
 4309TIP3   OH234417   2.619   5.508  15.748 -0.3342  0.1620 -0.1854
 4309TIP3    H134418   2.578   5.565  15.813 -1.2073  0.7672 -1.2221
 4309TIP3    H234419   2.562   5.516  15.671 -0.5216 -2.1496 -0.3606
 4310TIP3   OH234420   6.453   2.726  14.814  0.5575  0.2836 -0.0535
 4310TIP3    H134421   6.443   2.680  14.897  1.5352 -3.6715 -1.8273
 4310TIP3    H234422   6.364   2.748  14.787 -0.0775 -1.2395  0.6799
 4311TIP3   OH234423   1.982   5.889   3.668  0.6422 -0.1948 -0.8104
 4311TIP3    H134424   1.908   5.923   3.718 -1.4569 -1.5130 -2.8407
 4311TIP3    H234425   1.996   5.801   3.703  0.2840 -0.4855 -1.3888
 4312TIP3   OH234426   3.373   3.948   6.037 -0.0190 -0.1995  0.4166
 4312TIP3    H134427   3.359   3.857   6.064 -1.6277 -0.8973 -2.3513
 4312TIP3    H234428   3.285   3.984   6.027  0.5399  0.9488 -0.6928
 4313TIP3   OH234429   3.903   6.555   6.743  0.0884  0.0236 -0.2764
 4313TIP3    H134430   3.896   6.557   6.839 -3.1451  1.8289 -0.4064
 4313TIP3    H234431   3.842   6.486   6.716  0.3283  0.1099 -1.0531
 4314TIP3   OH234432   0.584   1.594   6.257  0.1413  0.4721  0.0708
 4314TIP3    H134433   0.507   1.647   6.275 -0.0302 -0.1196  1.2337
 4314TIP3    H234434   0.657   1.655   6.261 -0.1196  0.7540  0.6621
 4315TIP3   OH234435   0.513   4.566  13.222  0.0226  0.4965  0.0968
 4315TIP3    H134436   0.597   4.580  13.265  0.1411 -3.2800  1.4810
 4315TIP3    H234437   0.451   4.554  13.294 -0.9170 -0.5146 -0.8493
 4316TIP3   OH234438   4.899   1.578  13.489  0.4956 -0.0192 -0.2364
 4316TIP3    H134439   4.987   1.545  13.511 -0.0275 -2.8280 -1.7967
 4316TIP3    H234440   4.891   1.564  13.395 -0.9750  2.0220 -0.4813
 4317TIP3   OH234441   3.191   6.536  11.344  0.5979  0.0893  0.0135
 4317TIP3    H134442   3.238   6.486  11.277 -1.3489  0.0311 -1.3695
 4317TIP3    H234443   3.140   6.471  11.392  0.5850  0.3641  0.3769
 4318TIP3   OH234444   4.071   2.762  13.182  0.7256 -0.0880  0.1394
 4318TIP3    H134445   4.117   2.845  13.166 -0.6530  0.8837  1.0192
 4318TIP3    H234446   4.020   2.747  13.103 -0.3667  0.8308  0.6541
 4319TIP3   OH234447   1.900   3.162   4.444  0.0230  0.1679 -1.3495
 4319TIP3    H134448   1.984   3.127   4.414  0.1236 -1.5034  0.6310
 4319TIP3    H234449   1.895   3.136   4.536 -2.9498 -0.3460 -1.5596
 4320TIP3   OH234450   2.772   3.566   2.395 -0.0797  0.2190 -0.0204
 4320TIP3    H134451   2.849   3.550   2.450  0.7850  0.9506 -0.9678
 4320TIP3    H234452   2.734   3.480   2.381 -1.0090  0.1076  2.6156
 4321TIP3   OH234453   0.042   0.860   4.967  0.0292 -0.2601 -0.1900
 4321TIP3    H134454   0.096   0.899   4.898 -0.5233 -0.8534 -0.9779
 4321TIP3    H234455  -0.047   0.893   4.948 -0.1264 -0.4366  0.2322
 4322TIP3   OH234456   3.892   6.147   5.341 -0.3047 -0.3574 -0.3665
 4322TIP3    H134457   3.883   6.164   5.247  1.7466  1.5481 -0.2871
 4322TIP3    H234458   3.931   6.227   5.377  0.1288 -1.4997  1.9045
 4323TIP3   OH234459   0.507   1.035  12.264  0.3018 -0.0057  0.1717
 4323TIP3    H134460   0.527   0.973  12.194 -0.2161 -0.7945  0.7089
 4323TIP3    H234461   0.575   1.103  12.256  0.0155  0.1297 -1.3284
 4324TIP3   OH234462   6.679   6.769   4.611 -0.3424 -0.5797 -0.5806
 4324TIP3    H134463   6.717   6.687   4.643  0.7235  0.6820  1.6182
 4324TIP3    H234464   6.586   6.763   4.633 -0.0812 -0.8195  0.5526
 4325TIP3   OH234465   3.162   2.816   6.085 -0.0859  0.1479 -0.7712
 4325TIP3    H134466   3.138   2.908   6.086 -0.5503  0.0386  1.2486
 4325TIP3    H234467   3.239   2.810   6.142 -0.7661 -0.8683  0.0797
 4326TIP3   OH234468   1.083   4.644   1.316 -0.1436 -0.3571 -0.1741
 4326TIP3    H134469   1.132   4.604   1.388  0.1980 -2.3426 -1.4147
 4326TIP3    H234470   1.045   4.570   1.269 -1.7318  0.9762 -1.0860
 4327TIP3   OH234471   2.179   2.816   4.091  0.5515  0.7842  0.1473
 4327TIP3    H134472   2.094   2.783   4.063  1.2174  1.3887 -3.0227
 4327TIP3    H234473   2.212   2.751   4.153 -1.4561 -0.3533  0.0833
 4328TIP3   OH234474   0.849   2.025   4.895 -0.0336  0.5571  0.4454
 4328TIP3    H134475   0.920   2.058   4.839  0.3513 -1.2547 -0.2309
 4328TIP3    H234476   0.778   2.005   4.834  0.4745 -1.6648  0.4858
 4329TIP3   OH234477   5.831   1.628  14.340 -0.1194 -0.0628 -0.2686
 4329TIP3    H134478   5.879   1.596  14.263 -0.3432  0.2204 -0.5303
 4329TIP3    H234479   5.808   1.718  14.318 -1.7127 -0.5228 -0.6150
 4330TIP3   OH234480   3.478   1.079   4.332  0.0328 -0.7032  0.1837
 4330TIP3    H134481   3.547   1.056   4.394 -0.2686 -3.1339 -0.2788
 4330TIP3    H234482   3.522   1.089   4.248  0.1933  0.8691  0.4128
 4331TIP3   OH234483   4.781   6.468  11.555  0.1211  0.4626  0.4454
 4331TIP3    H134484   4.784   6.456  11.650  0.7845  2.0340  0.6729
 4331TIP3    H234485   4.806   6.383  11.519 -2.6757 -0.9651  1.5711
 4332TIP3   OH234486   4.486   2.410   4.345 -0.3063  0.0723  0.2994
 4332TIP3    H134487   4.534   2.446   4.271 -0.1870 -3.2269 -1.4430
 4332TIP3    H234488   4.550   2.407   4.416  0.6510  0.1370 -0.5316
 4333TIP3   OH234489   5.119   6.670   4.086 -0.4632  0.5577 -0.7611
 4333TIP3    H134490   5.140   6.718   4.006  2.0496 -0.9141 -1.1235
 4333TIP3    H234491   5.052   6.607   4.060  0.0575  0.3526 -1.6314
 4334TIP3   OH234492   4.501   5.031  12.614 -0.8962 -0.0112  0.0451
 4334TIP3    H134493   4.450   4.952  12.598 -1.5870  0.0266  1.7763
 4334TIP3    H234494   4.580   5.020  12.561 -1.0478 -1.7830  0.1184
 4335TIP3   OH234495   3.347   1.576  11.787 -0.0598  0.2440  0.2968
 4335TIP3    H134496   3.345   1.669  11.767 -0.4949  0.1435 -0.1331
 4335TIP3    H234497   3.438   1.550  11.769 -0.2011  0.3631 -0.6077
 4336TIP3   OH234498   4.969   3.457   0.200 -0.0851 -0.0190 -0.2763
 4336TIP3    H134499   4.967   3.544   0.238  2.1513  1.1001 -2.4249
 4336TIP3    H234500   4.903   3.460   0.130 -0.4459 -0.2765  0.0489
 4337TIP3   OH234501   3.549   1.373  13.439  0.3041  0.5307 -0.0145
 4337TIP3    H134502   3.585   1.450  13.395 -0.9582  2.0929  1.5435
 4337TIP3    H234503   3.465   1.358  13.396 -1.5594  2.8655  2.4575
 4338TIP3   OH234504   5.320   3.502  11.165  0.4471 -0.0035 -0.1683
 4338TIP3    H134505   5.344   3.441  11.235  0.7777  0.2176 -0.0905
 4338TIP3    H234506   5.349   3.587  11.197 -0.5837  0.2957  0.0017
 4339TIP3   OH234507   3.963   4.666  11.925  0.1384  0.2368  0.0872
 4339TIP3    H134508   3.921   4.589  11.888  1.7816  0.6498 -2.9404
 4339TIP3    H234509   4.043   4.633  11.966  0.2536  0.1969 -0.1696
 4340TIP3   OH234510   1.753   0.206   6.270 -0.1814  0.3855  0.1540
 4340TIP3    H134511   1.697   0.140   6.310 -0.5291  0.8239  0.4029
 4340TIP3    H234512   1.801   0.244   6.344  1.0276 -0.5169 -0.1390
 4341TIP3   OH234513   0.213   0.404   5.536  0.4751 -0.1290  0.3228
 4341TIP3    H134514   0.213   0.434   5.445 -0.2780 -0.2860  0.2635
 4341TIP3    H234515   0.271   0.465   5.582 -2.1586  2.4442  0.5106
 4342TIP3   OH234516   2.164   3.990   1.445  0.0418 -0.4471 -0.3006
 4342TIP3    H134517   2.099   3.920   1.438 -0.1592 -0.2454 -0.4868
 4342TIP3    H234518   2.164   4.015   1.537  1.5858 -2.0737  0.2024
 4343TIP3   OH234519   5.571   5.295  11.800 -0.2267 -0.3524  0.0265
 4343TIP3    H134520   5.614   5.367  11.848  0.2825  0.4383 -1.5416
 4343TIP3    H234521   5.499   5.337  11.753  0.2089 -0.8046 -1.0796
 4344TIP3   OH234522   5.222   5.049   0.746 -0.1051  0.2701 -0.3183
 4344TIP3    H134523   5.239   4.956   0.732  0.6382  0.3146  0.1953
 4344TIP3    H234524   5.290   5.094   0.696  0.1230  0.5088  0.1940
 4345TIP3   OH234525   5.378   2.406   5.674  0.2878 -0.1587  0.1073
 4345TIP3    H134526   5.420   2.453   5.601  0.7322 -1.8449 -0.7749
 4345TIP3    H234527   5.311   2.352   5.633 -0.4695 -0.0329  1.1408
 4346TIP3   OH234528   3.672   3.792   4.073  0.0786  0.3509  0.5715
 4346TIP3    H134529   3.627   3.715   4.039  1.7455  0.2296 -1.5265
 4346TIP3    H234530   3.605   3.837   4.125 -1.1363 -2.1106  1.3208
 4347TIP3   OH234531   1.769   3.836   4.547 -0.1251  0.2298  0.6266
 4347TIP3    H134532   1.815   3.917   4.525 -0.0414  0.3094  1.0766
 4347TIP3    H234533   1.832   3.767   4.528  0.3914  0.3674  1.7402
 4348TIP3   OH234534   6.416   0.432   1.318 -0.0747  0.7879  0.2553
 4348TIP3    H134535   6.484   0.499   1.307  0.4864  0.2326  0.2555
 4348TIP3    H234536   6.464   0.354   1.346 -0.4480 -0.1635 -1.6023
 4349TIP3   OH234537   1.953   0.268  11.156  0.0881  0.0328  0.2312
 4349TIP3    H134538   2.015   0.320  11.104 -0.9358  0.6506 -0.4065
 4349TIP3    H234539   1.873   0.268  11.104 -0.4212 -0.8503  0.9887
 4350TIP3   OH234540   5.800   4.246   0.077  0.1494 -0.4923 -0.7154
 4350TIP3    H134541   5.767   4.322   0.028 -0.8857 -0.0982  0.5332
 4350TIP3    H234542   5.864   4.282   0.138 -0.5617 -0.5448  0.0880
 4351TIP3   OH234543   6.325   1.038  13.815  0.0036  0.3595  0.0641
 4351TIP3    H134544   6.298   1.066  13.727  0.1915  0.1553 -0.0611
 4351TIP3    H234545   6.418   1.059  13.819  0.2442 -0.5938 -0.1840
 4352TIP3   OH234546   0.440   4.967   6.598  0.0876  0.1306 -0.8758
 4352TIP3    H134547   0.433   4.874   6.579  1.5118  0.0509 -1.1262
 4352TIP3    H234548   0.362   5.006   6.558  0.2196 -0.7528 -2.0456
 4353TIP3   OH234549   4.293   4.877   6.529  0.3867  0.5851  1.0504
 4353TIP3    H134550   4.325   4.793   6.562  1.5585  1.5716  2.5446
 4353TIP3    H234551   4.367   4.915   6.482  0.0386  1.0476  0.8634
 4354TIP3   OH234552   2.635   6.046  14.616  0.4947 -0.3207 -0.4045
 4354TIP3    H134553   2.710   6.098  14.646 -0.5865  1.0969 -0.0934
 4354TIP3    H234554   2.577   6.109  14.574 -0.6846 -1.3450 -0.3527
 4355TIP3   OH234555   5.428   5.571  12.088 -0.3295 -0.2645 -0.0047
 4355TIP3    H134556   5.380   5.632  12.145 -0.1312  0.3424 -0.4732
 4355TIP3    H234557   5.420   5.486  12.132 -0.3780  0.1453  0.8028
 4356TIP3   OH234558   5.809   2.452  11.648  0.6784  0.6748 -0.2416
 4356TIP3    H134559   5.875   2.465  11.715  1.5246  2.2461 -1.2981
 4356TIP3    H234560   5.796   2.540  11.611 -0.8152  0.1074 -1.1426
 4357TIP3   OH234561   2.900   0.643   6.261 -0.1461  0.4278 -0.2557
 4357TIP3    H134562   2.942   0.558   6.248  0.0291  0.4612  0.0851
 4357TIP3    H234563   2.842   0.629   6.336 -0.2424  0.5633 -0.3049
 4358TIP3   OH234564   0.250   6.626   3.009 -0.4441 -0.2115 -0.0418
 4358TIP3    H134565   0.326   6.643   3.064 -0.4988 -0.3080  0.0654
 4358TIP3    H234566   0.280   6.641   2.920 -0.5698  0.7175  0.0678
 4359TIP3   OH234567   0.509   2.710   2.045  0.0530 -0.0518 -0.0181
 4359TIP3    H134568   0.541   2.704   1.954 -1.3952  2.4936 -0.7785
 4359TIP3    H234569   0.581   2.752   2.092  0.1818  0.1031 -0.3448
 4360TIP3   OH234570   2.388   6.069  14.056  0.0181 -0.8869  0.2040
 4360TIP3    H134571   2.341   6.151  14.042  1.5788  0.2071  1.1931
 4360TIP3    H234572   2.430   6.051  13.972  1.2440  0.3941  0.5024
 4361TIP3   OH234573   5.863   0.797   4.395 -0.0841 -0.0052 -0.4494
 4361TIP3    H134574   5.781   0.829   4.431  2.0676  1.7511  3.4140
 4361TIP3    H234575   5.879   0.714   4.440  0.3291 -0.2719 -1.0673
 4362TIP3   OH234576   0.898   4.082  15.246 -0.1759 -0.0538  0.4958
 4362TIP3    H134577   0.820   4.059  15.296 -0.7062  0.9182  0.1638
 4362TIP3    H234578   0.930   4.162  15.287  0.3091 -0.1263  0.2657
 4363TIP3   OH234579   4.287   0.594   4.887  0.5618 -0.0630  0.0495
 4363TIP3    H134580   4.327   0.559   4.967 -1.4265  0.1668  1.2107
 4363TIP3    H234581   4.287   0.689   4.900  0.7430  0.0095 -0.4803
 4364TIP3   OH234582   3.209   0.767  12.886  0.0612 -0.0460  0.3773
 4364TIP3    H134583   3.118   0.798  12.885  0.7147  2.0639  0.8268
 4364TIP3    H234584   3.225   0.738  12.796 -1.2874 -1.2936  0.4983
 4365TIP3   OH234585   1.213   1.824   4.094  0.0138 -0.1492  0.3099
 4365TIP3    H134586   1.275   1.872   4.150  0.6570  0.8103 -1.1786
 4365TIP3    H234587   1.177   1.891   4.035 -2.4450 -0.6731  1.0777
 4366TIP3   OH234588   5.950   3.022  12.656  0.7710 -0.0535  0.4858
 4366TIP3    H134589   5.995   2.990  12.578 -0.7077 -1.8948  0.3283
 4366TIP3    H234590   5.857   3.016  12.635  0.3583  0.4879  1.9834
 4367TIP3   OH234591   3.591   2.743   0.399  0.3932 -0.7526 -0.5129
 4367TIP3    H134592   3.503   2.715   0.372 -0.5700 -0.1532  1.7407
 4367TIP3    H234593   3.643   2.663   0.397 -1.0480 -1.8138  1.1230
 4368TIP3   OH234594   6.327   6.697  16.797  0.0013  0.1717  0.1192
 4368TIP3    H134595   6.301   6.605  16.787  1.8436 -0.1530 -2.5768
 4368TIP3    H234596   6.321   6.713  16.892  0.5745 -3.0363  0.8167
 4369TIP3   OH234597   4.322   2.985  17.214  0.8537  0.1453  0.4548
 4369TIP3    H134598   4.249   2.965  17.155  1.3463 -0.2914 -0.0247
 4369TIP3    H234599   4.286   3.045  17.278  0.8446  2.5626 -1.6504
 4370TIP3   OH234600   0.443   6.619   1.495 -0.9053 -0.3115  0.1134
 4370TIP3    H134601   0.460   6.539   1.446  0.6048 -0.2745  0.5383
 4370TIP3    H234602   0.348   6.622   1.503 -1.0700 -1.3217 -1.1195
 4371TIP3   OH234603   4.384   5.009  10.748  0.0992  1.1424  0.0544
 4371TIP3    H134604   4.381   4.927  10.699 -2.3665 -1.3997  3.8901
 4371TIP3    H234605   4.475   5.017  10.776 -0.0604 -1.9934  1.9034
 4372TIP3   OH234606   5.194   6.783   0.413  0.0939 -0.1807  0.7183
 4372TIP3    H134607   5.196   6.694   0.447 -0.2296  0.2676  1.9472
 4372TIP3    H234608   5.284   6.816   0.423  0.5588 -0.7922 -0.9952
 4373TIP3   OH234609   5.066   4.606  15.162 -0.1965 -0.5569 -0.2531
 4373TIP3    H134610   5.115   4.682  15.129 -1.0002 -0.2012 -0.6765
 4373TIP3    H234611   5.126   4.561  15.220 -0.0706  1.0697  0.9385
 4374TIP3   OH234612   0.091   3.535  16.133 -0.0891  0.2590 -0.2628
 4374TIP3    H134613   0.120   3.558  16.044 -0.0053 -1.1116 -0.6095
 4374TIP3    H234614   0.172   3.513  16.179 -0.1383  0.9353  0.1637
 4375TIP3   OH234615   5.219   5.462  13.997 -0.0862 -0.3681 -0.4318
 4375TIP3    H134616   5.196   5.382  14.044  0.1847 -0.6311 -0.7384
 4375TIP3    H234617   5.140   5.485  13.948 -0.7781  0.5678  1.0332
 4376TIP3   OH234618   2.557   5.829   5.958 -0.2105 -0.5086 -0.4469
 4376TIP3    H134619   2.566   5.911   5.909 -2.3403  1.0035  1.4892
 4376TIP3    H234620   2.637   5.780   5.937  2.3755  3.0442  0.1594
 4377TIP3   OH234621   4.725   1.105   0.531 -0.8545  0.1624  0.2655
 4377TIP3    H134622   4.800   1.158   0.558 -1.3524  0.6470  0.7158
 4377TIP3    H234623   4.755   1.060   0.452  0.1798 -0.2570  0.8662
 4378TIP3   OH234624   5.888   2.905   0.054  0.0087  0.2156  0.1295
 4378TIP3    H134625   5.872   2.827   0.001  0.7865 -1.2280  1.9100
 4378TIP3    H234626   5.874   2.876   0.144  2.0921  1.6350  0.9882
 4379TIP3   OH234627   0.174   4.531   0.351 -0.0730 -0.0149 -0.0696
 4379TIP3    H134628   0.220   4.550   0.433  0.7580 -0.8319 -0.3312
 4379TIP3    H234629   0.244   4.524   0.286 -0.6435 -0.4772 -0.6378
 4380TIP3   OH234630   5.207   3.207  16.747 -0.3244 -0.1491  0.2878
 4380TIP3    H134631   5.289   3.254  16.766 -0.9957  1.0362  0.3588
 4380TIP3    H234632   5.175   3.179  16.833  0.4419 -1.4014  0.1862
 4381TIP3   OH234633   1.862   0.329   0.184  0.0525  0.1197  0.4069
 4381TIP3    H134634   1.929   0.347   0.118 -0.0060 -0.1373  0.2751
 4381TIP3    H234635   1.909   0.335   0.268  0.5913 -1.5098  0.2544
 4382TIP3   OH234636   4.424   2.191   4.180 -0.3321  0.0569  0.1111
 4382TIP3    H134637   4.374   2.232   4.109  1.4791  0.6057 -0.9023
 4382TIP3    H234638   4.442   2.262   4.241 -0.1736  0.0207  0.1065
 4383TIP3   OH234639   6.741   2.498   3.698 -0.2291 -0.4276  0.5586
 4383TIP3    H134640   6.732   2.494   3.793  0.0455 -2.6713  0.5559
 4383TIP3    H234641   6.690   2.574   3.671 -0.6925 -0.0322  2.4574
 4384TIP3   OH234642   4.737   0.719   3.887  0.5426 -0.3678  0.0540
 4384TIP3    H134643   4.793   0.790   3.854 -0.9193  0.5093 -0.6481
 4384TIP3    H234644   4.722   0.663   3.811  0.7621 -0.8010  0.3278
 4385TIP3   OH234645   6.577   2.728  11.677  0.1024  0.4223  0.7057
 4385TIP3    H134646   6.529   2.787  11.736 -1.0042 -0.8344  1.1179
 4385TIP3    H234647   6.648   2.693  11.731  0.1311  0.5774  0.7702
 4386TIP3   OH234648   5.706   4.369  16.283  0.2724  0.7755  0.0424
 4386TIP3    H134649   5.617   4.376  16.319  0.0819  1.7607 -0.5636
 4386TIP3    H234650   5.705   4.428  16.208  0.3766 -1.7914 -2.1342
 4387TIP3   OH234651   1.346   3.033   0.328  0.1734  0.0968  0.1350
 4387TIP3    H134652   1.437   3.048   0.354  1.8440 -0.5719 -4.3985
 4387TIP3    H234653   1.336   2.938   0.329  0.7623 -0.0649 -2.4726
 4388TIP3   OH234654   3.736   6.344   2.944  0.0059  0.4543 -0.0354
 4388TIP3    H134655   3.741   6.439   2.932 -0.7726  0.4728 -0.2662
 4388TIP3    H234656   3.804   6.325   3.009  1.0314  0.9931 -0.9156
 4389TIP3   OH234657   1.190   6.782  12.140  0.7288  0.7353 -1.1277
 4389TIP3    H134658   1.248   6.757  12.067  0.4535 -2.2836 -0.4415
 4389TIP3    H234659   1.103   6.782  12.101  0.6926  0.2051 -1.0535
 4390TIP3   OH234660   5.618   0.813  12.808 -0.0530 -0.4673 -0.5651
 4390TIP3    H134661   5.619   0.771  12.894 -1.7499 -0.7036 -0.6352
 4390TIP3    H234662   5.653   0.900  12.824  0.0671 -0.6599  0.2821
 4391TIP3   OH234663   3.382   4.315   1.627  0.1189 -0.1105  0.5854
 4391TIP3    H134664   3.372   4.228   1.666 -1.9150 -0.5498 -0.7929
 4391TIP3    H234665   3.350   4.376   1.694 -1.1498 -0.6750  0.5184
 4392TIP3   OH234666   1.519   5.308   0.618  0.5007 -0.3201 -0.2191
 4392TIP3    H134667   1.466   5.243   0.664 -1.8254  1.4346 -0.2234
 4392TIP3    H234668   1.553   5.365   0.687 -0.5275  0.5640 -0.4096
 4393TIP3   OH234669   3.709   6.299   0.272 -0.3873  0.1488 -0.1364
 4393TIP3    H134670   3.778   6.242   0.304  1.6407  1.6067 -1.6902
 4393TIP3    H234671   3.707   6.371   0.335  0.4775  0.7667 -0.7916
 4394TIP3   OH234672   4.425   4.762   3.334  0.1572  0.2984  0.2516
 4394TIP3    H134673   4.479   4.761   3.255 -0.1072  0.7230  0.0562
 4394TIP3    H234674   4.351   4.705   3.313 -0.2329  0.9024 -0.0496
 4395TIP3   OH234675   3.406   4.408  16.180  0.3144  0.1410  0.4205
 4395TIP3    H134676   3.501   4.391  16.181  0.2749 -0.3949 -1.2107
 4395TIP3    H234677   3.368   4.324  16.156 -0.3705  0.9238 -1.4296
 4396TIP3   OH234678   1.319   3.223  14.631  0.0503  0.1211 -0.0323
 4396TIP3    H134679   1.331   3.164  14.557  0.9312  0.7594 -0.4155
 4396TIP3    H234680   1.358   3.177  14.705 -2.0057 -1.0914  0.3449
 4397TIP3   OH234681   2.048   4.981   1.630 -0.3645 -0.1838 -0.3224
 4397TIP3    H134682   1.958   5.007   1.646 -0.4142 -0.9012  0.6952
 4397TIP3    H234683   2.042   4.907   1.570 -0.5165 -0.6554  0.2570
 4398TIP3   OH234684   5.116   0.023   4.944 -0.3722 -0.2794 -0.5562
 4398TIP3    H134685   5.167   0.090   4.899  0.9880 -1.1193 -0.3073
 4398TIP3    H234686   5.106  -0.048   4.880 -0.7477 -0.3552 -0.4178
 4399TIP3   OH234687   5.582   1.657   0.986  0.0934  0.2770  0.2989
 4399TIP3    H134688   5.664   1.692   0.953  1.6306 -1.6452  1.8183
 4399TIP3    H234689   5.587   1.667   1.081 -0.9997 -0.7048  0.4966
 4400TIP3   OH234690   1.215   1.967   1.839 -0.0555  0.6086 -0.7328
 4400TIP3    H134691   1.146   2.033   1.839  1.1008  1.8699 -0.5282
 4400TIP3    H234692   1.288   2.009   1.883  0.6645 -0.9011 -0.4082
 4401TIP3   OH234693   3.640   5.411   5.898  0.0152 -0.0225 -0.2162
 4401TIP3    H134694   3.730   5.427   5.928  0.5170 -1.9460 -0.5578
 4401TIP3    H234695   3.630   5.317   5.905 -1.7381  0.0908 -0.9249
 4402TIP3   OH234696   6.410   2.460  14.712 -0.1322 -0.1515 -0.4974
 4402TIP3    H134697   6.410   2.551  14.741  1.1434 -0.7116  1.5057
 4402TIP3    H234698   6.457   2.461  14.629 -1.4763  1.1917 -1.2873
 4403TIP3   OH234699   6.709   1.450  15.407 -0.0885  0.1911  0.2208
 4403TIP3    H134700   6.802   1.428  15.399 -0.3861 -0.8093 -0.7522
 4403TIP3    H234701   6.691   1.443  15.500  0.6149 -0.5008  0.3177
 4404TIP3   OH234702   0.967   2.364  16.868  0.1181 -0.1191  0.2969
 4404TIP3    H134703   1.044   2.366  16.811  0.0865  0.1364  0.2644
 4404TIP3    H234704   0.988   2.298  16.935  0.5472  0.2726  0.5490
 4405TIP3   OH234705   1.293   0.369   2.420 -0.1095  0.2032  0.0489
 4405TIP3    H134706   1.206   0.408   2.410 -0.4079 -0.8560 -2.1247
 4405TIP3    H234707   1.276   0.278   2.441  0.4717  0.0740 -0.0305
 4406TIP3   OH234708   4.089   6.597  13.250 -0.1032 -0.5108  0.1723
 4406TIP3    H134709   4.008   6.643  13.272  0.6651  1.4052 -0.8235
 4406TIP3    H234710   4.103   6.616  13.157 -0.2295 -3.5826 -0.5990
 4407TIP3   OH234711   2.953   2.102  16.138  0.1757 -0.9149  0.3369
 4407TIP3    H134712   2.953   2.138  16.226  1.4441  1.3142 -0.4843
 4407TIP3    H234713   3.040   2.063  16.128  0.0823 -1.0466  0.0228
 4408TIP3   OH234714   0.162   3.095  15.411 -0.7555  0.2695  0.4520
 4408TIP3    H134715   0.099   3.073  15.343  0.8707  0.9088 -1.3464
 4408TIP3    H234716   0.178   3.013  15.457 -0.0388 -0.7788 -1.5698
 4409TIP3   OH234717   1.674   2.494   5.336  0.3930  0.5617 -0.3672
 4409TIP3    H134718   1.650   2.574   5.382  1.1743  0.6156 -0.0378
 4409TIP3    H234719   1.737   2.451   5.394  0.2629 -0.1107 -0.7085
 4410TIP3   OH234720   1.512   2.054  15.245  0.3611 -0.6219  0.3522
 4410TIP3    H134721   1.561   2.011  15.315  0.0195 -2.4644 -0.4797
 4410TIP3    H234722   1.432   2.084  15.286  0.3961 -1.2186  0.8727
 4411TIP3   OH234723   1.463   1.414   6.025  0.7926 -0.0026 -0.2949
 4411TIP3    H134724   1.451   1.506   6.004  0.5340  0.4434  1.6323
 4411TIP3    H234725   1.384   1.371   5.991  0.0259  0.7941  0.4390
 4412TIP3   OH234726   2.991   2.116  16.928  0.1044  0.1376 -0.0791
 4412TIP3    H134727   3.078   2.156  16.926  0.5022 -0.6723  0.7230
 4412TIP3    H234728   2.956   2.131  16.840  0.7937  1.0267 -0.2167
 4413TIP3   OH234729   3.142   3.326  11.781  0.4918  0.2614 -0.3679
 4413TIP3    H134730   3.057   3.362  11.753  0.4251 -0.1643 -0.7167
 4413TIP3    H234731   3.205   3.393  11.754  0.0503  2.0458  2.5305
 4414TIP3   OH234732   5.580   1.502   0.240  0.2294 -0.1056 -0.0513
 4414TIP3    H134733   5.647   1.533   0.301  0.5196 -2.0445  0.6987
 4414TIP3    H234734   5.523   1.446   0.294 -0.5680 -0.4241 -1.1850
 4415TIP3   OH234735   0.299   0.721   4.754  0.0054 -0.5142 -0.4920
 4415TIP3    H134736   0.389   0.723   4.721  0.5711 -0.8381  0.9568
 4415TIP3    H234737   0.274   0.813   4.764  1.6014 -0.2733  2.6512
 4416TIP3   OH234738   6.147   3.102  16.367  0.1916  0.3707 -0.7202
 4416TIP3    H134739   6.122   3.193  16.383  0.0075  0.1188  0.5351
 4416TIP3    H234740   6.185   3.073  16.450  1.2585 -0.3737 -1.4463
 4417TIP3   OH234741   5.277   3.443  15.959 -0.3052 -0.3164 -0.1056
 4417TIP3    H134742   5.269   3.455  16.054 -0.1062 -1.2907  0.0429
 4417TIP3    H234743   5.253   3.351  15.945 -1.7042  0.1812 -1.1614
 4418TIP3   OH234744   6.132   2.163   0.250 -0.3510  0.0754  0.8180
 4418TIP3    H134745   6.082   2.209   0.181 -1.6080 -0.8199  1.0895
 4418TIP3    H234746   6.108   2.071   0.239 -0.3081 -0.1215  2.2458
 4419TIP3   OH234747   5.496   5.078   6.841  0.6115 -0.1650  0.2586
 4419TIP3    H134748   5.522   5.138   6.910  0.2854  2.3629 -1.6827
 4419TIP3    H234749   5.495   5.131   6.762 -2.0572 -2.1373 -1.2039
 4420TIP3   OH234750   2.293   0.851  11.427  0.2628  0.1679 -0.7248
 4420TIP3    H134751   2.351   0.786  11.387 -0.9683 -2.7845  1.8362
 4420TIP3    H234752   2.341   0.881  11.504  0.0805  1.0098 -0.9250
 4421TIP3   OH234753   3.359   0.935  10.923 -0.1964  0.1587  0.7670
 4421TIP3    H134754   3.294   0.869  10.899 -1.0574  1.0843  0.5023
 4421TIP3    H234755   3.393   0.967  10.839 -0.5975  0.8437  0.8590
 4422TIP3   OH234756   4.094   5.272   5.382 -0.5752  0.1598  0.1802
 4422TIP3    H134757   4.038   5.349   5.371  0.4971  0.8694 -0.4942
 4422TIP3    H234758   4.173   5.306   5.423 -0.3305 -0.6936  0.4273
 4423TIP3   OH234759   0.614   4.881  13.890  0.3291  0.2852 -0.0733
 4423TIP3    H134760   0.570   4.869  13.975 -0.8409 -0.4219 -0.7371
 4423TIP3    H234761   0.632   4.792  13.861 -0.2069  0.4736 -1.0147
 4424TIP3   OH234762   0.293   6.055   3.745  0.3392  0.3109  0.2653
 4424TIP3    H134763   0.339   6.128   3.785  1.0800  0.5751 -1.0317
 4424TIP3    H234764   0.347   5.978   3.763  0.1097  0.2448  0.6946
 4425TIP3   OH234765   2.030   3.146  11.084 -0.0076  0.3051 -0.5066
 4425TIP3    H134766   2.017   3.241  11.084  1.0359  0.5223  1.9672
 4425TIP3    H234767   2.116   3.133  11.044  0.5486  0.5840  0.5527
 4426TIP3   OH234768   3.888   2.177  14.377 -0.0818  0.4863  0.8064
 4426TIP3    H134769   3.901   2.164  14.471 -1.4138  0.6381  1.0208
 4426TIP3    H234770   3.968   2.142  14.338 -0.1703 -1.0759  1.8879
 4427TIP3   OH234771   1.442   6.176  13.735  0.2379  0.0222 -0.2148
 4427TIP3    H134772   1.362   6.226  13.750 -0.0880 -0.2494 -1.0051
 4427TIP3    H234773   1.468   6.197  13.645  0.3852 -0.8172 -0.3801
 4428TIP3   OH234774   2.414   2.485  12.346 -0.6924 -0.4454 -0.2676
 4428TIP3    H134775   2.400   2.525  12.260 -0.8089 -0.8461 -0.4363
 4428TIP3    H234776   2.326   2.471  12.381 -0.6930 -1.4764 -0.6410
 4429TIP3   OH234777   0.957   6.073  16.802 -0.6888  0.4320  0.1221
 4429TIP3    H134778   0.864   6.055  16.815 -0.9492  1.0360 -0.7843
 4429TIP3    H234779   0.970   6.161  16.837 -0.5530  0.5164 -0.1341
 4430TIP3   OH234780   0.964   0.102   2.862  0.0646 -0.9592 -0.3176
 4430TIP3    H134781   0.915   0.041   2.918 -0.9758  0.2292  0.1069
 4430TIP3    H234782   1.021   0.149   2.922  1.0459 -1.6468 -0.6801
 4431TIP3   OH234783   5.971   0.626   2.346 -0.3446  0.4897  0.0625
 4431TIP3    H134784   6.043   0.585   2.297 -0.8987 -1.7743  0.9889
 4431TIP3    H234785   5.899   0.629   2.284 -0.2528  0.1584 -0.0655
 4432TIP3   OH234786   0.182   2.060   1.757 -0.0326  0.9354 -0.1042
 4432TIP3    H134787   0.141   2.043   1.842 -0.4416 -0.0574 -0.4856
 4432TIP3    H234788   0.273   2.081   1.779  0.6476 -2.0883  0.4796
 4433TIP3   OH234789   3.465   4.925   2.587 -0.1424  0.4541  0.1778
 4433TIP3    H134790   3.431   4.994   2.530  1.9676  1.0058 -0.5072
 4433TIP3    H234791   3.519   4.971   2.651  1.0301 -0.4994 -0.0831
 4434TIP3   OH234792   5.835   5.690  13.606 -0.4391  0.0392 -0.4761
 4434TIP3    H134793   5.828   5.612  13.552 -1.3764  0.3465 -0.8228
 4434TIP3    H234794   5.878   5.660  13.686 -0.4414 -0.7432 -0.7577
 4435TIP3   OH234795   4.438   3.151   5.855  0.8812  0.4226  0.3317
 4435TIP3    H134796   4.492   3.074   5.874 -0.1713 -0.6275 -0.7284
 4435TIP3    H234797   4.451   3.167   5.762  0.3782  0.9688  0.3504
 4436TIP3   OH234798   2.531   2.197   4.781  0.1493 -0.0871 -0.0139
 4436TIP3    H134799   2.539   2.178   4.687 -1.1802  1.3867 -0.4649
 4436TIP3    H234800   2.571   2.283   4.791 -0.2622  0.0250  0.6727
 4437TIP3   OH234801   4.346   5.439   4.407 -0.1052  0.1408  0.1678
 4437TIP3    H134802   4.350   5.508   4.473 -1.5512  2.9425 -2.4372
 4437TIP3    H234803   4.432   5.396   4.412  0.5658  1.5775  2.4329
 4438TIP3   OH234804   4.756   6.811  12.987  0.0517 -0.0773  0.0747
 4438TIP3    H134805   4.814   6.810  12.911 -1.5792 -1.8062 -1.2566
 4438TIP3    H234806   4.737   6.904  13.003  0.7097  0.3305 -1.4082
 4439TIP3   OH234807   1.744   4.311   1.981 -0.4047 -0.3922 -0.1078
 4439TIP3    H134808   1.837   4.292   1.988 -0.5465 -0.5519  2.3219
 4439TIP3    H234809   1.703   4.227   1.960 -0.1260 -0.6368  0.3218
 4440TIP3   OH234810   2.708   0.020   1.737  0.0522  0.3353 -0.4193
 4440TIP3    H134811   2.639  -0.011   1.796 -0.2649 -0.5707 -1.2406
 4440TIP3    H234812   2.759   0.081   1.790 -0.7976  0.2741  0.4998
 4441TIP3   OH234813   1.994   5.010   0.513  0.0686 -0.2887  0.9013
 4441TIP3    H134814   2.005   5.091   0.562 -0.5586  0.5418 -0.2591
 4441TIP3    H234815   1.931   4.959   0.563  0.2933  0.0460  1.5278
 4442TIP3   OH234816   6.758   3.443  15.023 -0.0939 -0.4221  0.7868
 4442TIP3    H134817   6.691   3.465  14.958  0.8814  0.0828 -0.0910
 4442TIP3    H234818   6.786   3.528  15.058  0.4363 -0.5874  0.7752
 4443TIP3   OH234819   4.191   5.441  15.159  0.2503  0.3744 -0.3939
 4443TIP3    H134820   4.263   5.486  15.204 -0.6294 -0.2954  1.8415
 4443TIP3    H234821   4.117   5.450  15.218 -0.9777 -0.6962 -1.6997
 4444TIP3   OH234822   6.334   0.832  17.180 -0.2399 -0.0248 -0.3423
 4444TIP3    H134823   6.269   0.763  17.186  0.3472 -0.5794 -0.2680
 4444TIP3    H234824   6.291   0.901  17.130 -0.7611 -0.5239 -0.5959
 4445TIP3   OH234825   6.077   6.704  15.965 -0.1611 -0.1698 -0.5830
 4445TIP3    H134826   6.149   6.742  16.016 -1.4070  0.7540  0.5666
 4445TIP3    H234827   6.028   6.652  16.029 -0.6129 -0.6515 -1.3129
 4446TIP3   OH234828   0.002   1.117  13.711  0.4991  0.4052 -0.2754
 4446TIP3    H134829   0.078   1.098  13.766  0.4657  1.0838  0.0166
 4446TIP3    H234830   0.008   1.211  13.695  0.9019  0.1133 -2.0143
 4447TIP3   OH234831   1.191   6.018   1.890  0.0234  0.0815  0.4538
 4447TIP3    H134832   1.173   6.027   1.796  2.8198  0.1255 -0.1770
 4447TIP3    H234833   1.181   5.924   1.908 -1.2975  0.1845  0.3257
 4448TIP3   OH234834   2.272   4.563   1.664 -0.1299  0.4829  0.1149
 4448TIP3    H134835   2.331   4.493   1.634 -0.5472  0.1830 -0.0100
 4448TIP3    H234836   2.282   4.563   1.759 -0.8937 -0.4401  0.2063
 4449TIP3   OH234837   4.282   5.743  11.136 -0.1674  0.2571 -0.9416
 4449TIP3    H134838   4.280   5.813  11.201 -0.6599 -0.7808  0.1950
 4449TIP3    H234839   4.223   5.773  11.067 -1.1557  0.5545 -0.0006
 4450TIP3   OH234840   2.930   4.268   2.385 -0.0675 -0.4265  0.4659
 4450TIP3    H134841   3.022   4.296   2.381  0.1792 -1.3199 -0.6819
 4450TIP3    H234842   2.916   4.221   2.302 -1.8917  0.6753  0.1048
 4451TIP3   OH234843   5.853   3.604  13.412  0.2027 -0.0566  0.1977
 4451TIP3    H134844   5.938   3.643  13.430  0.0268  0.5203 -0.1929
 4451TIP3    H234845   5.872   3.529  13.356  0.5271 -0.4227  0.7941
 4452TIP3   OH234846   4.285   4.446   4.596 -0.0947 -0.1860 -0.4095
 4452TIP3    H134847   4.263   4.519   4.654 -0.1901  0.2789 -1.0165
 4452TIP3    H234848   4.364   4.474   4.551  0.4835 -0.9114  0.1179
 4453TIP3   OH234849   5.034   6.677  11.731  0.1573  0.0374 -0.4771
 4453TIP3    H134850   5.074   6.607  11.679 -1.2691 -1.5320  0.4214
 4453TIP3    H234851   5.029   6.641  11.819 -0.5826  1.3143  0.0296
 4454TIP3   OH234852   3.195   5.032  11.132  0.5430 -0.2974 -0.0409
 4454TIP3    H134853   3.249   5.107  11.106  1.0362 -0.7641 -0.3795
 4454TIP3    H234854   3.248   4.985  11.196 -0.2676  0.2994  1.0884
 4455TIP3   OH234855   4.352   3.254  16.582  0.2836  0.7344  0.0394
 4455TIP3    H134856   4.387   3.257  16.671 -0.1087 -0.6734  0.2624
 4455TIP3    H234857   4.258   3.242  16.594  0.5920 -3.7166 -0.4514
 4456TIP3   OH234858   4.310   2.912  16.839  0.2363  0.1584  0.1524
 4456TIP3    H134859   4.268   2.986  16.883  0.1614 -1.0700  2.3046
 4456TIP3    H234860   4.345   2.858  16.911  2.1473 -0.8177 -1.4122
 4457TIP3   OH234861   1.598   1.243   2.899  0.1099  0.0743 -0.0152
 4457TIP3    H134862   1.589   1.188   2.822 -0.3520 -0.9789  0.7626
 4457TIP3    H234863   1.512   1.282   2.911 -0.0039 -0.2826  0.3421
 4458TIP3   OH234864   0.248   3.214   3.481  0.3723  0.5082 -0.0088
 4458TIP3    H134865   0.156   3.234   3.463 -0.2958  0.0082  2.5466
 4458TIP3    H234866   0.289   3.300   3.497  0.2404  0.6762 -0.5335
 4459TIP3   OH234867   2.580   2.016  12.867 -0.1370 -0.0983  0.6877
 4459TIP3    H134868   2.591   1.921  12.870 -1.8723 -0.4621 -1.5461
 4459TIP3    H234869   2.619   2.043  12.784 -1.4326  0.8140  0.3362
 4460TIP3   OH234870   2.422   0.848  16.490 -0.2137  0.0624 -0.1756
 4460TIP3    H134871   2.378   0.764  16.474 -2.8006  1.4362 -0.7858
 4460TIP3    H234872   2.400   0.870  16.580  1.6176 -0.5002  0.4489
 4461TIP3   OH234873   2.814   5.611   4.178 -0.0588  0.0388 -0.1338
 4461TIP3    H134874   2.732   5.632   4.223 -0.7027 -1.8644 -0.3662
 4461TIP3    H234875   2.865   5.560   4.241  0.1116 -0.4747 -0.6757
 4462TIP3   OH234876   5.441   1.081  16.555  0.6346 -0.1937 -0.7914
 4462TIP3    H134877   5.363   1.102  16.504  0.5691 -0.7287 -0.9138
 4462TIP3    H234878   5.408   1.046  16.638  0.7466 -0.0603 -0.6874
 4463TIP3   OH234879   3.953   5.365  14.298 -0.1266  0.6612  0.0546
 4463TIP3    H134880   3.868   5.346  14.336  0.0736  0.9298  0.6431
 4463TIP3    H234881   3.935   5.383  14.206 -0.2787 -2.9182 -0.7350
 4464TIP3   OH234882   1.776   0.821  12.163  0.2745  0.0038 -0.3348
 4464TIP3    H134883   1.724   0.815  12.083 -0.2771  0.4469 -0.0171
 4464TIP3    H234884   1.718   0.789  12.232  0.6510 -0.1162 -0.0689
 4465TIP3   OH234885   6.142   0.678   0.201  0.0331  0.2143  0.2452
 4465TIP3    H134886   6.102   0.596   0.171 -0.2278  0.4791 -0.1386
 4465TIP3    H234887   6.188   0.654   0.281 -0.0696 -0.3029  0.1539
 4466TIP3   OH234888   5.775   0.812  15.410  0.1764  0.1368  0.1122
 4466TIP3    H134889   5.687   0.795  15.444 -0.2748 -0.8162 -1.4511
 4466TIP3    H234890   5.813   0.726  15.396  2.0223  0.5148  2.2664
 4467TIP3   OH234891   6.810   3.316  13.730 -0.7844  0.2093 -0.8423
 4467TIP3    H134892   6.820   3.298  13.636 -0.7150  0.5576 -0.9017
 4467TIP3    H234893   6.738   3.377  13.735 -1.3941 -0.5128 -0.5909
 4468TIP3   OH234894   3.342   3.617   3.598 -0.2219 -0.9252  0.5267
 4468TIP3    H134895   3.308   3.696   3.641 -0.6032 -0.6176 -0.3130
 4468TIP3    H234896   3.437   3.626   3.603 -0.2613 -0.8126  1.1574
 4469TIP3   OH234897   4.543   5.359  15.450 -0.0841 -0.3525 -0.1747
 4469TIP3    H134898   4.472   5.304  15.417 -0.7119  0.7479 -0.6836
 4469TIP3    H234899   4.611   5.296  15.475 -1.4361 -1.4811  0.8797
 4470TIP3   OH234900   4.172   1.405   0.913  0.0954  0.4454  0.2929
 4470TIP3    H134901   4.193   1.334   0.853  0.9056 -0.0555  1.1357
 4470TIP3    H234902   4.203   1.484   0.869  0.5551  0.1019 -0.0146
 4471TIP3   OH234903   6.471   0.137   5.379  0.5599  0.4833  0.0970
 4471TIP3    H134904   6.394   0.093   5.342 -0.2075  0.5431  1.5631
 4471TIP3    H234905   6.520   0.067   5.422  0.1275  0.7915  1.1190
 4472TIP3   OH234906   3.113   0.353  12.814  0.5650 -0.5186 -0.0109
 4472TIP3    H134907   3.124   0.262  12.841  2.3116 -0.6663 -1.0693
 4472TIP3    H234908   3.062   0.393  12.885 -0.2912 -2.3069  0.4437
 4473TIP3   OH234909   6.053   2.213  10.970 -0.2050 -0.1422 -0.0449
 4473TIP3    H134910   6.021   2.125  10.990  2.6922 -1.0781  0.9388
 4473TIP3    H234911   6.103   2.202  10.889 -1.2816  1.0254 -0.9075
 4474TIP3   OH234912   3.687   3.188   2.111  0.1468  0.5881  0.0511
 4474TIP3    H134913   3.664   3.263   2.057  1.2155  0.6115 -0.4113
 4474TIP3    H234914   3.604   3.154   2.143 -0.4110  1.3900 -0.5156
 4475TIP3   OH234915   0.654   4.186  13.856  0.5023  0.1561  0.0916
 4475TIP3    H134916   0.578   4.241  13.871  0.7793  0.7275 -0.5092
 4475TIP3    H234917   0.728   4.240  13.884  0.6971 -0.3302  0.5184
 4476TIP3   OH234918   6.606   4.380   1.756  0.8097 -0.3080 -0.6512
 4476TIP3    H134919   6.597   4.441   1.683 -0.7520 -0.2280 -0.4288
 4476TIP3    H234920   6.657   4.428   1.822 -1.5614  1.3647  0.0925
 4477TIP3   OH234921   0.489   5.471  13.688  0.9489 -0.3514 -0.7844
 4477TIP3    H134922   0.404   5.494  13.725  0.0680 -0.8299 -2.3729
 4477TIP3    H234923   0.469   5.400  13.627  2.6744 -1.2295 -0.3779
 4478TIP3   OH234924   0.820   1.808   0.938  0.1689 -0.1524 -0.1769
 4478TIP3    H134925   0.785   1.822   0.849  0.9285 -1.2984 -0.6758
 4478TIP3    H234926   0.912   1.786   0.924  1.0896  2.4623  1.0942
 4479TIP3   OH234927   0.875   1.419   2.594 -0.6697  0.4482 -0.0350
 4479TIP3    H134928   0.790   1.465   2.591 -0.3221  1.3922  2.1794
 4479TIP3    H234929   0.854   1.328   2.576 -2.1450  0.7060  0.2469
 4480TIP3   OH234930   0.595   5.032  15.575  0.1752  0.3319 -0.3459
 4480TIP3    H134931   0.557   5.106  15.623 -1.0892 -1.1520  1.0762
 4480TIP3    H234932   0.519   4.986  15.540  0.8317 -1.0130 -0.0643
 4481TIP3   OH234933   6.644   5.604  15.014  0.6565 -0.4302 -0.0002
 4481TIP3    H134934   6.550   5.588  15.020  0.4815  0.4772 -0.1249
 4481TIP3    H234935   6.663   5.662  15.088  0.9164  0.2266 -0.5704
 4482TIP3   OH234936   4.931   0.141   5.085 -0.0331 -0.0009  0.1486
 4482TIP3    H134937   4.852   0.128   5.032  0.4086 -2.1440 -0.0541
 4482TIP3    H234938   4.999   0.093   5.039  1.0666  0.6098  1.1014
 4483TIP3   OH234939   4.858   0.458   2.598  0.2128 -0.1988  0.1760
 4483TIP3    H134940   4.932   0.409   2.563 -0.1954  0.2108 -1.3574
 4483TIP3    H234941   4.838   0.416   2.682  1.0485 -1.4413 -0.2246
 4484TIP3   OH234942   2.530   4.416  11.511 -0.5790 -0.1949 -0.1949
 4484TIP3    H134943   2.451   4.470  11.509 -1.5050 -1.5219 -0.0752
 4484TIP3    H234944   2.527   4.372  11.595 -0.5080 -1.4059 -0.8056
 4485TIP3   OH234945   3.573   2.113  10.661 -0.6630 -0.0354 -0.3418
 4485TIP3    H134946   3.537   2.169  10.593  0.0378  1.1390  0.2315
 4485TIP3    H234947   3.646   2.067  10.619  0.8607  1.9371 -0.0060
 4486TIP3   OH234948   5.542   2.476   6.306  0.0877 -0.2015 -0.5548
 4486TIP3    H134949   5.505   2.404   6.358  0.3973  0.0907  0.0764
 4486TIP3    H234950   5.636   2.458   6.303  0.8675  2.1692  2.9594
 4487TIP3   OH234951   2.402   3.374   2.335 -0.1749 -0.1095  0.5245
 4487TIP3    H134952   2.455   3.316   2.389 -0.0594 -0.0369  0.4905
 4487TIP3    H234953   2.447   3.376   2.250 -0.2123 -0.0214  0.5062
 4488TIP3   OH234954   6.037   6.512   1.181 -0.6587  0.1276  0.1098
 4488TIP3    H134955   6.076   6.471   1.104 -1.4353  0.3423 -0.4075
 4488TIP3    H234956   5.988   6.586   1.146 -1.0640  0.1902  0.8082
 4489TIP3   OH234957   0.149   5.421  11.976  0.1443  0.1663  0.2315
 4489TIP3    H134958   0.201   5.490  11.935  0.4811 -0.0517  0.2911
 4489TIP3    H234959   0.131   5.453  12.064 -1.5375  1.1459 -0.4190
 4490TIP3   OH234960   3.981   2.972  16.416 -0.1563 -0.1012  0.6548
 4490TIP3    H134961   4.043   2.969  16.488  0.8654  1.4711 -0.0954
 4490TIP3    H234962   4.007   3.048  16.365 -1.1213 -0.8899 -1.1314
 4491TIP3   OH234963   4.129   6.424   3.592  0.0231  0.5738  0.1686
 4491TIP3    H134964   4.153   6.334   3.614 -1.2640  0.4017  0.9499
 4491TIP3    H234965   4.201   6.477   3.626  1.4130 -0.2068 -1.3840
 4492TIP3   OH234966   5.083   1.680  15.617 -0.1903  0.1645 -0.3088
 4492TIP3    H134967   5.114   1.615  15.555 -0.9430 -1.7999  1.2618
 4492TIP3    H234968   4.997   1.648  15.645 -0.1635  1.3021  1.2260
 4493TIP3   OH234969   2.552   4.660   1.578 -0.2038  0.2542 -0.2167
 4493TIP3    H134970   2.524   4.575   1.613  1.3868 -0.0847  0.2993
 4493TIP3    H234971   2.595   4.703   1.652  1.6517  0.2508 -1.2434
 4494TIP3   OH234972   3.637   2.217   2.564 -0.1408 -0.0317 -0.0128
 4494TIP3    H134973   3.575   2.201   2.635  2.2899  0.1156  2.3085
 4494TIP3    H234974   3.683   2.134   2.554 -0.6772 -0.1538 -1.7434
 4495TIP3   OH234975   5.658   6.731  14.124  0.3629 -0.2276 -0.4623
 4495TIP3    H134976   5.712   6.663  14.164 -1.4534 -1.1455  0.5753
 4495TIP3    H234977   5.666   6.806  14.184 -0.6594 -0.8783  0.5354
 4496TIP3   OH234978   6.212   3.998  11.235 -0.2457  0.0830  0.2931
 4496TIP3    H134979   6.248   4.032  11.153 -2.4543 -0.6345 -1.0317
 4496TIP3    H234980   6.216   3.903  11.226 -1.2656 -0.0010  0.6740
 4497TIP3   OH234981   1.103   5.461  12.879 -0.1953  0.2713  0.2311
 4497TIP3    H134982   1.140   5.494  12.798  0.0985 -0.7365 -0.0707
 4497TIP3    H234983   1.179   5.431  12.929 -0.3439  1.2189  1.0438
 4498TIP3   OH234984   0.330   5.188   0.855  0.1909 -0.1768 -0.3493
 4498TIP3    H134985   0.378   5.181   0.772 -0.8597  0.8011 -1.0679
 4498TIP3    H234986   0.336   5.281   0.878  2.0230 -0.7083  1.6619
 4499TIP3   OH234987   2.182   4.073   5.349  0.2011  0.5126 -0.0696
 4499TIP3    H134988   2.123   4.035   5.284  0.7142 -1.1853  0.4172
 4499TIP3    H234989   2.139   4.056   5.433  0.9855 -0.0434  0.2289
 4500TIP3   OH234990   5.315   5.283   2.640 -0.0274  0.1822  0.1740
 4500TIP3    H134991   5.246   5.251   2.698  0.5770 -0.7960  0.3721
 4500TIP3    H234992   5.397   5.266   2.687  0.5103 -1.0940 -1.1191
 4501TIP3   OH234993   0.702   5.518   3.940 -0.2831 -0.1245  0.1919
 4501TIP3    H134994   0.739   5.460   4.006 -0.0881  0.4728  0.6144
 4501TIP3    H234995   0.616   5.481   3.920  0.1503 -0.9801 -0.0966
 4502TIP3   OH234996   4.782   6.071  14.636 -0.1036  0.1134 -0.0647
 4502TIP3    H134997   4.788   6.161  14.666 -0.4276  0.4992 -1.1179
 4502TIP3    H234998   4.873   6.046  14.616 -0.2747  1.2800 -2.7171
 4503TIP3   OH234999   1.730   1.926  12.635 -0.2021  1.1579  0.5925
 4503TIP3    H135000   1.786   2.003  12.647  0.7662  0.5356  0.1110
 4503TIP3    H235001   1.700   1.932  12.544 -1.1461  1.6266  0.9211
 4504TIP3   OH235002   6.775   0.112   3.873  0.2503 -0.3603 -0.0514
 4504TIP3    H135003   6.716   0.186   3.885  2.5070  1.3455  1.4464
 4504TIP3    H235004   6.813   0.097   3.960  2.8677 -0.5273 -1.1239
 4505TIP3   OH235005   1.828   5.800  15.685 -0.3223  0.0353  0.0763
 4505TIP3    H135006   1.782   5.881  15.664  0.2939  1.0767  2.4384
 4505TIP3    H235007   1.887   5.824  15.757 -0.1456 -2.5314  0.8688
 4506TIP3   OH235008   4.007   0.090  12.763 -0.0914  0.2188 -0.1441
 4506TIP3    H135009   3.971   0.048  12.841 -1.4241  0.7636 -0.4394
 4506TIP3    H235010   3.974   0.038  12.690  0.0615  0.4897 -0.4069
 4507TIP3   OH235011   4.298   1.929  16.836  0.2378  0.1889 -0.0646
 4507TIP3    H135012   4.206   1.904  16.830 -0.5213  2.5269  0.8503
 4507TIP3    H235013   4.341   1.882  16.764 -1.1816 -2.7692  0.8792
 4508TIP3   OH235014   1.626   2.212  17.250 -0.0147 -0.2126 -0.8454
 4508TIP3    H135015   1.629   2.172  17.163 -1.7916 -1.6860 -0.3001
 4508TIP3    H235016   1.669   2.149  17.308 -2.1311 -1.0950 -0.1082
 4509TIP3   OH235017   2.212   1.955  14.173  0.7916 -0.6535 -0.3719
 4509TIP3    H135018   2.168   1.886  14.223 -0.4464  0.6952  0.4857
 4509TIP3    H235019   2.141   2.006  14.135  1.7033 -0.8104 -2.4099
 4510TIP3   OH235020   1.545   5.807   5.919 -0.0932  1.0380 -0.0078
 4510TIP3    H135021   1.517   5.722   5.952  1.0109 -0.2581 -2.1821
 4510TIP3    H235022   1.581   5.852   5.996 -3.9781  1.1366  1.9945
 4511TIP3   OH235023   5.239   4.110   4.948 -0.2502  0.7080 -0.2314
 4511TIP3    H135024   5.248   4.143   4.859 -3.2850  3.5567  0.2873
 4511TIP3    H235025   5.301   4.162   4.999 -0.2135  0.8148 -0.3825
 4512TIP3   OH235026   0.244   0.238  10.804  0.0035  0.6402 -0.4456
 4512TIP3    H135027   0.310   0.307  10.804  0.3338  0.3253 -0.5532
 4512TIP3    H235028   0.181   0.266  10.870  1.3186 -0.0644  1.1835
 4513TIP3   OH235029   2.663   0.894  16.324  0.2023  0.1586 -0.0954
 4513TIP3    H135030   2.605   0.893  16.400  1.2680  0.6751  0.7586
 4513TIP3    H235031   2.721   0.819  16.337  0.7525  0.5761 -0.0915
 4514TIP3   OH235032   4.454   1.701  12.835  0.0800 -0.1349  0.0190
 4514TIP3    H135033   4.495   1.777  12.877  0.0665 -0.5883  0.8936
 4514TIP3    H235034   4.488   1.701  12.746 -1.9759  2.4370 -0.8769
 4515TIP3   OH235035   3.442   2.517  15.143 -0.4445  0.1263  0.1755
 4515TIP3    H135036   3.435   2.433  15.097 -1.5998  0.7354 -0.8194
 4515TIP3    H235037   3.399   2.580  15.085  2.7906  1.9684 -0.4688
 4516TIP3   OH235038   5.116   2.628   1.960 -0.5499  0.5055 -0.7196
 4516TIP3    H135039   5.073   2.712   1.942 -2.5296 -0.2907  0.0785
 4516TIP3    H235040   5.086   2.604   2.047  0.9806 -0.4675 -0.4263
 4517TIP3   OH235041   1.959   0.483   0.457 -0.0585 -0.5886  0.4612
 4517TIP3    H135042   2.012   0.422   0.508 -0.5971 -0.5609  1.0555
 4517TIP3    H235043   1.930   0.549   0.520  2.2483  1.5221 -0.5211
 4518TIP3   OH235044   2.858   3.020  11.730  0.4893 -0.4771 -0.6591
 4518TIP3    H135045   2.832   3.056  11.645 -0.0516  1.9658  0.4292
 4518TIP3    H235046   2.947   2.988  11.717  0.2438 -0.5573 -2.2480
 4519TIP3   OH235047   4.374   1.708  15.247 -0.4356  0.5189  0.3262
 4519TIP3    H135048   4.349   1.757  15.325 -2.3542 -0.7343  0.5805
 4519TIP3    H235049   4.396   1.774  15.182 -4.5852  1.9721  0.0848
 4520TIP3   OH235050   6.553   0.408  15.521  0.1440 -0.1144  0.1901
 4520TIP3    H135051   6.551   0.312  15.517 -0.1489 -0.1235  0.5804
 4520TIP3    H235052   6.609   0.433  15.447 -1.9623 -0.4690 -1.6485
 4521TIP3   OH235053   1.376   6.707  15.528  0.2944 -0.2128  0.1168
 4521TIP3    H135054   1.306   6.647  15.552 -1.1539  1.4467  0.1880
 4521TIP3    H235055   1.357   6.730  15.437 -0.5253  1.8687  0.7654
 4522TIP3   OH235056   0.547   6.590   3.887 -0.0332  0.0828 -0.0705
 4522TIP3    H135057   0.491   6.647   3.940  1.2997  0.7958  0.6089
 4522TIP3    H235058   0.562   6.640   3.806 -1.1844 -0.5495 -0.7045
 4523TIP3   OH235059   2.187   6.496  13.114  0.2752  0.1360 -0.1844
 4523TIP3    H135060   2.265   6.489  13.169 -0.8755 -0.8588  1.3882
 4523TIP3    H235061   2.136   6.567  13.154 -0.4462 -0.4143 -0.1148
 4524TIP3   OH235062   3.638   4.681  11.055  0.1250  0.3084  0.1277
 4524TIP3    H135063   3.556   4.643  11.022  0.4841 -1.1105  0.7943
 4524TIP3    H235064   3.707   4.627  11.016  0.6238 -0.4030  1.8886
 4525TIP3   OH235065   3.251   6.657   1.828  0.2701 -0.2528  0.0723
 4525TIP3    H135066   3.231   6.602   1.753 -1.4826  1.4233 -0.7725
 4525TIP3    H235067   3.224   6.606   1.904 -1.4146 -0.5389 -0.6891
 4526TIP3   OH235068   2.576   4.298   2.023 -0.4699  0.1211 -0.1145
 4526TIP3    H135069   2.488   4.323   1.996 -0.1319  0.2239 -1.1608
 4526TIP3    H235070   2.603   4.366   2.084 -0.8734  0.4289 -0.2772
 4527TIP3   OH235071   3.934   4.287  11.741  0.2648  0.3136 -0.2336
 4527TIP3    H135072   3.856   4.338  11.763 -0.1516 -0.5488  0.3721
 4527TIP3    H235073   3.922   4.264  11.648 -0.8529 -0.8635  0.1657
 4528TIP3   OH235074   6.726   4.889   6.175  0.2189 -0.0412 -0.5155
 4528TIP3    H135075   6.819   4.915   6.170  0.2605  0.3275  1.4362
 4528TIP3    H235076   6.683   4.963   6.218 -0.6301 -0.9754  0.2979
 4529TIP3   OH235077   5.214   6.165  12.711 -0.1027  0.3951 -0.1335
 4529TIP3    H135078   5.220   6.240  12.651  0.3365  0.1954 -0.3508
 4529TIP3    H235079   5.297   6.118  12.697 -0.9940 -0.9642 -1.1284
 4530TIP3   OH235080   3.859   2.056  13.182  0.0098 -0.2006 -0.0310
 4530TIP3    H135081   3.780   2.047  13.235 -1.2559  1.1060 -1.5701
 4530TIP3    H235082   3.920   1.993  13.219 -0.3132  1.4466  3.7019
 4531TIP3   OH235083   1.463   5.890  13.860 -0.0096  0.3778  0.7022
 4531TIP3    H135084   1.454   5.984  13.842 -0.0082  0.3661  0.6394
 4531TIP3    H235085   1.383   5.867  13.908  0.5353  0.6636  1.7795
 4532TIP3   OH235086   5.817   0.881  15.109  0.5511  0.2934 -0.3269
 4532TIP3    H135087   5.808   0.888  15.204  0.5834  0.2252 -0.3181
 4532TIP3    H235088   5.797   0.789  15.090  1.5188  0.0575 -0.2699
 4533TIP3   OH235089   4.661   5.011   3.647  1.0344 -0.3989  0.5900
 4533TIP3    H135090   4.652   4.953   3.723  2.3550  0.6386  1.5943
 4533TIP3    H235091   4.611   5.090   3.671  0.2466 -0.6234 -0.2574
 4534TIP3   OH235092   6.793   2.165  14.445 -0.0631  0.1318 -0.1624
 4534TIP3    H135093   6.783   2.249  14.491 -2.1717 -0.3607  0.3837
 4534TIP3    H235094   6.875   2.130  14.479  0.9270  1.9934 -0.4776
 4535TIP3   OH235095   1.036   5.396  11.861  0.5018  0.2809 -0.3678
 4535TIP3    H135096   1.001   5.422  11.776 -0.3918  0.0040 -0.0997
 4535TIP3    H235097   1.093   5.321  11.842 -0.4115 -0.3638 -0.6299
 4536TIP3   OH235098   5.788   0.540  15.341 -0.0426 -0.5685  0.1826
 4536TIP3    H135099   5.780   0.496  15.426 -2.1729 -0.0895  0.2682
 4536TIP3    H235100   5.698   0.551  15.311  0.6436 -2.0470 -2.8469
 4537TIP3   OH235101   5.752   2.525   2.206 -0.4760 -0.1010  0.2864
 4537TIP3    H135102   5.699   2.603   2.191  0.3442  0.2759 -0.7019
 4537TIP3    H235103   5.799   2.511   2.125  1.3257 -0.1383  1.2976
 4538TIP3   OH235104   0.283   0.660  15.284  0.0538  0.1143  0.5836
 4538TIP3    H135105   0.293   0.748  15.247  3.6001 -0.9089 -1.3413
 4538TIP3    H235106   0.191   0.654  15.307 -0.5388  3.9577 -0.1407
 4539TIP3   OH235107   2.221   1.197  12.616  0.4001 -0.0116  0.0248
 4539TIP3    H135108   2.258   1.271  12.664  0.8473 -0.6954  0.7454
 4539TIP3    H235109   2.294   1.136  12.606 -0.1638 -0.7137  0.1522
 4540TIP3   OH235110   3.054   0.311   6.692 -0.1888  0.2620  0.0002
 4540TIP3    H135111   3.073   0.241   6.630  2.1535  1.1656 -0.4300
 4540TIP3    H235112   3.136   0.322   6.741 -0.6472  2.2981  0.4229
 4541TIP3   OH235113   0.491   2.256  14.660  0.3009 -0.3467  0.2237
 4541TIP3    H135114   0.480   2.161  14.652 -2.7278 -0.0581  0.0951
 4541TIP3    H235115   0.486   2.273  14.754  1.9080 -0.3569  0.3444
 4542TIP3   OH235116   2.175   4.714   0.924  0.1448  0.3434 -0.1415
 4542TIP3    H135117   2.252   4.666   0.956 -0.3986  1.4988  3.2192
 4542TIP3    H235118   2.104   4.649   0.927 -0.0276  0.5695  1.7906
 4543TIP3   OH235119   2.075   3.100  15.492  0.1167 -0.1892  0.6268
 4543TIP3    H135120   2.148   3.044  15.465 -0.4044 -0.3695 -0.4381
 4543TIP3    H235121   2.084   3.178  15.438 -0.7713 -0.4333  0.1037
 4544TIP3   OH235122   3.594   2.347  10.983 -0.2027 -0.3308  0.2641
 4544TIP3    H135123   3.521   2.313  10.931  0.5444  0.4600 -1.3562
 4544TIP3    H235124   3.670   2.295  10.956  0.1736 -0.0055  0.6736
 4545TIP3   OH235125   0.875   3.708  12.038  0.1648  0.2164  0.5314
 4545TIP3    H135126   0.895   3.764  11.963  0.5838 -1.9336 -1.0839
 4545TIP3    H235127   0.954   3.711  12.092  0.5997  0.3470 -0.1031
 4546TIP3   OH235128   4.034   3.480  11.727  0.4084 -0.3297  0.2226
 4546TIP3    H135129   3.952   3.507  11.768  0.6124  0.3283  0.1940
 4546TIP3    H235130   4.055   3.396  11.769 -0.2490 -0.4732  0.2671
 4547TIP3   OH235131   3.941   1.763   5.827 -0.0272 -0.1528 -0.5614
 4547TIP3    H135132   3.902   1.700   5.887 -1.3051 -0.1519 -1.3637
 4547TIP3    H235133   3.979   1.830   5.884 -1.6515  0.1089  0.2596
 4548TIP3   OH235134   4.846   4.124  16.775  0.9320 -0.2715 -0.4707
 4548TIP3    H135135   4.860   4.216  16.750 -0.2765 -0.3392 -1.5133
 4548TIP3    H235136   4.782   4.129  16.846  0.9318 -0.2906 -0.4702
 4549TIP3   OH235137   1.519   1.341   6.295 -0.1721 -0.2941 -0.1883
 4549TIP3    H135138   1.427   1.347   6.320 -0.1886 -0.3158 -0.2423
 4549TIP3    H235139   1.519   1.360   6.201 -0.2989 -1.6882 -0.4914
 4550TIP3   OH235140   0.664   1.657   1.389  0.0111 -0.1212  0.1189
 4550TIP3    H135141   0.693   1.704   1.310 -1.4121  0.6816  0.0405
 4550TIP3    H235142   0.722   1.581   1.394  0.6669  0.2510 -1.2382
 4551TIP3   OH235143   1.812   0.588   2.093 -0.2936  0.3553  0.6653
 4551TIP3    H135144   1.737   0.635   2.130 -1.8486 -0.9579 -0.6680
 4551TIP3    H235145   1.789   0.496   2.100  0.5126 -0.0310 -1.1374
 4552TIP3   OH235146   6.376   4.283   0.907 -0.2080 -0.3687 -0.0283
 4552TIP3    H135147   6.370   4.227   0.829 -1.1398 -2.1015  1.2064
 4552TIP3    H235148   6.290   4.277   0.947  0.6477 -0.7067  1.8876
 4553TIP3   OH235149   6.415   4.731  15.474 -0.0866 -0.0798  0.0994
 4553TIP3    H135150   6.505   4.765  15.478 -0.5000  1.0823 -0.1793
 4553TIP3    H235151   6.389   4.723  15.566  0.1509  0.0062  0.1754
 4554TIP3   OH235152   4.462   4.166   4.387 -1.0332  0.3057  0.0314
 4554TIP3    H135153   4.473   4.109   4.310 -0.4651 -3.4452  2.5926
 4554TIP3    H235154   4.550   4.176   4.422 -1.2233  2.3541  0.0126
 4555TIP3   OH235155   2.479   1.598  16.394 -0.0700  0.6936 -0.3077
 4555TIP3    H135156   2.416   1.663  16.362 -0.4920 -0.2547 -1.4886
 4555TIP3    H235157   2.485   1.534  16.323  0.2026 -0.6600  0.9021
 4556TIP3   OH235158   6.627   2.301  11.839  0.5480  0.2323 -0.3442
 4556TIP3    H135159   6.685   2.372  11.866  1.1532  0.5499 -2.2675
 4556TIP3    H235160   6.582   2.335  11.762  1.4756 -1.7076 -1.8301
 4557TIP3   OH235161   6.682   2.438  14.829  0.1313  0.1476 -0.2663
 4557TIP3    H135162   6.594   2.471  14.849  0.0063 -0.4054  0.1291
 4557TIP3    H235163   6.731   2.515  14.800 -0.4630  0.4733 -0.4204
 4558TIP3   OH235164   2.337   0.973  11.677  0.0586  0.2440 -0.7577
 4558TIP3    H135165   2.322   1.007  11.765 -3.1673  0.7737 -1.4052
 4558TIP3    H235166   2.413   0.915  11.687  0.1509  0.7033  2.2271
 4559TIP3   OH235167   0.347   2.297   2.622  0.2799  0.6353  0.0063
 4559TIP3    H135168   0.309   2.352   2.553  0.7378  0.9686  0.0161
 4559TIP3    H235169   0.414   2.351   2.662 -0.0529  0.4733  0.7911
 4560TIP3   OH235170   1.062   1.701  13.122  0.3566  0.5728  0.4763
 4560TIP3    H135171   1.111   1.707  13.204  0.3106 -1.0311  0.6644
 4560TIP3    H235172   1.122   1.734  13.055  1.0922  0.1673  0.9248
 4561TIP3   OH235173   4.396   4.644  15.272  0.5722 -0.1339 -0.9960
 4561TIP3    H135174   4.445   4.688  15.342  2.4291 -0.4953 -2.0159
 4561TIP3    H235175   4.363   4.716  15.218 -1.5464  0.1956  0.5771
 4562TIP3   OH235176   1.369   6.046  17.181 -0.2417  0.4821 -0.3684
 4562TIP3    H135177   1.380   6.033  17.087 -2.2756 -1.9307 -0.3943
 4562TIP3    H235178   1.436   5.992  17.222 -0.1747  0.5211 -0.4274
 4563TIP3   OH235179   1.279   5.290   5.756 -0.0065  0.4037 -0.6250
 4563TIP3    H135180   1.285   5.209   5.705 -2.9466  0.4714 -1.2329
 4563TIP3    H235181   1.330   5.272   5.835  2.9032 -0.4579 -2.5483
 4564TIP3   OH235182   2.488   5.427   4.594 -0.4882 -0.6383 -0.0733
 4564TIP3    H135183   2.445   5.355   4.547 -0.9198  0.4347 -1.3931
 4564TIP3    H235184   2.430   5.502   4.582 -0.0811 -0.0607  1.3294
 4565TIP3   OH235185   3.676   5.933  15.050  0.9762 -0.1794 -0.5293
 4565TIP3    H135186   3.671   6.019  15.091 -0.6821  0.2930 -1.6355
 4565TIP3    H235187   3.718   5.878  15.116  2.0852  1.4480  0.1961
 4566TIP3   OH235188   3.812   2.317   5.158  0.5004  0.2783  0.5480
 4566TIP3    H135189   3.845   2.329   5.247  0.1611  0.1631  0.6921
 4566TIP3    H235190   3.885   2.342   5.101  1.0387 -0.5560  0.8601
 4567TIP3   OH235191   3.750   0.126   6.088 -0.4343 -0.0139  0.3683
 4567TIP3    H135192   3.840   0.152   6.107 -1.0312  3.0408 -0.4560
 4567TIP3    H235193   3.704   0.136   6.171 -0.2649 -0.3667  0.5055
 4568TIP3   OH235194   2.524   2.078  16.371  0.5572 -0.1306  0.4773
 4568TIP3    H135195   2.504   2.063  16.279 -0.1850  0.0333  0.6098
 4568TIP3    H235196   2.616   2.053  16.380  1.2618  1.8015 -0.7795
 4569TIP3   OH235197   1.254   2.587  12.703 -0.2469  0.0668  0.6514
 4569TIP3    H135198   1.213   2.673  12.703  0.4801  0.4329  0.0509
 4569TIP3    H235199   1.264   2.565  12.610 -2.1324 -1.5273  0.7777
 4570TIP3   OH235200   0.468   3.803   3.122  0.7573  0.5675 -0.0758
 4570TIP3    H135201   0.562   3.804   3.142  0.9636  0.2444 -0.9397
 4570TIP3    H235202   0.444   3.711   3.130  0.9173  0.3773 -1.5192
 4571TIP3   OH235203   2.418   3.054  12.614  0.1500 -0.3563  0.1688
 4571TIP3    H135204   2.470   2.985  12.653  0.5564  0.2326  0.6856
 4571TIP3    H235205   2.346   3.008  12.570  1.7206 -1.2506 -1.5516
 4572TIP3   OH235206   5.699   2.357  11.230 -0.4980 -0.3338  0.6421
 4572TIP3    H135207   5.754   2.328  11.303 -0.0624 -2.7839 -0.5247
 4572TIP3    H235208   5.705   2.285  11.167 -1.0248  1.5710 -1.7220
 4573TIP3   OH235209   5.695   4.753  13.029 -0.1766 -0.5913  0.5996
 4573TIP3    H135210   5.701   4.819  12.960  0.5562 -0.9604  0.3148
 4573TIP3    H235211   5.603   4.726  13.028 -0.3954  0.1257  0.4474
 4574TIP3   OH235212   0.777   3.604  16.440  0.8419  0.3669  0.3508
 4574TIP3    H135213   0.833   3.589  16.516 -0.4170  0.1370  1.2605
 4574TIP3    H235214   0.800   3.693  16.410 -1.1363  2.0038  3.2403
 4575TIP3   OH235215   2.641   5.513  14.341  0.6963 -0.2638  0.8102
 4575TIP3    H135216   2.715   5.516  14.280 -1.0747 -0.0189 -1.4577
 4575TIP3    H235217   2.575   5.461  14.295 -1.9833  2.7101  0.9629
 4576TIP3   OH235218   3.669   5.942  12.640 -0.3442  0.2997 -0.1061
 4576TIP3    H135219   3.590   5.900  12.672 -0.6122  1.9020  1.4702
 4576TIP3    H235220   3.740   5.886  12.671 -0.7667 -0.0548  0.2380
 4577TIP3   OH235221   2.315   1.690  13.784 -0.0291 -0.0643 -0.0096
 4577TIP3    H135222   2.222   1.672  13.800 -0.4624 -0.7926 -2.7916
 4577TIP3    H235223   2.360   1.611  13.814 -0.4315 -0.1837  0.2920
 4578TIP3   OH235224   2.078   0.828  15.591  0.2073 -0.4042 -0.0422
 4578TIP3    H135225   2.017   0.893  15.555  1.7522  1.1153 -0.0199
 4578TIP3    H235226   2.113   0.783  15.515  0.3132 -0.1012 -0.1747
 4579TIP3   OH235227   6.625   4.153  13.589  0.3035  0.3690  0.5170
 4579TIP3    H135228   6.566   4.227  13.574  0.3909  0.4971  0.7969
 4579TIP3    H235229   6.701   4.191  13.633  0.3462  0.1112  0.6708
 4580TIP3   OH235230   3.706   2.221  11.745 -0.3769 -0.5977  0.2665
 4580TIP3    H135231   3.773   2.289  11.751 -1.5861  0.6290  0.1912
 4580TIP3    H235232   3.734   2.167  11.670 -0.2563  0.7802 -0.7112
 4581TIP3   OH235233   2.083   5.092   1.362  0.6008 -0.2353 -0.7840
 4581TIP3    H135234   2.093   5.035   1.438  0.8428  0.1619 -0.5147
 4581TIP3    H235235   2.009   5.056   1.315  1.0976 -1.1098 -0.9160
 4582TIP3   OH235236   3.796   5.851  13.276 -0.3369  0.2568 -0.7559
 4582TIP3    H135237   3.851   5.912  13.228 -0.3068 -0.4365 -1.6290
 4582TIP3    H235238   3.756   5.903  13.346  1.9506  0.6540  0.3568
 4583TIP3   OH235239   2.529   5.714  13.790 -0.4230 -0.1456 -0.4361
 4583TIP3    H135240   2.591   5.641  13.795 -0.0631  0.1443 -0.5844
 4583TIP3    H235241   2.471   5.701  13.865  1.2513  0.8451  1.1309
 4584TIP3   OH235242   0.406   0.396   4.222  0.3961  0.8642  0.2654
 4584TIP3    H135243   0.310   0.390   4.223  0.4104  0.2483 -0.5827
 4584TIP3    H235244   0.429   0.430   4.309 -0.6309  1.8883  0.1602
 4585TIP3   OH235245   6.106   5.140  14.097  0.2006  0.2866 -0.6666
 4585TIP3    H135246   6.143   5.108  14.179  0.1367  1.3121 -0.2287
 4585TIP3    H235247   6.016   5.107  14.096 -0.3436  1.6659  0.4924
 4586TIP3   OH235248   2.727   1.460  14.092  0.4038  0.0575 -1.0138
 4586TIP3    H135249   2.684   1.544  14.079 -0.1629  0.1301  0.9135
 4586TIP3    H235250   2.660   1.395  14.068  0.1178  0.1732 -0.5462
 4587TIP3   OH235251   3.623   3.630   1.331 -0.2054  0.2805  0.6156
 4587TIP3    H135252   3.681   3.555   1.344  0.8231  0.7701 -0.8460
 4587TIP3    H235253   3.563   3.602   1.260 -1.3768  0.0144  1.6705
 4588TIP3   OH235254   4.694   4.467  11.975  0.6008 -0.0146 -0.2848
 4588TIP3    H135255   4.709   4.508  11.890 -1.0208  0.4398 -0.3878
 4588TIP3    H235256   4.678   4.541  12.035 -0.5009 -0.3913 -0.0836
 4589TIP3   OH235257   4.743   1.199  17.182  0.2327  0.0873  0.2732
 4589TIP3    H135258   4.716   1.279  17.137  0.0443  0.4275  0.9825
 4589TIP3    H235259   4.698   1.129  17.135  0.5953  0.3722 -0.5107
 4590TIP3   OH235260   2.294   1.110   1.313 -0.3161 -0.0520  0.2856
 4590TIP3    H135261   2.379   1.137   1.280 -0.8085 -1.2282 -2.1658
 4590TIP3    H235262   2.244   1.192   1.321  0.6234  0.5116  0.5896
 4591TIP3   OH235263   3.810   4.815  13.885 -0.7497  0.4267  0.4180
 4591TIP3    H135264   3.862   4.772  13.952  0.5322 -0.2122 -0.9256
 4591TIP3    H235265   3.796   4.747  13.819 -0.6799  1.4395 -0.6601
 4592TIP3   OH235266   6.404   4.126  12.741 -0.0013 -0.0701 -0.0582
 4592TIP3    H135267   6.393   4.042  12.697  1.3536 -0.6200  0.6045
 4592TIP3    H235268   6.402   4.191  12.670  0.6698 -0.8069 -0.7694
 4593TIP3   OH235269   0.808   3.120   0.366  0.3101 -0.2210  0.0840
 4593TIP3    H135270   0.903   3.103   0.364  0.0158 -2.3005  0.8346
 4593TIP3    H235271   0.797   3.190   0.430  1.3787  0.4965 -0.4890
 4594TIP3   OH235272   0.524   0.874   1.670  0.9600 -0.0685 -0.5689
 4594TIP3    H135273   0.442   0.830   1.693  1.5043  0.1563  2.0561
 4594TIP3    H235274   0.501   0.928   1.593 -1.2461 -0.2960 -0.1439
 4595TIP3   OH235275   1.032   1.866  12.378  0.4050 -0.2741 -0.0501
 4595TIP3    H135276   1.008   1.816  12.456 -1.5783 -0.2150 -0.5888
 4595TIP3    H235277   1.119   1.834  12.355  1.0245 -0.3509  2.1222
 4596TIP3   OH235278   5.200   0.945   1.863 -0.2337 -0.3052 -0.1722
 4596TIP3    H135279   5.132   0.942   1.795  0.4671 -0.2056 -0.8873
 4596TIP3    H235280   5.151   0.938   1.946 -1.0866 -0.5648 -0.6824
 4597TIP3   OH235281   0.745   0.142  16.334 -1.0495 -0.0229  0.0249
 4597TIP3    H135282   0.821   0.199  16.323 -0.6670 -0.5627 -0.1413
 4597TIP3    H235283   0.671   0.196  16.307 -0.6281  0.2108 -0.6924
 4598TIP3   OH235284   5.359   5.081   0.251 -0.3882  0.0192  0.1141
 4598TIP3    H135285   5.371   5.116   0.163 -1.1160 -1.0371 -0.4302
 4598TIP3    H235286   5.437   5.029   0.268  0.0822  0.7986  0.3960
 4599TIP3   OH235287   5.657   2.219   4.252 -0.3988  0.2324  0.0068
 4599TIP3    H135288   5.712   2.233   4.329 -0.1145 -0.0436 -0.1399
 4599TIP3    H235289   5.701   2.268   4.182 -1.3551  1.5698  0.2933
 4600TIP3   OH235290   0.067   5.483  15.401  0.5171  0.3501  0.0386
 4600TIP3    H135291   0.011   5.405  15.402 -1.5807  1.8080  1.0484
 4600TIP3    H235292   0.147   5.454  15.446  0.1108 -1.4033 -0.2607
 4601TIP3   OH235293   5.533   2.909   6.044  0.4410 -0.1639 -0.3304
 4601TIP3    H135294   5.530   2.981   6.107 -0.7392 -1.9962  1.8809
 4601TIP3    H235295   5.483   2.941   5.969 -1.0821  0.9297  1.0694
 4602TIP3   OH235296   4.542   1.728   2.752 -0.5777  0.6841 -0.3979
 4602TIP3    H135297   4.563   1.665   2.821  0.3599 -0.5525 -1.7482
 4602TIP3    H235298   4.518   1.808   2.799 -0.9831 -0.4105  1.3593
 4603TIP3   OH235299   5.995   4.166  15.096 -0.0466 -0.4267  0.0668
 4603TIP3    H135300   5.991   4.140  15.004  1.8175  0.3569 -0.2742
 4603TIP3    H235301   6.013   4.085  15.143  1.2932 -0.4977 -0.5181
 4604TIP3   OH235302   0.468   2.927  11.110 -0.0565  0.1581 -0.3071
 4604TIP3    H135303   0.396   2.891  11.058  0.2405 -0.7144 -0.1263
 4604TIP3    H235304   0.425   2.986  11.172 -0.7113 -0.8742  0.2575
 4605TIP3   OH235305   0.359   6.746   2.773  0.2285  0.0396 -0.2984
 4605TIP3    H135306   0.279   6.798   2.769  1.2485  1.7151  0.2829
 4605TIP3    H235307   0.424   6.804   2.813  1.4675 -1.6388  0.2383
 4606TIP3   OH235308   3.242   2.347   5.908  0.4329  0.3407 -0.5838
 4606TIP3    H135309   3.295   2.280   5.952  0.2234  1.3829  1.3856
 4606TIP3    H235310   3.175   2.297   5.860  0.9954 -0.8873 -0.1248
 4607TIP3   OH235311   2.015   4.552  12.718  0.1575  0.3681  0.3980
 4607TIP3    H135312   1.921   4.534  12.711  0.1084 -0.2510  2.0314
 4607TIP3    H235313   2.027   4.636  12.673 -0.8916 -0.2712 -1.1501
 4608TIP3   OH235314   1.953   2.225   0.952 -0.4118 -0.3008 -0.7468
 4608TIP3    H135315   1.941   2.143   0.905 -1.6476 -0.9513  0.6247
 4608TIP3    H235316   1.872   2.273   0.937 -0.8850 -0.5811  0.7913
 4609TIP3   OH235317   2.778   0.519  11.914  0.2356  0.0392  0.3279
 4609TIP3    H135318   2.866   0.534  11.949 -0.1488  1.6868  0.6387
 4609TIP3    H235319   2.735   0.464  11.980 -0.0345  1.9877  1.8821
 4610TIP3   OH235320   0.836   2.450   4.174  0.2864 -0.1465 -0.1538
 4610TIP3    H135321   0.827   2.409   4.260 -0.9773  0.7883  0.1855
 4610TIP3    H235322   0.771   2.519   4.174  0.9417  0.4997 -1.5106
 4611TIP3   OH235323   2.875   6.351  11.888 -0.0784  0.5956 -0.0129
 4611TIP3    H135324   2.907   6.283  11.947  1.4627 -0.0368 -1.4848
 4611TIP3    H235325   2.809   6.307  11.834  0.2662  0.4983 -0.3606
 4612TIP3   OH235326   1.791   1.164   5.768  0.2779 -0.5358 -0.2977
 4612TIP3    H135327   1.744   1.183   5.687  1.0376  1.7825 -0.2531
 4612TIP3    H235328   1.766   1.235   5.827  3.9840  1.0754 -0.3980
 4613TIP3   OH235329   4.161   0.492   4.495  0.0304  0.5202 -0.0608
 4613TIP3    H135330   4.106   0.459   4.423 -1.1099  0.6560  0.7282
 4613TIP3    H235331   4.102   0.498   4.570  1.3730 -0.4247  1.1384
 4614TIP3   OH235332   3.153   5.758  16.237  0.0806  0.1752 -0.0393
 4614TIP3    H135333   3.243   5.730  16.222  0.2928  0.7912  0.0457
 4614TIP3    H235334   3.118   5.694  16.300 -1.2259 -3.2021 -3.7801
 4615TIP3   OH235335   2.791   1.849  13.390  0.4863 -0.3073 -0.5283
 4615TIP3    H135336   2.829   1.806  13.467  0.5595 -0.5770 -0.7104
 4615TIP3    H235337   2.867   1.875  13.338  0.4356 -0.1704 -0.5342
 4616TIP3   OH235338   5.050   5.776   4.066 -0.1241 -0.1140  0.2492
 4616TIP3    H135339   5.105   5.853   4.055 -1.1912  0.7977  1.0835
 4616TIP3    H235340   5.094   5.724   4.134 -0.8914  1.2212  1.8368
 4617TIP3   OH235341   3.976   0.099  11.213  0.6137 -0.7021 -0.0622
 4617TIP3    H135342   3.961   0.169  11.150  2.3718 -0.7770 -0.6374
 4617TIP3    H235343   3.952   0.019  11.166 -1.8754 -0.5230  0.7632
 4618TIP3   OH235344   5.778   2.835   0.295  0.2085 -0.2208 -0.8567
 4618TIP3    H135345   5.721   2.911   0.289  1.3461  0.6537 -0.8570
 4618TIP3    H235346   5.721   2.764   0.323 -0.7276  0.8102 -0.1016
 4619TIP3   OH235347   2.710   3.477  14.180 -0.3581  0.1997  0.0627
 4619TIP3    H135348   2.668   3.421  14.245  1.3686  0.7882  1.8015
 4619TIP3    H235349   2.765   3.417  14.129 -0.3209 -0.0161  0.3547
 4620TIP3   OH235350   5.913   4.557  16.112 -0.0444  0.3453  0.2672
 4620TIP3    H135351   5.822   4.560  16.083  0.5680  0.2837 -1.7917
 4620TIP3    H235352   5.965   4.561  16.031  1.8054  1.1499  1.4140
 4621TIP3   OH235353   4.465   2.241  13.557 -0.2372  0.1282  0.2394
 4621TIP3    H135354   4.540   2.218  13.613 -0.6983 -2.1521  0.0215
 4621TIP3    H235355   4.492   2.212  13.470 -1.7899 -1.9079  0.3676
 4622TIP3   OH235356   1.185   4.641  14.728 -0.3022  0.6497  0.2378
 4622TIP3    H135357   1.164   4.547  14.723 -0.0641  0.5894  0.3492
 4622TIP3    H235358   1.120   4.683  14.672  1.3947  0.1403 -2.2968
 4623TIP3   OH235359   3.501   1.083   1.322  0.0841 -0.4456  0.1787
 4623TIP3    H135360   3.472   1.114   1.407 -1.3431  0.5609 -0.6389
 4623TIP3    H235361   3.487   0.988   1.324  0.0360 -0.4223  1.0423
 4624TIP3   OH235362   6.568   4.879  15.944 -0.0208 -0.2287 -0.6719
 4624TIP3    H135363   6.556   4.800  15.997  1.7681  0.5782  1.0658
 4624TIP3    H235364   6.529   4.949  15.996  2.7822  0.7723  0.2920
 4625TIP3   OH235365   2.932   4.725  15.688 -0.0268 -0.2046 -0.4792
 4625TIP3    H135366   2.911   4.743  15.779  0.1354  0.1345 -0.5086
 4625TIP3    H235367   2.928   4.629  15.681  0.2144 -0.2476 -0.0565
 4626TIP3   OH235368   5.268   3.323  15.185  0.1162 -0.0827  0.0164
 4626TIP3    H135369   5.223   3.310  15.102 -1.8992  3.6511  0.2758
 4626TIP3    H235370   5.353   3.360  15.162  0.0212 -0.1170 -0.3868
 4627TIP3   OH235371   1.993   3.825  14.483  0.8139 -0.0745 -0.1679
 4627TIP3    H135372   2.057   3.754  14.477  0.6366 -0.2918  0.4282
 4627TIP3    H235373   2.031   3.886  14.545  1.9195  1.3877 -2.1751
 4628TIP3   OH235374   5.105   1.519  13.842 -0.1059 -0.3897 -0.1106
 4628TIP3    H135375   5.066   1.458  13.780 -1.7928 -2.1492  2.4579
 4628TIP3    H235376   5.199   1.498  13.841 -0.5542 -2.6650  0.2373
 4629TIP3   OH235377   2.197   3.968  13.288 -0.1547  0.3712  0.2441
 4629TIP3    H135378   2.276   3.983  13.340  0.4356  2.9017 -1.2012
 4629TIP3    H235379   2.138   4.039  13.314 -1.8392 -1.2221  0.9791
 4630TIP3   OH235380   0.284   2.882   3.097  0.1886  0.5300  0.1665
 4630TIP3    H135381   0.217   2.874   3.165 -0.2734 -0.2872 -0.3629
 4630TIP3    H235382   0.360   2.834   3.132 -0.4052 -0.8003 -0.3165
 4631TIP3   OH235383   3.134   2.487   5.140  0.2070 -0.3230  0.0995
 4631TIP3    H135384   3.170   2.516   5.223 -0.1880 -0.0325  0.1731
 4631TIP3    H235385   3.076   2.559   5.113 -2.3148 -1.8041  1.2185
 4632TIP3   OH235386   2.685   4.102  11.932  0.2289 -0.1261 -0.2870
 4632TIP3    H135387   2.655   4.030  11.876 -1.0354 -0.2564  0.5240
 4632TIP3    H235388   2.632   4.177  11.903 -1.5369 -0.5262  1.6531
 4633TIP3   OH235389   1.909   3.722   5.388  0.1828  0.0284  0.2090
 4633TIP3    H135390   1.895   3.760   5.475 -1.5079  0.3496 -0.1624
 4633TIP3    H235391   1.963   3.786   5.342  2.5514 -0.9166  1.5102
 4634TIP3   OH235392   4.207   0.640   2.015  0.5896 -0.0152  0.5844
 4634TIP3    H135393   4.229   0.550   2.041 -0.2161 -0.4834 -0.2923
 4634TIP3    H235394   4.129   0.661   2.066 -0.7051 -0.7563 -1.0081
 4635TIP3   OH235395   3.952   1.541   3.424  0.2901 -0.6512 -0.1116
 4635TIP3    H135396   3.997   1.496   3.352 -0.1780  0.7644 -1.3271
 4635TIP3    H235397   3.871   1.572   3.385 -0.3205 -0.4955  1.2489
 4636TIP3   OH235398   1.123   3.212   0.608 -0.5732  0.7331 -0.3251
 4636TIP3    H135399   1.066   3.200   0.532 -2.2082  1.4686  0.7356
 4636TIP3    H235400   1.174   3.131   0.613 -2.9916 -0.8928 -0.1293
 4637TIP3   OH235401   0.140   2.526  12.673 -0.4815 -0.0775  0.1065
 4637TIP3    H135402   0.229   2.490  12.670 -0.5757 -0.6953  2.6180
 4637TIP3    H235403   0.151   2.615  12.706 -0.6842  0.4959 -1.3008
 4638TIP3   OH235404   5.249   3.738   1.025  0.7630 -0.1562 -0.4007
 4638TIP3    H135405   5.180   3.761   1.086  0.0160 -0.4648 -1.1127
 4638TIP3    H235406   5.288   3.658   1.061  2.1914  1.1309  1.1283
 4639TIP3   OH235407   3.612   1.304   2.374 -0.6944  0.0392 -0.1689
 4639TIP3    H135408   3.636   1.309   2.282 -0.0958  0.3544  0.0030
 4639TIP3    H235409   3.694   1.314   2.421 -0.6258 -2.3531  0.3750
 4640TIP3   OH235410   5.197   6.142   3.132  0.5436  0.5304 -0.4043
 4640TIP3    H135411   5.158   6.180   3.210  0.3696  1.2342 -0.8257
 4640TIP3    H235412   5.287   6.177   3.130  0.5260  0.5714 -0.5485
 4641TIP3   OH235413   1.488   3.210   4.668  0.1390 -0.1628  0.3449
 4641TIP3    H135414   1.442   3.205   4.751  1.8610 -1.5774  1.2800
 4641TIP3    H235415   1.550   3.282   4.679  0.6436 -0.6092  0.4344
 4642TIP3   OH235416   3.307   2.314   1.687 -0.7195  0.5419 -0.2000
 4642TIP3    H135417   3.388   2.353   1.720 -1.5015  0.6691  1.6884
 4642TIP3    H235418   3.237   2.366   1.726 -1.7547 -1.1700  0.3625
 4643TIP3   OH235419   4.525   3.823  10.868 -0.1781 -0.2062 -0.1968
 4643TIP3    H135420   4.573   3.762  10.812  0.5377 -0.0718  0.2513
 4643TIP3    H235421   4.591   3.854  10.931 -0.9192 -0.2356  0.6128
 4644TIP3   OH235422   4.246   2.903  16.568  0.0495  0.5568 -0.4945
 4644TIP3    H135423   4.255   2.914  16.663  1.1266 -0.2368 -0.4912
 4644TIP3    H235424   4.244   2.809  16.555 -0.8285  0.6576 -1.2181
 4645TIP3   OH235425   5.908   6.550   1.498  0.3866  0.1453  0.6943
 4645TIP3    H135426   5.889   6.518   1.586  0.0978 -0.4690  0.4143
 4645TIP3    H235427   5.824   6.584   1.467  0.4042  0.0330  0.5217
 4646TIP3   OH235428   0.188   1.755  14.409  0.5318 -0.6037 -0.3733
 4646TIP3    H135429   0.282   1.754  14.390  1.0738 -2.1227  1.9391
 4646TIP3    H235430   0.182   1.782  14.501 -1.4055  0.4514 -0.7452
 4647TIP3   OH235431   2.146   6.542  10.667 -0.3979  0.6561 -0.6997
 4647TIP3    H135432   2.198   6.608  10.714  1.5414 -1.4343  0.3232
 4647TIP3    H235433   2.207   6.505  10.604 -0.0359 -2.8634  1.4842
 4648TIP3   OH235434   3.785   2.745  14.431  0.3190  0.1411 -0.4894
 4648TIP3    H135435   3.796   2.658  14.470 -0.1439  0.4610  0.3801
 4648TIP3    H235436   3.704   2.778  14.468  0.0435  0.6088 -1.4817
 4649TIP3   OH235437   6.506   6.424   4.766 -0.3670 -0.6884 -0.4907
 4649TIP3    H135438   6.441   6.467   4.822  0.2513  0.2391 -0.4617
 4649TIP3    H235439   6.581   6.410   4.823 -0.2165 -0.9512 -0.7491
 4650TIP3   OH235440   4.957   0.661  10.842 -0.5727 -0.0302 -0.1535
 4650TIP3    H135441   4.914   0.726  10.898  0.3012  0.3865  0.0408
 4650TIP3    H235442   4.987   0.711  10.766 -1.5542 -0.5515 -0.9168
 4651TIP3   OH235443   5.597   6.138  11.574 -0.8178  0.1243 -0.3718
 4651TIP3    H135444   5.585   6.199  11.648  0.4792 -1.5711  1.3577
 4651TIP3    H235445   5.691   6.145  11.553 -1.0970  0.3001 -1.6369
 4652TIP3   OH235446   1.158   4.092  11.850 -0.8253 -0.1795  0.6103
 4652TIP3    H135447   1.231   4.052  11.803 -2.3980 -0.2582 -1.9516
 4652TIP3    H235448   1.189   4.180  11.874  1.1332 -1.2749  2.4505
 4653TIP3   OH235449   0.777   4.636  11.094  0.3292  0.2430  0.0369
 4653TIP3    H135450   0.778   4.607  11.185 -0.5208 -0.4294 -0.1587
 4653TIP3    H235451   0.736   4.722  11.096  2.1877  1.1775  0.5278
 4654TIP3   OH235452   6.284   1.201  17.114 -0.1731 -0.5873  0.0680
 4654TIP3    H135453   6.250   1.262  17.049 -0.7223 -0.0080  0.8885
 4654TIP3    H235454   6.209   1.145  17.135 -0.3502  0.0121  1.0963
 4655TIP3   OH235455   3.795   5.791  10.675  0.0716  0.4938  0.3293
 4655TIP3    H135456   3.708   5.764  10.648  0.4045 -0.3685  0.0811
 4655TIP3    H235457   3.812   5.741  10.755  0.3288  0.6727  0.3886
 4656TIP3   OH235458   1.998   5.627   3.783 -0.2136 -0.2744  0.0023
 4656TIP3    H135459   1.978   5.577   3.703 -2.0741 -1.0906  0.9210
 4656TIP3    H235460   2.071   5.579   3.822 -1.5805 -2.0287  0.5625
 4657TIP3   OH235461   5.601   1.630  13.252  0.2479  0.5527  0.1640
 4657TIP3    H135462   5.595   1.643  13.346 -0.9322 -0.2821  0.2324
 4657TIP3    H235463   5.681   1.676  13.226  1.4709 -0.5557  1.7936
 4658TIP3   OH235464   3.605   1.024   2.393 -0.3001 -0.0856 -0.6485
 4658TIP3    H135465   3.593   1.099   2.336  0.9372  0.6658  0.0402
 4658TIP3    H235466   3.541   1.036   2.463  0.9973  1.2638  0.3646
 4659TIP3   OH235467   4.252   2.895   2.213 -0.1905 -0.0356 -0.1282
 4659TIP3    H135468   4.294   2.840   2.147 -0.9760  0.2238 -0.8651
 4659TIP3    H235469   4.302   2.977   2.212  1.0162 -0.7276  1.0123
 4660TIP3   OH235470   2.784   5.552   1.218  0.2159 -0.1786  0.2716
 4660TIP3    H135471   2.762   5.472   1.265  0.1529 -0.2561  0.1065
 4660TIP3    H235472   2.710   5.610   1.234  1.6530  1.0821  3.1983
 4661TIP3   OH235473   1.038   5.878  15.717 -0.2789 -0.0582  0.1354
 4661TIP3    H135474   1.014   5.903  15.628  0.7654  0.3343 -0.0437
 4661TIP3    H235475   0.954   5.869  15.762 -0.8025  0.2019 -0.7563
 4662TIP3   OH235476   1.232   1.060  13.124 -0.5018  0.2518  0.3695
 4662TIP3    H135477   1.224   1.104  13.040 -2.2330 -0.6418  0.0279
 4662TIP3    H235478   1.264   1.128  13.184  3.1244  0.3406 -1.4249
 4663TIP3   OH235479   1.015   5.976  12.740 -0.1922 -0.2751  0.3100
 4663TIP3    H135480   1.085   5.918  12.710 -1.0580 -1.7625  1.0579
 4663TIP3    H235481   0.992   5.944  12.827 -0.3904  1.5066  0.9689
 4664TIP3   OH235482   6.779   2.921   3.717  0.0068  0.6512  0.9135
 4664TIP3    H135483   6.846   2.990   3.725 -0.7095  1.3610  0.8876
 4664TIP3    H235484   6.726   2.948   3.642  0.8369 -0.9276 -0.3210
 4665TIP3   OH235485   1.511   2.184  13.140 -0.4197  0.7540  0.3567
 4665TIP3    H135486   1.593   2.145  13.110 -0.2392 -0.2497  2.0268
 4665TIP3    H235487   1.523   2.195  13.234 -2.5283 -0.2371  0.7957
 4666TIP3   OH235488   6.171   1.007   5.579 -0.3174 -0.0587  0.1180
 4666TIP3    H135489   6.129   1.010   5.664 -0.1483  2.1806  0.1900
 4666TIP3    H235490   6.099   1.013   5.516 -0.4782 -2.1896  0.0518
 4667TIP3   OH235491   3.362   1.999   2.012 -0.1738 -0.2706  0.3804
 4667TIP3    H135492   3.290   1.991   2.075 -0.6348  1.8806  0.1936
 4667TIP3    H235493   3.320   2.030   1.932  0.9637  1.2240  0.3311
 4668TIP3   OH235494   3.429   5.987  14.528  0.2432 -0.2310  0.3169
 4668TIP3    H135495   3.360   5.988  14.461 -1.3373 -0.6978  1.8563
 4668TIP3    H235496   3.460   5.896  14.528 -0.4142 -0.4665  0.8254
 4669TIP3   OH235497   6.290   5.515  16.707 -0.2896 -0.3639  0.3464
 4669TIP3    H135498   6.383   5.503  16.723 -0.5334 -1.3775  1.1177
 4669TIP3    H235499   6.256   5.548  16.790 -0.7630 -0.9151  0.3814
 4670TIP3   OH235500   5.857   1.968  15.018 -0.3662 -0.3104 -0.7379
 4670TIP3    H135501   5.926   1.965  15.085 -1.9155 -0.0273  0.9490
 4670TIP3    H235502   5.874   2.050  14.970  0.5724 -0.3437 -0.4795
 4671TIP3   OH235503   6.341   3.087   0.284  0.0901 -0.1440  0.2464
 4671TIP3    H135504   6.436   3.085   0.271  0.1787 -1.0059  0.9566
 4671TIP3    H235505   6.321   3.180   0.296  0.9027  0.0031  0.5327
 4672TIP3   OH235506   4.152   0.601   2.484 -0.4589 -0.7427  0.0641
 4672TIP3    H135507   4.176   0.551   2.561 -1.9398 -1.4176  0.1307
 4672TIP3    H235508   4.082   0.659   2.514  1.8963  2.2311  0.2527
 4673TIP3   OH235509   2.491   5.741  15.199  0.0176 -0.1919 -0.0132
 4673TIP3    H135510   2.422   5.784  15.249 -0.8757 -0.4204 -1.0150
 4673TIP3    H235511   2.548   5.813  15.171 -0.0532  0.0474  0.4477
 4674TIP3   OH235512   6.308   3.082  10.802  0.1143  0.3261  0.2082
 4674TIP3    H135513   6.242   3.013  10.792  0.5307 -0.0911  0.3020
 4674TIP3    H235514   6.383   3.038  10.842  0.8677  0.5375 -0.9033
 4675TIP3   OH235515   6.671   6.040  13.176  0.3319  0.2000 -0.4159
 4675TIP3    H135516   6.762   6.072  13.173  0.6235 -0.6530 -2.5839
 4675TIP3    H235517   6.619   6.112  13.140  0.5500 -0.3385 -1.8942
 4676TIP3   OH235518   4.637   6.021   0.166 -0.2759  0.4246 -0.2357
 4676TIP3    H135519   4.590   5.967   0.101  1.4262 -0.4181 -0.8149
 4676TIP3    H235520   4.703   6.067   0.115  0.8586  0.0285  0.8312
 4677TIP3   OH235521   1.906   1.233   5.097  0.5292  0.2187  0.2457
 4677TIP3    H135522   1.998   1.259   5.095  0.4178  0.5831 -0.8892
 4677TIP3    H235523   1.896   1.176   5.021 -0.2382  0.3984  0.2071
 4678TIP3   OH235524   2.490   3.385   5.273 -0.3073  0.5256 -0.8144
 4678TIP3    H135525   2.570   3.433   5.295  1.1419 -1.2357 -1.9817
 4678TIP3    H235526   2.438   3.388   5.354  0.3310  2.7651 -0.4125
 4679TIP3   OH235527   1.630   5.083   3.122  0.1161 -0.3291 -0.6315
 4679TIP3    H135528   1.551   5.136   3.108 -0.2697 -1.2735 -2.1974
 4679TIP3    H235529   1.624   5.012   3.058  1.3524 -1.4536  0.4237
 4680TIP3   OH235530   3.762   6.452   0.505  0.4472 -0.1194 -0.0626
 4680TIP3    H135531   3.784   6.413   0.590 -1.4644  1.5838  1.3300
 4680TIP3    H235532   3.832   6.515   0.489  0.7174 -0.3053  0.3575
 4681TIP3   OH235533   0.426   2.097   5.185 -0.0022 -0.2220 -0.1867
 4681TIP3    H135534   0.518   2.073   5.170  0.6324  2.7805 -1.8604
 4681TIP3    H235535   0.413   2.082   5.278  0.8266 -4.6060 -0.5501
 4682TIP3   OH235536   4.400   3.073  13.569  0.2230 -0.3444 -0.1036
 4682TIP3    H135537   4.379   3.051  13.660  0.2009  1.4495  0.3676
 4682TIP3    H235538   4.363   3.160  13.556 -0.0118 -0.6738 -1.9343
 4683TIP3   OH235539   0.124   4.597  14.875  0.1276  0.2461  0.0894
 4683TIP3    H135540   0.211   4.596  14.914 -0.2503  2.9560  1.2761
 4683TIP3    H235541   0.074   4.657  14.932 -2.2298 -0.4866 -1.0948
 4684TIP3   OH235542   0.232   4.049   6.028 -0.3081 -0.5866  0.0075
 4684TIP3    H135543   0.284   4.129   6.018 -0.5342 -0.5828 -1.2995
 4684TIP3    H235544   0.295   3.978   6.023 -0.3001 -0.5441 -0.5936
 4685TIP3   OH235545   0.361   3.196   1.561 -0.0162 -0.5717  0.4810
 4685TIP3    H135546   0.444   3.230   1.527 -0.2340 -0.0505  0.4739
 4685TIP3    H235547   0.318   3.271   1.601  0.6475 -1.3634  2.7944
 4686TIP3   OH235548   0.360   5.335   4.755  0.0728  0.3005  0.0869
 4686TIP3    H135549   0.361   5.301   4.665  1.4537  0.5100  0.0006
 4686TIP3    H235550   0.341   5.259   4.809 -0.3633  0.0923 -0.3511
 4687TIP3   OH235551   2.340   2.815  14.347  0.3961 -0.1324  0.0085
 4687TIP3    H135552   2.297   2.744  14.300  0.8223 -0.3498 -0.0594
 4687TIP3    H235553   2.286   2.829  14.425  0.3875 -0.6218  0.0933
 4688TIP3   OH235554   1.395   1.871  14.067 -0.0184 -0.0331 -0.5217
 4688TIP3    H135555   1.418   1.858  13.975 -0.9945 -0.3046 -0.7354
 4688TIP3    H235556   1.317   1.817  14.081 -0.4045  0.6862  0.2340
 4689TIP3   OH235557   5.200   5.890  10.688 -0.8229  0.3344 -0.5036
 4689TIP3    H135558   5.137   5.825  10.656 -0.9006  0.1987 -0.0805
 4689TIP3    H235559   5.285   5.847  10.679 -1.0594 -0.9307  2.3125
 4690TIP3   OH235560   3.637   0.236  12.791 -0.0970  0.4064  0.2682
 4690TIP3    H135561   3.579   0.277  12.727 -0.9238 -1.1623 -0.0319
 4690TIP3    H235562   3.618   0.282  12.873 -0.0051  1.5195 -0.3230
 4691TIP3   OH235563   3.225   0.962   2.169 -0.1942 -0.3736 -0.2480
 4691TIP3    H135564   3.308   0.986   2.211 -0.1110  0.3187 -0.7887
 4691TIP3    H235565   3.178   1.045   2.159 -0.5147 -0.6176 -0.8539
 4692TIP3   OH235566   4.179   1.674  15.531 -0.1394 -0.1037  0.4128
 4692TIP3    H135567   4.165   1.645  15.622 -2.1573 -1.0064 -0.1267
 4692TIP3    H235568   4.145   1.602  15.478  0.6935  0.5669 -1.0755
 4693TIP3   OH235569   5.727   0.724   5.262 -0.4549  0.7256  0.0258
 4693TIP3    H135570   5.713   0.636   5.227  2.3358  0.6346 -1.1169
 4693TIP3    H235571   5.748   0.710   5.354  0.4613  0.1349 -0.2655
 4694TIP3   OH235572   2.742   1.539   1.557 -0.0702  0.4669 -0.0887
 4694TIP3    H135573   2.829   1.569   1.581 -0.2069  0.0748  0.9666
 4694TIP3    H235574   2.740   1.541   1.461  1.4592 -0.5171 -0.1660
 4695TIP3   OH235575   6.059   0.565  15.272  0.6231 -0.3326  0.4207
 4695TIP3    H135576   6.103   0.607  15.347  0.2729 -2.4591  1.9136
 4695TIP3    H235577   5.968   0.559  15.298 -0.4009  2.4917 -1.9568
 4696TIP3   OH235578   0.789   1.946   2.204  0.0618 -0.1816 -0.2819
 4696TIP3    H135579   0.735   1.998   2.263  0.8877  0.9354 -0.4884
 4696TIP3    H235580   0.832   1.882   2.261 -0.5843 -0.3370  0.0435
 4697TIP3   OH235581   3.028   4.492   0.518  0.2027  0.7587  0.1148
 4697TIP3    H135582   3.056   4.461   0.604 -2.2795 -0.5003  0.5742
 4697TIP3    H235583   3.022   4.587   0.528  1.8545  0.8328  0.6816
 4698TIP3   OH235584   4.345   3.047   6.551  0.6439 -0.0765  0.5542
 4698TIP3    H135585   4.319   2.983   6.484 -3.0301  1.8090 -0.1081
 4698TIP3    H235586   4.281   3.035   6.621  2.9055 -0.2968  2.7247
 4699TIP3   OH235587   6.003   4.608   6.599 -0.5549  0.1787 -0.0314
 4699TIP3    H135588   6.090   4.595   6.563 -1.0409 -2.8124 -0.3474
 4699TIP3    H235589   6.004   4.698   6.632  1.8869  0.9835 -1.9868
 4700TIP3   OH235590   6.434   5.976   2.492 -0.4493  0.1538  0.4020
 4700TIP3    H135591   6.377   5.923   2.436  2.7652 -2.9395 -0.2837
 4700TIP3    H235592   6.439   5.926   2.574 -1.9648  2.6195  2.1580
 4701TIP3   OH235593   5.430   6.276   2.248  0.2047 -0.0705  0.0720
 4701TIP3    H135594   5.503   6.315   2.199 -1.1428  1.2837 -0.9186
 4701TIP3    H235595   5.365   6.345   2.255 -0.9448 -1.1943  1.1149
 4702TIP3   OH235596   4.589   4.936  11.129  0.3565  0.1989 -0.3588
 4702TIP3    H135597   4.500   4.953  11.161  0.5196 -0.6439  0.6361
 4702TIP3    H235598   4.593   4.840  11.121  1.2333  0.2083 -0.1614
 4703TIP3   OH235599   6.270   1.231   0.198  0.2464 -0.5349 -0.8461
 4703TIP3    H135600   6.342   1.177   0.165 -1.5094 -3.7247  0.1098
 4703TIP3    H235601   6.191   1.188   0.166 -1.3816 -0.2180  2.3245
 4704TIP3   OH235602   5.545   5.605   4.880  0.5307  0.2207 -0.0580
 4704TIP3    H135603   5.567   5.577   4.968  3.5218 -1.5870 -1.2264
 4704TIP3    H235604   5.493   5.533   4.844  2.9659 -1.1617 -1.0498
 4705TIP3   OH235605   1.702   2.955   0.535 -0.0126  0.4083  0.2200
 4705TIP3    H135606   1.746   2.919   0.612  1.6058 -0.7219 -1.1704
 4705TIP3    H235607   1.758   3.027   0.507  0.5562 -0.5194 -1.0984
 4706TIP3   OH235608   0.480   0.620   5.453 -0.5574  0.0012 -0.1527
 4706TIP3    H135609   0.523   0.663   5.527  0.3827 -0.3390 -0.4879
 4706TIP3    H235610   0.552   0.592   5.397 -1.2681  2.4210 -2.4852
 4707TIP3   OH235611   3.250   4.840   6.097  0.2545 -0.3104 -0.2748
 4707TIP3    H135612   3.277   4.749   6.088 -0.5032 -0.5977  0.2173
 4707TIP3    H235613   3.154   4.837   6.100  0.2153  0.5080 -0.3502
 4708TIP3   OH235614   5.419   1.024   3.066  0.1998  0.0468 -0.1733
 4708TIP3    H135615   5.337   1.063   3.097 -0.1072 -0.7319  0.0255
 4708TIP3    H235616   5.487   1.064   3.120 -0.3428 -1.4836  1.7948
 4709TIP3   OH235617   0.208   5.692  15.984 -0.1633 -0.2605 -0.6103
 4709TIP3    H135618   0.128   5.694  15.932  0.1504 -0.3306 -1.1091
 4709TIP3    H235619   0.250   5.776  15.967 -0.0276 -0.3110 -0.5265
 4710TIP3   OH235620   1.110   5.054  15.656 -0.4069  0.5340  0.1861
 4710TIP3    H135621   1.016   5.057  15.636 -0.6295 -1.1429  0.8310
 4710TIP3    H235622   1.152   5.035  15.572 -0.8627 -0.9210  0.2546
 4711TIP3   OH235623   6.445   0.754  11.668  0.3518  0.0013  0.1625
 4711TIP3    H135624   6.385   0.761  11.594 -2.0310  1.0537  2.0496
 4711TIP3    H235625   6.520   0.808  11.643 -0.8845  1.2522 -1.0617
 4712TIP3   OH235626   0.817   2.253  17.158 -0.2679 -0.0460  0.4452
 4712TIP3    H135627   0.789   2.171  17.117  0.5700 -0.4405  0.6485
 4712TIP3    H235628   0.866   2.225  17.236  2.2490  0.5455 -0.8259
 4713TIP3   OH235629   1.745   3.375   2.057 -0.0203 -0.0347  0.3670
 4713TIP3    H135630   1.807   3.442   2.030  0.5704 -0.6656  0.1427
 4713TIP3    H235631   1.759   3.303   1.996  0.3914 -0.9468  1.5111
 4714TIP3   OH235632   3.089   0.602  16.142  0.2470  0.4033 -0.0462
 4714TIP3    H135633   3.059   0.596  16.051  0.5709  1.9522 -0.2821
 4714TIP3    H235634   3.124   0.691  16.150 -1.1818  0.8497  2.0339
 4715TIP3   OH235635   3.070   5.254  14.824 -0.0701  0.3497 -0.1759
 4715TIP3    H135636   3.159   5.219  14.822 -0.0924  0.3137 -1.0051
 4715TIP3    H235637   3.063   5.306  14.744 -0.9614 -0.0923 -0.3971
 4716TIP3   OH235638   0.035   3.045  14.251 -0.3432  0.3139 -0.1731
 4716TIP3    H135639   0.072   3.020  14.336 -0.9024  1.8133  0.5485
 4716TIP3    H235640   0.057   2.972  14.193 -1.5261 -1.6254  1.6726
 4717TIP3   OH235641   3.806   6.750  10.812 -0.3537  0.2569  1.1428
 4717TIP3    H135642   3.880   6.788  10.858  0.0837 -0.7381  1.2914
 4717TIP3    H235643   3.826   6.656  10.807  0.0431  0.3768 -1.7893
 4718TIP3   OH235644   6.770   1.617   4.056 -0.3521  0.8521 -0.1815
 4718TIP3    H135645   6.700   1.558   4.028 -0.4227  1.9993 -2.6567
 4718TIP3    H235646   6.839   1.606   3.991  1.1767  0.8567  1.3716
 4719TIP3   OH235647   1.976   5.309  14.503 -0.2532 -0.0060 -0.3347
 4719TIP3    H135648   1.910   5.267  14.559 -1.9835  0.6710 -1.8048
 4719TIP3    H235649   2.005   5.240  14.444  0.3480 -0.2784  0.2525
 4720TIP3   OH235650   4.799   1.417  16.536  0.0491 -0.0966 -0.2505
 4720TIP3    H135651   4.868   1.403  16.471 -0.8067  0.4601 -1.3122
 4720TIP3    H235652   4.719   1.425  16.484 -1.3773 -3.7621  1.0596
 4721TIP3   OH235653   3.112   5.102   4.698 -0.7079  0.1029 -0.1476
 4721TIP3    H135654   3.139   5.192   4.714 -0.4326 -0.0269  0.1382
 4721TIP3    H235655   3.022   5.108   4.667 -0.2940  0.5642 -1.2985
 4722TIP3   OH235656   6.178   3.123   1.067  0.0403 -0.8096 -0.4707
 4722TIP3    H135657   6.156   3.138   0.976  1.0891 -0.0123 -0.6075
 4722TIP3    H235658   6.255   3.066   1.064  0.0502 -0.8232 -0.0801
 4723TIP3   OH235659   5.271   0.138  15.493 -0.2123 -0.8939 -0.6144
 4723TIP3    H135660   5.281   0.179  15.579 -2.1314  2.1703 -1.6487
 4723TIP3    H235661   5.354   0.153  15.448 -0.3727  0.7370 -0.4351
 4724TIP3   OH235662   6.670   2.120   2.915 -0.8965 -0.1407 -0.1987
 4724TIP3    H135663   6.591   2.084   2.956  0.0833 -1.7342  0.3745
 4724TIP3    H235664   6.719   2.159   2.987 -2.1639  2.9479 -0.8776
 4725TIP3   OH235665   0.115   0.622  10.976  1.0975 -0.5433  0.2822
 4725TIP3    H135666   0.168   0.698  11.000 -0.5885  0.7941 -0.1054
 4725TIP3    H235667   0.089   0.639  10.885 -1.0798 -0.4901  0.8735
 4726TIP3   OH235668   1.544   6.598  11.828 -0.2645  0.1623 -0.7311
 4726TIP3    H135669   1.494   6.552  11.760  0.3566  0.7532 -1.6106
 4726TIP3    H235670   1.523   6.690  11.815  0.4530  0.3486 -0.6118
 4727TIP3   OH235671   3.855   4.609   0.424  0.2590 -0.2603 -0.2115
 4727TIP3    H135672   3.914   4.549   0.470  0.0327 -0.2791  0.0589
 4727TIP3    H235673   3.811   4.657   0.494 -0.0358 -0.2363 -0.4114
 4728TIP3   OH235674   6.120   1.273  11.064  0.1344  0.1184 -0.5395
 4728TIP3    H135675   6.095   1.223  11.142 -1.9142  0.7485 -0.7522
 4728TIP3    H235676   6.207   1.239  11.041  0.5575 -0.4588  1.6821
 4729TIP3   OH235677   1.524   3.842  14.398 -0.2322 -0.1844 -0.1484
 4729TIP3    H135678   1.455   3.776  14.409  0.6491 -1.3110 -1.0388
 4729TIP3    H235679   1.601   3.803  14.441 -0.3495  1.4866  1.7233
 4730TIP3   OH235680   2.918   2.277  11.067 -0.6336 -0.1053  0.6377
 4730TIP3    H135681   2.923   2.282  11.163  2.8492  0.1451  0.5507
 4730TIP3    H235682   2.975   2.347  11.036  0.4302 -1.8347 -1.5737
 4731TIP3   OH235683   3.972   6.754   3.151  0.7637 -0.2021  0.2218
 4731TIP3    H135684   3.965   6.848   3.139  1.3987  0.1662  2.2738
 4731TIP3    H235685   4.064   6.734   3.134  0.7562 -0.3446  0.3398
 4732TIP3   OH235686   6.242   1.610  13.522  0.4546  0.2743  0.1199
 4732TIP3    H135687   6.205   1.679  13.576 -0.1417 -0.5230  0.7470
 4732TIP3    H235688   6.336   1.629  13.519  0.1433  1.9059 -0.8936
 4733TIP3   OH235689   1.268   1.644   5.621 -0.6885  0.0102  0.1654
 4733TIP3    H135690   1.305   1.732   5.620  0.5479 -0.4918 -0.5746
 4733TIP3    H235691   1.176   1.656   5.595  0.0056  0.8817 -2.1429
 4734TIP3   OH235692   1.818   4.010  15.409 -0.3052  0.3194 -0.1156
 4734TIP3    H135693   1.820   4.097  15.369  1.9527  0.2388 -0.2565
 4734TIP3    H235694   1.862   4.021  15.494  0.5681 -0.7884 -0.3995
 4735TIP3   OH235695   3.487   5.160   2.149 -0.1563  0.1715  0.0234
 4735TIP3    H135696   3.413   5.102   2.130 -0.2941 -0.0220  1.0984
 4735TIP3    H235697   3.490   5.165   2.244  0.6163  0.9640 -0.0290
 4736TIP3   OH235698   3.947   4.712  11.663  0.0859  0.4941 -0.4818
 4736TIP3    H135699   4.025   4.667  11.631 -0.8215  0.2850 -2.5432
 4736TIP3    H235700   3.954   4.708  11.759  2.5769  0.4925 -0.6080
 4737TIP3   OH235701   5.375   0.789  13.421  0.1592  0.4072  1.1421
 4737TIP3    H135702   5.280   0.801  13.422  0.1578  0.6666 -0.2344
 4737TIP3    H235703   5.410   0.878  13.431  0.2506  0.3717  1.1357
 4738TIP3   OH235704   2.123   0.780  13.242  0.3649  0.1708 -0.5887
 4738TIP3    H135705   2.040   0.826  13.229  0.9341  0.9566 -1.6433
 4738TIP3    H235706   2.099   0.701  13.292 -0.9857  0.4466 -0.7474
 4739TIP3   OH235707   4.022   4.734   6.250 -0.2131 -0.2955  0.0358
 4739TIP3    H135708   4.106   4.698   6.278 -0.2296 -0.8949 -0.6388
 4739TIP3    H235709   3.964   4.721   6.325  0.9135  2.5283  1.5339
 4740TIP3   OH235710   2.275   3.297  10.847  0.6756 -0.1453  0.1588
 4740TIP3    H135711   2.207   3.362  10.828  0.2141 -0.0051  2.1249
 4740TIP3    H235712   2.306   3.319  10.934 -0.6628 -3.4645  1.6807
 4741TIP3   OH235713   5.431   4.698   6.513  0.0922 -0.7642 -0.5535
 4741TIP3    H135714   5.364   4.679   6.579 -2.0901  1.1739 -2.0496
 4741TIP3    H235715   5.491   4.624   6.519 -1.4941 -2.0215  1.7125
 4742TIP3   OH235716   1.398   5.589  16.005  0.2623  0.0298 -0.0324
 4742TIP3    H135717   1.315   5.615  15.966 -0.4232 -1.4170  0.3852
 4742TIP3    H235718   1.405   5.642  16.084  0.3586  1.0443 -0.7009
 4743TIP3   OH235719   1.291   4.746  12.856  0.4532  0.2783  0.3266
 4743TIP3    H135720   1.332   4.698  12.927  1.9551 -1.0870 -1.3682
 4743TIP3    H235721   1.279   4.835  12.891  1.5876 -0.2122  2.0785
 4744TIP3   OH235722   1.221   6.025   3.829 -0.3512 -0.1147 -0.3542
 4744TIP3    H135723   1.268   5.974   3.895  0.4268  0.1861 -0.6603
 4744TIP3    H235724   1.129   6.002   3.841 -0.2002 -0.1685  0.7267
 4745TIP3   OH235725   6.652   4.193   6.262  0.2063 -0.3007 -0.0708
 4745TIP3    H135726   6.631   4.179   6.354  2.5560 -0.1190  0.5401
 4745TIP3    H235727   6.674   4.286   6.256 -0.1091 -0.2656 -0.8745
 4746TIP3   OH235728   4.852   1.836   4.488  0.0407  0.4528  0.9467
 4746TIP3    H135729   4.901   1.917   4.477  1.2259 -0.5483 -1.9562
 4746TIP3    H235730   4.913   1.777   4.532 -0.2350  0.5713  1.5098
 4747TIP3   OH235731   2.680   1.134  14.101 -0.3201  0.1356 -0.0654
 4747TIP3    H135732   2.630   1.069  14.053 -0.3018  1.0364 -1.3574
 4747TIP3    H235733   2.614   1.198  14.131 -0.2647 -0.1357  0.6706
 4748TIP3   OH235734   0.016   5.474  15.960 -0.1528  0.8964 -0.6241
 4748TIP3    H135735   0.061   5.462  15.877 -0.3475 -0.7557 -0.5438
 4748TIP3    H235736  -0.064   5.522  15.937 -0.7264 -0.4548 -1.6023
 4749TIP3   OH235737   4.327   2.248  12.518 -0.0268  0.5831 -0.0030
 4749TIP3    H135738   4.324   2.263  12.613  1.9064  0.0182  0.1987
 4749TIP3    H235739   4.337   2.153  12.510 -1.4369  0.4882 -0.8350
 4750TIP3   OH235740   4.840   0.066   3.528 -0.3055 -0.0007 -0.1190
 4750TIP3    H135741   4.809  -0.004   3.585  1.0083  0.0070  0.6589
 4750TIP3    H235742   4.825   0.146   3.578 -0.0903  0.0946 -0.2044
 4751TIP3   OH235743   2.974   1.510  15.169 -0.3219 -0.0438  0.0152
 4751TIP3    H135744   2.932   1.456  15.102  0.0587 -0.6078  0.2265
 4751TIP3    H235745   2.913   1.584  15.181 -0.0275  0.4745 -1.4831
 4752TIP3   OH235746   1.283   5.451   5.194 -0.1722 -0.0550  0.1142
 4752TIP3    H135747   1.346   5.428   5.126  0.3253  1.2372  0.0990
 4752TIP3    H235748   1.205   5.399   5.174  0.5329 -0.9057 -0.4716
 4753TIP3   OH235749   4.792   5.314   3.798 -0.2010 -0.9440  0.0007
 4753TIP3    H135750   4.799   5.258   3.875  2.7575 -1.0650 -0.2550
 4753TIP3    H235751   4.869   5.371   3.802 -1.6321  1.2231 -1.2291
 4754TIP3   OH235752   5.663   3.366  14.854  0.3741  0.1255  0.3107
 4754TIP3    H135753   5.621   3.445  14.820 -0.0820 -0.7990 -1.4283
 4754TIP3    H235754   5.757   3.382  14.844  0.2855  0.5019  0.0834
 4755TIP3   OH235755   6.276   0.582   0.425  0.6654  0.0036 -0.2245
 4755TIP3    H135756   6.360   0.609   0.389  0.8978  0.4840  0.6320
 4755TIP3    H235757   6.299   0.532   0.503  0.1667  0.9365  0.5498
 4756TIP3   OH235758   6.784   3.552   4.834  0.3137  0.1103 -0.2105
 4756TIP3    H135759   6.816   3.623   4.890  2.6368  1.0865 -2.5820
 4756TIP3    H235760   6.690   3.547   4.852  0.0340  3.8429  0.0085
 4757TIP3   OH235761   1.678   4.848  16.768  0.0516  0.3673 -0.1479
 4757TIP3    H135762   1.626   4.823  16.691  0.3288 -0.7686  0.0079
 4757TIP3    H235763   1.625   4.819  16.842  1.3821 -1.9280 -0.0030
 4758TIP3   OH235764   1.004   3.208   1.831 -0.1505 -0.0614  0.5719
 4758TIP3    H135765   1.089   3.171   1.806  0.5295  2.1643 -0.6632
 4758TIP3    H235766   0.940   3.154   1.786  0.7952  0.0587 -0.9809
 4759TIP3   OH235767   6.481   4.501  16.717 -0.3594  0.0635 -0.4570
 4759TIP3    H135768   6.462   4.593  16.700 -1.2522 -0.5262 -3.1094
 4759TIP3    H235769   6.560   4.483  16.665 -0.0722 -0.6333  0.2026
 4760TIP3   OH235770   6.068   6.743  14.138  0.1735 -0.0113 -0.0809
 4760TIP3    H135771   6.087   6.835  14.118  0.7442 -0.1342 -0.1192
 4760TIP3    H235772   6.100   6.732  14.228  0.7883 -0.3633 -0.3367
 4761TIP3   OH235773   1.853   2.733   5.178  0.0804  0.1990 -0.4920
 4761TIP3    H135774   1.821   2.695   5.260  0.2134  1.8834  0.3944
 4761TIP3    H235775   1.792   2.805   5.160  0.7189  0.5593 -1.2403
 4762TIP3   OH235776   3.314   1.839   3.105 -0.2305  0.4462 -0.2228
 4762TIP3    H135777   3.365   1.872   3.030  1.6153 -0.9937  0.3079
 4762TIP3    H235778   3.340   1.895   3.178  0.3930 -0.0944 -0.0190
 4763TIP3   OH235779   5.615   0.269   2.093 -0.0856  0.0603  0.0069
 4763TIP3    H135780   5.523   0.293   2.099 -0.4901 -1.2997 -0.2530
 4763TIP3    H235781   5.653   0.296   2.177 -0.2303  2.4158 -0.6252
 4764TIP3   OH235782   3.644   4.561  15.433  0.0369  0.5003 -0.1728
 4764TIP3    H135783   3.634   4.558  15.337 -1.6487  0.6034 -0.0198
 4764TIP3    H235784   3.681   4.647  15.450  1.0703  0.1969 -0.7759
 4765TIP3   OH235785   2.354   4.130  15.411  0.2649 -0.2985  0.0655
 4765TIP3    H135786   2.283   4.157  15.352 -0.5706 -0.6372  0.8964
 4765TIP3    H235787   2.343   4.184  15.489  0.0569 -1.3247  0.7658
 4766TIP3   OH235788   1.537   0.860  10.969  0.0040  0.4115 -0.2091
 4766TIP3    H135789   1.516   0.919  10.896  1.2618 -0.5584 -1.4116
 4766TIP3    H235790   1.624   0.889  10.998  0.4363 -0.5432 -0.5178
 4767TIP3   OH235791   5.009   5.005  16.895  0.0899  0.3605 -0.2453
 4767TIP3    H135792   4.936   4.984  16.953 -2.4226 -1.5848 -3.7365
 4767TIP3    H235793   5.024   5.099  16.908 -2.6449  0.7175  1.0461
 4768TIP3   OH235794   3.876   5.367  14.053 -0.7270  0.3319 -0.1711
 4768TIP3    H135795   3.817   5.411  13.993 -1.1886 -2.1115 -1.6458
 4768TIP3    H235796   3.887   5.280  14.016 -1.6087 -1.6251  3.6475
 4769TIP3   OH235797   3.140   6.506   3.869  0.0393 -0.1163  1.3228
 4769TIP3    H135798   3.085   6.543   3.800  0.0812  0.2316  1.4706
 4769TIP3    H235799   3.107   6.417   3.882  0.4404 -0.4090  0.4120
 4770TIP3   OH235800   5.874   3.032   5.463 -0.2743 -0.6930 -0.7524
 4770TIP3    H135801   5.925   2.967   5.512 -2.3839 -1.3925  0.6398
 4770TIP3    H235802   5.863   2.992   5.376  0.9449 -0.8062 -0.8816
 4771TIP3   OH235803   3.360   2.167  15.380  0.1952  0.1815  0.4785
 4771TIP3    H135804   3.282   2.176  15.324  0.2307 -2.8500 -0.2463
 4771TIP3    H235805   3.426   2.127  15.322  0.6769 -1.7732  2.2527
 4772TIP3   OH235806   5.279   4.264   3.898 -0.1988 -0.1911 -0.0537
 4772TIP3    H135807   5.305   4.356   3.892  1.4637 -0.5568  0.8863
 4772TIP3    H235808   5.287   4.232   3.808 -1.7250  0.7790 -0.5716
 4773TIP3   OH235809   6.668   3.382  12.621 -1.3435  0.1924  0.2953
 4773TIP3    H135810   6.646   3.303  12.572 -0.5527 -0.8232  1.5304
 4773TIP3    H235811   6.763   3.392  12.610 -1.1474 -0.0795  1.6309
 4774TIP3   OH235812   0.285   0.488   0.970  0.2221  0.2049  0.1792
 4774TIP3    H135813   0.229   0.565   0.963  1.1019  0.8953  0.5837
 4774TIP3    H235814   0.338   0.504   1.047 -0.3920 -1.3566  0.9763
 4775TIP3   OH235815   2.869   1.996  15.236  0.1078 -0.0966 -0.1314
 4775TIP3    H135816   2.864   2.038  15.151  3.5713 -0.7362 -0.7852
 4775TIP3    H235817   2.875   1.902  15.216  0.1096 -0.3187  0.8597
 4776TIP3   OH235818   5.851   0.671  16.002  0.0711 -0.0798  0.1031
 4776TIP3    H135819   5.869   0.660  15.909  1.6569  1.4824  0.1725
 4776TIP3    H235820   5.820   0.585  16.031 -0.0911 -0.6893 -1.7737
 4777TIP3   OH235821   4.581   2.839  14.290  0.0402 -0.2036  0.2077
 4777TIP3    H135822   4.518   2.772  14.264  0.7690 -0.5064 -0.8455
 4777TIP3    H235823   4.603   2.817  14.381 -2.4490  0.7829  1.1273
 4778TIP3   OH235824   4.603   3.754   6.383  0.1311 -0.2039  0.2783
 4778TIP3    H135825   4.556   3.684   6.338 -0.2009  0.5115 -0.5255
 4778TIP3    H235826   4.675   3.710   6.429 -0.1228 -1.0714 -0.1426
 4779TIP3   OH235827   2.350   6.683  11.466 -0.4670 -0.3850 -0.1070
 4779TIP3    H135828   2.418   6.655  11.405  0.7505  2.3746 -0.1881
 4779TIP3    H235829   2.360   6.778  11.470 -2.8372 -0.1234  1.7012
 4780TIP3   OH235830   0.348   2.911  14.274 -0.3182 -0.3038 -0.0690
 4780TIP3    H135831   0.349   2.935  14.182  0.5365 -1.4968 -0.3884
 4780TIP3    H235832   0.345   2.995  14.320  0.1393  0.3388 -1.1706
 4781TIP3   OH235833   5.571   2.303  15.305  0.1354  0.0051 -0.2296
 4781TIP3    H135834   5.545   2.341  15.389 -2.0115  0.0382 -0.8449
 4781TIP3    H235835   5.661   2.331  15.292  0.2014  0.7570  1.6246
 4782TIP3   OH235836   6.081   6.521  15.187  0.2035  0.1370  0.5804
 4782TIP3    H135837   6.085   6.478  15.273 -0.2070 -0.7275  0.1715
 4782TIP3    H235838   6.159   6.490  15.141 -0.8305 -1.3481 -0.2454
 4783TIP3   OH235839   0.376   5.719  13.790 -0.6230 -0.1872 -0.3491
 4783TIP3    H135840   0.340   5.755  13.871  0.5149  1.9192 -0.6975
 4783TIP3    H235841   0.300   5.694  13.738 -1.5841  2.4840 -0.3676
 4784TIP3   OH235842   5.197   2.935   0.043  0.0926 -0.3094  0.0061
 4784TIP3    H135843   5.208   2.911  -0.050  1.2874  0.0115  0.0530
 4784TIP3    H235844   5.116   2.987   0.044 -0.1180 -0.5934 -0.8035
 4785TIP3   OH235845   4.404   5.421   1.770  0.0477  0.1400 -0.3960
 4785TIP3    H135846   4.345   5.487   1.804  0.5705  0.3169  0.1949
 4785TIP3    H235847   4.350   5.342   1.760 -0.5561  0.6261 -1.0233
 4786TIP3   OH235848   3.579   1.920   2.355 -0.1325 -0.3345  0.1007
 4786TIP3    H135849   3.607   1.973   2.281 -1.9539 -1.1177 -1.2313
 4786TIP3    H235850   3.660   1.882   2.390  1.0676  2.2217  0.2883
 4787TIP3   OH235851   0.099   5.843   5.564  0.3546 -0.1599 -0.4320
 4787TIP3    H135852   0.092   5.934   5.535 -1.1389 -0.1440 -0.1079
 4787TIP3    H235853   0.098   5.848   5.660 -2.5696 -0.6155 -0.3497
 4788TIP3   OH235854   5.439   5.795  10.654  0.2533 -1.1371  0.4072
 4788TIP3    H135855   5.463   5.702  10.664 -0.0187 -1.3070 -0.4232
 4788TIP3    H235856   5.464   5.835  10.737  0.0840 -2.0209  0.9053
 4789TIP3   OH235857   4.390   2.993   5.373  0.4418 -0.4327  0.0385
 4789TIP3    H135858   4.319   2.965   5.316  0.9269  1.4628 -1.6159
 4789TIP3    H235859   4.386   2.933   5.448 -0.6340 -2.6052 -1.6492
 4790TIP3   OH235860   1.140   1.615  11.097 -0.0753  0.5054 -0.0403
 4790TIP3    H135861   1.145   1.572  11.182  0.9046  0.3740 -0.1486
 4790TIP3    H235862   1.109   1.547  11.038  0.4335  0.2338 -0.0074
 4791TIP3   OH235863   4.619   3.213  16.220  0.2311  0.7942  0.2723
 4791TIP3    H135864   4.633   3.131  16.174 -0.2305 -0.3709  2.1186
 4791TIP3    H235865   4.583   3.272  16.154  0.1115 -0.6200 -0.9693
 4792TIP3   OH235866   1.098   3.266  13.703  0.3437 -0.7546 -0.3400
 4792TIP3    H135867   1.119   3.290  13.613 -0.5251 -1.2696 -0.6968
 4792TIP3    H235868   1.029   3.327  13.729  0.7764 -0.4382  0.0693
 4793TIP3   OH235869   6.494   6.643  16.140  0.2469 -0.0917  0.3349
 4793TIP3    H135870   6.528   6.682  16.221  1.6606 -1.6049  0.5277
 4793TIP3    H235871   6.572   6.608  16.096 -0.7793 -1.3777 -0.5216
 4794TIP3   OH235872   4.997   1.856   4.875 -0.9894 -0.2001  0.2840
 4794TIP3    H135873   5.036   1.769   4.877  0.1956  0.2986 -0.1822
 4794TIP3    H235874   4.920   1.849   4.931 -0.1064 -1.1629  1.4441
 4795TIP3   OH235875   2.816   0.140   4.241 -0.0169 -0.9837 -0.1605
 4795TIP3    H135876   2.870   0.167   4.166 -1.5984 -0.1473 -1.0485
 4795TIP3    H235877   2.796   0.222   4.286 -0.3574 -1.3158  0.2976
 4796TIP3   OH235878   0.721   1.001  12.738  0.2993  0.1758 -0.2748
 4796TIP3    H135879   0.774   0.925  12.715 -0.7037 -1.3500  2.0701
 4796TIP3    H235880   0.758   1.032  12.821 -1.5026 -0.0382  0.6720
 4797TIP3   OH235881   3.153   3.109  11.002 -0.0678  0.6631 -0.4591
 4797TIP3    H135882   3.203   3.052  10.943 -0.4643 -0.6012  0.3782
 4797TIP3    H235883   3.178   3.080  11.090  1.1451  3.0695  0.0511
 4798TIP3   OH235884   1.272   5.278  17.153  0.4830  0.7538  0.4617
 4798TIP3    H135885   1.185   5.243  17.135  0.8862  0.0766 -0.2497
 4798TIP3    H235886   1.332   5.218  17.109  1.2246  2.2526 -0.6572
 4799TIP3   OH235887   3.680   0.507  13.376  0.1862 -0.1692  0.1848
 4799TIP3    H135888   3.765   0.508  13.331  0.5103  0.9016  0.8004
 4799TIP3    H235889   3.686   0.433  13.437  2.1571  2.0700  2.9366
 4800TIP3   OH235890   5.692   4.314   4.365  0.3202  0.1994 -0.7898
 4800TIP3    H135891   5.777   4.304   4.407  0.3278  1.5257 -0.4407
 4800TIP3    H235892   5.639   4.362   4.428 -0.5984 -0.3401 -1.1297
 4801TIP3   OH235893   5.323   6.195  13.316  0.3907  0.7876  0.1824
 4801TIP3    H135894   5.392   6.245  13.272 -0.6748  1.2341 -1.0615
 4801TIP3    H235895   5.246   6.205  13.259 -0.7729  0.5084  1.6395
 4802TIP3   OH235896   5.847   4.239  15.676  0.4261  0.2656 -0.0228
 4802TIP3    H135897   5.931   4.219  15.635  1.2543 -0.2298  1.7774
 4802TIP3    H235898   5.868   4.306  15.742 -0.4004 -0.5242  1.0805
 4803TIP3   OH235899   5.546   5.672   0.765  0.0167 -0.1352 -0.1859
 4803TIP3    H135900   5.601   5.728   0.819  0.2155 -0.4873 -0.0214
 4803TIP3    H235901   5.480   5.636   0.825 -0.4369  0.3365 -0.3945
 4804TIP3   OH235902   4.078   2.413  15.410 -0.0477  0.1513 -0.1407
 4804TIP3    H135903   4.101   2.357  15.484  0.5154  0.2127 -0.2614
 4804TIP3    H235904   4.144   2.482  15.411  0.5666 -0.3857 -1.2642
 4805TIP3   OH235905   4.280   3.364   2.416  0.5116 -0.0680  0.5228
 4805TIP3    H135906   4.343   3.292   2.422  0.2358 -0.3036  0.6174
 4805TIP3    H235907   4.266   3.376   2.322 -2.7653 -3.1093  0.4110
 4806TIP3   OH235908   0.838   4.370  16.511  0.0946 -0.1978  0.8297
 4806TIP3    H135909   0.857   4.454  16.469  1.3172  0.2619  2.2183
 4806TIP3    H235910   0.873   4.305  16.451 -2.4330  0.1140 -1.1319
 4807TIP3   OH235911   5.210   5.959  13.016  0.2590  0.1572 -0.5078
 4807TIP3    H135912   5.195   5.884  13.074  2.0338 -0.4121 -0.7148
 4807TIP3    H235913   5.195   5.925  12.928 -0.4572  0.4863 -0.5237
 4808TIP3   OH235914   1.910   2.878  15.959 -0.6289  0.5204  0.0238
 4808TIP3    H135915   1.838   2.814  15.956  1.2583 -1.7964  1.1178
 4808TIP3    H235916   1.930   2.895  15.867  0.4472 -2.5375 -0.4211
 4809TIP3   OH235917   2.393   1.412   1.205 -0.3119 -0.2379  0.2168
 4809TIP3    H135918   2.310   1.374   1.178 -0.1967 -1.0690  0.9797
 4809TIP3    H235919   2.437   1.435   1.123 -0.0361 -2.5397 -0.3524
 4810TIP3   OH235920   0.231   4.150   3.001 -0.1391 -0.3566 -0.0358
 4810TIP3    H135921   0.257   4.066   3.037 -0.0043 -0.9085 -1.3436
 4810TIP3    H235922   0.312   4.200   2.995 -0.2024 -0.1621  0.6404
 4811TIP3   OH235923   6.599   4.461  15.673  0.0855 -0.2619 -0.4051
 4811TIP3    H135924   6.574   4.481  15.583  1.2974  0.4652 -0.6060
 4811TIP3    H235925   6.518   4.435  15.716 -1.3016  3.2120 -0.6497
 4812TIP3   OH235926   3.091   3.194  13.536 -0.2892  0.0470  0.6288
 4812TIP3    H135927   3.070   3.282  13.504  1.1872  0.2773  0.1883
 4812TIP3    H235928   3.166   3.208  13.595 -0.2425 -0.8767  0.8043
 4813TIP3   OH235929   5.304   3.000  11.048 -0.3831 -0.4098  0.2678
 4813TIP3    H135930   5.382   2.958  11.013 -0.3218 -0.0797 -0.0056
 4813TIP3    H235931   5.252   2.929  11.085 -1.8011 -1.2769 -2.9879
 4814TIP3   OH235932   3.080   5.931  12.022 -0.0922 -0.3848 -0.3922
 4814TIP3    H135933   3.163   5.939  11.975 -0.7213  0.3405 -1.4239
 4814TIP3    H235934   3.027   5.872  11.968 -0.8934  0.6142 -0.7338
 4815TIP3   OH235935   5.644   4.713   1.606  0.2687 -0.2285 -0.0797
 4815TIP3    H135936   5.693   4.631   1.596  0.0390 -0.3909  0.0940
 4815TIP3    H235937   5.677   4.751   1.686  0.6237  0.0238 -0.3459
 4816TIP3   OH235938   0.490   6.554  14.185  0.3319  0.0266 -0.1939
 4816TIP3    H135939   0.455   6.531  14.271 -0.1598  0.4749 -0.2698
 4816TIP3    H235940   0.417   6.539  14.125  0.7586 -0.5580 -0.5764
 4817TIP3   OH235941   2.009   0.083  14.373 -0.0219 -0.3550  0.1782
 4817TIP3    H135942   2.062   0.004  14.358  0.8204  0.6108 -2.5562
 4817TIP3    H235943   1.920   0.051  14.383  0.1370 -1.6592 -1.9771
 4818TIP3   OH235944   0.944   5.668  14.958  0.6660 -0.6418  0.4062
 4818TIP3    H135945   0.857   5.651  14.995  0.0179 -0.6069 -1.0307
 4818TIP3    H235946   0.991   5.585  14.968 -0.1356 -1.2090 -0.3435
 4819TIP3   OH235947   5.767   1.881  11.775  0.0586 -0.2502 -0.2117
 4819TIP3    H135948   5.745   1.958  11.826  0.0769 -1.0461  1.0506
 4819TIP3    H235949   5.844   1.844  11.819 -1.3303 -2.2705  0.6758
 4820TIP3   OH235950   0.218   4.404  10.789 -0.5972 -0.4695 -0.3529
 4820TIP3    H135951   0.149   4.380  10.852  0.4970  0.6141  1.3144
 4820TIP3    H235952   0.170   4.440  10.714 -1.8748 -0.2047  0.5528
 4821TIP3   OH235953   5.348   4.634   4.989  0.6639  0.3397 -0.0271
 4821TIP3    H135954   5.417   4.648   4.924  1.0994 -0.5178  0.2257
 4821TIP3    H235955   5.284   4.579   4.945 -0.5434  2.2093 -0.6956
 4822TIP3   OH235956   4.850   6.022  12.562  0.1191  0.7988  0.3071
 4822TIP3    H135957   4.831   6.115  12.553 -0.1591  0.7018 -0.1241
 4822TIP3    H235958   4.768   5.978  12.541  0.7841  0.3712 -1.6805
 4823TIP3   OH235959   1.800   5.862   1.445 -0.2562 -0.0862 -0.1616
 4823TIP3    H135960   1.808   5.837   1.353  0.5934  1.7673 -0.6474
 4823TIP3    H235961   1.882   5.908   1.464  0.5500 -2.3165  2.2013
 4824TIP3   OH235962   2.666   6.143  11.758 -0.0379  0.0364  0.3787
 4824TIP3    H135963   2.641   6.129  11.667 -0.3208  2.4255  0.0242
 4824TIP3    H235964   2.675   6.055  11.795  1.2541 -1.0070 -2.2398
 4825TIP3   OH235965   3.569   3.717  11.151 -0.4203 -0.1608  0.0488
 4825TIP3    H135966   3.534   3.678  11.071 -0.0240  1.6582 -1.0501
 4825TIP3    H235967   3.662   3.698  11.149 -0.7229 -2.0570  1.2670
 4826TIP3   OH235968   2.980   6.303   4.807 -0.4564 -0.5074 -0.0755
 4826TIP3    H135969   2.959   6.303   4.900  0.2779  0.0721  0.1014
 4826TIP3    H235970   2.957   6.390   4.776 -0.3908 -0.5877 -0.3609
 4827TIP3   OH235971   0.675   2.634   1.858 -0.9329 -0.0573 -0.2500
 4827TIP3    H135972   0.747   2.571   1.854 -0.4972  0.4231 -0.0204
 4827TIP3    H235973   0.631   2.626   1.773 -0.2947  0.0085 -0.5894
 4828TIP3   OH235974   6.663   2.407   4.889 -0.1293  0.2045 -0.1475
 4828TIP3    H135975   6.715   2.326   4.888  1.1844  1.0149 -1.0249
 4828TIP3    H235976   6.712   2.466   4.946  0.5455  1.3409 -1.8235
 4829TIP3   OH235977   6.130   5.784  16.613 -0.0041  0.5842  0.1242
 4829TIP3    H135978   6.196   5.746  16.670 -0.5404 -0.1538  0.2700
 4829TIP3    H235979   6.138   5.735  16.531 -0.1804  0.6840  0.0473
 4830TIP3   OH235980   2.083   2.604  15.376 -0.0597 -0.2988 -0.3451
 4830TIP3    H135981   2.019   2.607  15.447  0.1595  0.9053 -0.1694
 4830TIP3    H235982   2.105   2.696  15.361  0.3901 -0.5939 -1.5312
 4831TIP3   OH235983   3.761   2.521  16.510 -0.5858 -0.1788 -0.4331
 4831TIP3    H135984   3.728   2.440  16.472  1.0603 -1.5759  0.9432
 4831TIP3    H235985   3.689   2.553  16.565 -1.4871 -0.3371 -1.5015
 4832TIP3   OH235986   4.750   3.211  12.172 -0.1106 -0.2133 -0.2740
 4832TIP3    H135987   4.826   3.208  12.230  0.7827 -0.6956 -1.4395
 4832TIP3    H235988   4.774   3.273  12.104 -2.3444  2.7870  1.4061
 4833TIP3   OH235989   4.525   2.344  16.653 -0.2461 -0.7834 -0.4417
 4833TIP3    H135990   4.526   2.417  16.591 -0.6116 -2.0690 -2.0390
 4833TIP3    H235991   4.439   2.349  16.695 -0.0162  0.0669 -0.0586
 4834TIP3   OH235992   2.706   4.223   3.935 -0.3845  0.3744  0.3542
 4834TIP3    H135993   2.689   4.227   3.840 -0.0921  2.2037  0.3369
 4834TIP3    H235994   2.632   4.172   3.970 -0.9893  0.4426 -0.7536
 4835TIP3   OH235995   4.604   1.731   4.501 -0.6262 -0.2153 -0.0358
 4835TIP3    H135996   4.695   1.757   4.491 -0.8602  0.2397 -1.1276
 4835TIP3    H235997   4.555   1.813   4.499 -1.1954 -0.5690 -1.2912
 4836TIP3   OH235998   2.035   4.351   3.288 -0.0149 -0.1608  0.4284
 4836TIP3    H135999   2.126   4.352   3.259 -0.2392  0.9216 -0.3014
 4836TIP3    H236000   2.031   4.418   3.357 -0.1793 -0.4892  0.7441
 4837TIP3   OH236001   2.614   2.800   4.018  0.2122  0.0069 -0.2766
 4837TIP3    H136002   2.677   2.769   4.084 -0.9396 -0.6626  0.5413
 4837TIP3    H236003   2.546   2.732   4.017 -0.5603  0.7805 -1.0509
 4838TIP3   OH236004   6.493   5.496   2.098  0.2435 -0.0266 -0.1479
 4838TIP3    H136005   6.472   5.589   2.089  0.0887 -0.0901 -0.4465
 4838TIP3    H236006   6.577   5.495   2.145 -0.0171  0.2475  0.3226
 4839TIP3   OH236007   1.934   1.562   5.019 -0.5209 -0.0818 -0.6093
 4839TIP3    H136008   1.898   1.637   4.972  1.8612  0.3192 -1.9832
 4839TIP3    H236009   1.905   1.485   4.969  0.1527  0.2090 -1.4809
 4840TIP3   OH236010   5.935   0.183  12.059 -0.1417  0.1718 -0.2511
 4840TIP3    H136011   6.002   0.251  12.049 -0.5869  0.7127  0.3580
 4840TIP3    H236012   5.943   0.130  11.980  0.1722  0.9720 -0.7738
 4841TIP3   OH236013   3.336   2.964   5.609  0.0801 -0.1823 -0.4686
 4841TIP3    H136014   3.275   2.902   5.648 -0.4372  0.4455 -0.2508
 4841TIP3    H236015   3.423   2.930   5.632 -0.1716  0.6825  2.1812
 4842TIP3   OH236016   3.263   0.120   1.715 -0.2197 -0.0234  0.2663
 4842TIP3    H136017   3.215   0.105   1.797 -0.8376  1.8572  0.3034
 4842TIP3    H236018   3.207   0.084   1.647 -1.4335  1.5347  0.3763
 4843TIP3   OH236019   0.220   1.967  12.250  0.2913 -0.1652  0.1932
 4843TIP3    H136020   0.217   1.875  12.222 -2.1393 -0.1685  0.2502
 4843TIP3    H236021   0.239   2.016  12.170 -1.0547 -0.5666 -0.3964
 4844TIP3   OH236022   5.453   3.200   0.201 -0.1929 -0.2986  0.0428
 4844TIP3    H136023   5.403   3.161   0.272 -0.5747  0.7383  0.3555
 4844TIP3    H236024   5.396   3.268   0.166  0.7947  0.5816  0.0943
 4845TIP3   OH236025   3.235   0.758  12.266  0.2260  0.1035 -0.1425
 4845TIP3    H136026   3.252   0.775  12.358  2.0244 -0.0768 -0.4057
 4845TIP3    H236027   3.314   0.789  12.221  0.1538 -1.4700 -1.4287
 4846TIP3   OH236028   0.634   3.184  14.751  0.3735  0.0407 -0.0483
 4846TIP3    H136029   0.574   3.141  14.812  2.7214 -0.1753  2.3377
 4846TIP3    H236030   0.624   3.277  14.770  0.6906  0.0075  0.3143
 4847TIP3   OH236031   0.087   2.991   3.281 -0.0750  0.2490  0.1832
 4847TIP3    H136032   0.112   2.931   3.351 -1.6830 -0.6987 -0.0284
 4847TIP3    H236033   0.067   3.073   3.326  1.9293  0.6267  0.4902
 4848TIP3   OH236034   4.150   6.140   3.660  0.6386 -0.0201 -0.3578
 4848TIP3    H136035   4.130   6.071   3.596 -0.0117 -0.8487  0.7006
 4848TIP3    H236036   4.130   6.100   3.745  3.0721  0.4527  0.5310
 4849TIP3   OH236037   6.462   1.070  11.546  0.1168 -0.0599  0.0022
 4849TIP3    H136038   6.503   1.156  11.545 -0.9739  0.5200  1.6418
 4849TIP3    H236039   6.513   1.020  11.610  0.8739 -0.7240 -1.0947
 4850TIP3   OH236040   0.538   3.386   4.955  0.1337 -0.4993  0.2322
 4850TIP3    H136041   0.614   3.349   5.001  1.5358  2.1255  0.2395
 4850TIP3    H236042   0.566   3.392   4.864  1.0787  2.8036  0.6036
 4851TIP3   OH236043   3.305   4.479   1.075 -0.1789  0.2965 -0.1606
 4851TIP3    H136044   3.325   4.560   1.123  0.4335  0.1375 -0.1438
 4851TIP3    H236045   3.260   4.424   1.139 -2.8889  1.5534 -0.8346
 4852TIP3   OH236046   4.879   3.215   6.285 -0.4071  0.4580  0.7155
 4852TIP3    H136047   4.790   3.214   6.320 -0.9422 -0.4725 -0.5813
 4852TIP3    H236048   4.892   3.126   6.252  0.8475  0.7075  0.4909
 4853TIP3   OH236049   1.175   0.456   2.754  0.0893 -0.0879 -0.5754
 4853TIP3    H136050   1.159   0.362   2.755  0.2704 -0.1481 -2.0334
 4853TIP3    H236051   1.206   0.476   2.843 -1.6764 -1.0755  0.3143
 4854TIP3   OH236052   0.454   0.690   0.384 -0.4048  0.7901  0.8734
 4854TIP3    H136053   0.408   0.629   0.327  1.2958 -0.3013  0.5773
 4854TIP3    H236054   0.474   0.640   0.462  0.8341  0.9991  0.7170
 4855TIP3   OH236055   2.783   1.348   0.848 -0.4643  0.0627  0.0481
 4855TIP3    H136056   2.702   1.328   0.896 -0.8812  0.6825 -0.3707
 4855TIP3    H236057   2.853   1.317   0.905 -1.0067 -0.8061  0.2656
 4856TIP3   OH236058   4.377   4.314  14.923  0.1116  0.2877 -0.1714
 4856TIP3    H136059   4.417   4.267  14.996 -0.7562 -0.7451 -0.3376
 4856TIP3    H236060   4.330   4.387  14.964  0.2149  0.1263  0.2403
 4857TIP3   OH236061   1.793   4.157  17.249 -0.0498 -0.0667 -0.0687
 4857TIP3    H136062   1.830   4.240  17.278 -1.3715  0.4685  0.1722
 4857TIP3    H236063   1.835   4.091  17.304  2.2636  0.2137 -1.3890
 4858TIP3   OH236064   1.237   2.495  13.912 -0.1108  0.0254 -0.0300
 4858TIP3    H136065   1.317   2.545  13.905 -1.1703  1.7660 -0.2551
 4858TIP3    H236066   1.257   2.427  13.977  1.3322  0.8083  0.3878
 4859TIP3   OH236067   1.942   3.741   1.943  0.9062 -0.9413 -0.0894
 4859TIP3    H136068   1.920   3.833   1.931  0.5735 -0.9280  0.5875
 4859TIP3    H236069   1.935   3.703   1.856  0.9631 -0.3447 -0.3569
 4860TIP3   OH236070   4.197   3.654  15.702 -0.2117 -0.3167 -0.3833
 4860TIP3    H136071   4.104   3.677  15.708 -0.0332  0.0798  2.1237
 4860TIP3    H236072   4.199   3.573  15.650 -2.0797 -0.9120  0.3859
 4861TIP3   OH236073   1.497   5.312  12.717 -0.6411  0.4360  0.5078
 4861TIP3    H136074   1.514   5.278  12.629 -1.0486  2.4189 -0.3958
 4861TIP3    H236075   1.541   5.250  12.775  1.6963  0.3265 -1.2139
 4862TIP3   OH236076   5.242   0.988   3.516 -0.2757 -0.5376 -0.1655
 4862TIP3    H136077   5.263   1.073   3.477 -2.4853  0.7031  1.1296
 4862TIP3    H236078   5.157   0.965   3.479  0.8146 -2.8407 -1.4106
 4863TIP3   OH236079   1.960   3.050  12.706  0.1068 -0.5063  0.1975
 4863TIP3    H136080   2.021   2.993  12.753  0.7547 -0.4681 -0.5960
 4863TIP3    H236081   1.925   2.995  12.636  0.1347 -0.1609 -0.0864
 4864TIP3   OH236082   1.730   5.428   2.842 -0.3227  0.1198  0.4019
 4864TIP3    H136083   1.711   5.500   2.782  0.5081  0.3155  0.3523
 4864TIP3    H236084   1.676   5.445   2.919  1.8146  2.3673  1.5572
 4865TIP3   OH236085   5.326   0.858   4.848 -0.4203  0.0099  0.4646
 4865TIP3    H136086   5.418   0.840   4.827 -1.0467  0.2690 -3.1880
 4865TIP3    H236087   5.324   0.951   4.870  0.1740  0.0914  0.1973
 4866TIP3   OH236088   5.343   5.137   5.921 -0.1324  0.5740 -0.8153
 4866TIP3    H136089   5.301   5.194   5.986  0.1081  2.2206 -2.0345
 4866TIP3    H236090   5.424   5.109   5.964 -0.1481  1.3408 -0.2433
 4867TIP3   OH236091   4.760   6.421  12.215 -0.2213 -0.3719  0.4492
 4867TIP3    H136092   4.669   6.447  12.202 -0.6036 -2.0878 -0.5377
 4867TIP3    H236093   4.801   6.497  12.258 -2.1553  0.3322  1.1340
 4868TIP3   OH236094   3.674   5.742   2.555  0.3814 -0.0151  0.3170
 4868TIP3    H136095   3.687   5.693   2.474  0.1263 -0.2798  0.4339
 4868TIP3    H236096   3.579   5.750   2.563  0.4199  0.5370  0.2796
 4869TIP3   OH236097   1.645   4.823  14.591 -0.2863  0.0970  0.3016
 4869TIP3    H136098   1.627   4.874  14.669  0.9850 -0.5190  1.0248
 4869TIP3    H236099   1.559   4.799  14.557 -0.8545  0.9800  1.0999
 4870TIP3   OH236100   4.740   0.708  14.400  0.1483  0.4196 -0.1640
 4870TIP3    H136101   4.654   0.749  14.406 -0.6068 -1.2252  1.0913
 4870TIP3    H236102   4.726   0.631  14.345  0.7313 -0.0394  0.3162
 4871TIP3   OH236103   3.838   3.173   2.709  0.2964 -0.2006 -0.8884
 4871TIP3    H136104   3.776   3.107   2.738 -1.2900  0.4478 -2.5907
 4871TIP3    H236105   3.801   3.256   2.739  2.6743 -0.0060  1.9428
 4872TIP3   OH236106   3.755   1.671   3.264 -0.0041 -0.1949  0.5572
 4872TIP3    H136107   3.700   1.749   3.264  0.6698  0.3211 -1.3110
 4872TIP3    H236108   3.694   1.599   3.247 -0.2954  0.1929 -0.0448
 4873TIP3   OH236109   1.637   5.445   0.853  0.2220  0.0101 -0.5929
 4873TIP3    H136110   1.700   5.496   0.802  1.7392 -1.0002  0.1809
 4873TIP3    H236111   1.639   5.483   0.941 -0.0516 -0.2095 -0.4883
 4874TIP3   OH236112   3.981   3.289  11.948 -0.1342  0.1713 -0.0444
 4874TIP3    H136113   3.954   3.257  12.034  2.4389  0.4612  0.9587
 4874TIP3    H236114   4.041   3.222  11.915  0.4707  1.0111 -0.7025
 4875TIP3   OH236115   6.197   2.644   0.826 -0.4000 -0.2498  0.1895
 4875TIP3    H136116   6.238   2.727   0.801 -0.7126 -0.4331 -1.0279
 4875TIP3    H236117   6.121   2.669   0.878  0.5480  0.1382  1.4235
 4876TIP3   OH236118   0.086   5.656  16.528 -0.0387  0.4530  0.2749
 4876TIP3    H136119   0.148   5.655  16.455 -3.0576 -0.9817 -2.5492
 4876TIP3    H236120   0.098   5.572  16.571 -0.4905 -0.1510 -0.7490
 4877TIP3   OH236121   6.709   4.499   5.862  0.2544  0.5902 -0.3902
 4877TIP3    H136122   6.727   4.459   5.777 -0.1699 -0.9313  0.2144
 4877TIP3    H236123   6.647   4.569   5.842  0.5721  0.5966 -1.4007
 4878TIP3   OH236124   6.597   5.466   1.224  0.1633  0.5965 -0.0254
 4878TIP3    H136125   6.553   5.436   1.145 -2.3144  3.6982 -0.0360
 4878TIP3    H236126   6.689   5.473   1.198 -0.5562  1.5486 -2.7074
 4879TIP3   OH236127   1.812   5.069  10.472 -0.3069  0.0196 -0.0932
 4879TIP3    H136128   1.885   5.022  10.432  0.3719  0.8477  0.1443
 4879TIP3    H236129   1.734   5.032  10.430  0.2698 -0.5744 -0.6649
 4880TIP3   OH236130   5.370   1.124  14.293 -0.2026 -0.0102 -0.5404
 4880TIP3    H136131   5.451   1.084  14.261 -0.0983  1.0850 -1.7272
 4880TIP3    H236132   5.376   1.215  14.266 -0.7395  0.6896  1.5363
 4881TIP3   OH236133   5.982   4.695  12.706 -0.5823 -0.3890 -0.4801
 4881TIP3    H136134   5.920   4.639  12.752  0.2571  1.0057  2.6318
 4881TIP3    H236135   5.942   4.782  12.708  0.6261  0.1792 -0.0518
 4882TIP3   OH236136   1.619   6.333   0.678  0.0841 -0.0777  0.4050
 4882TIP3    H136137   1.594   6.260   0.736 -0.5402 -0.3559 -0.2027
 4882TIP3    H236138   1.685   6.381   0.728  0.9886 -1.4178  0.5616
 4883TIP3   OH236139   3.760   3.563   2.531 -0.0783  0.0884  0.1091
 4883TIP3    H136140   3.725   3.570   2.442  0.9271 -1.8033 -0.4902
 4883TIP3    H236141   3.849   3.531   2.519 -0.8023 -2.9450  1.8362
 4884TIP3   OH236142   5.938   1.157   0.158 -0.1890  0.0334  0.0130
 4884TIP3    H136143   5.856   1.116   0.129 -0.8288 -1.5292  3.4915
 4884TIP3    H236144   5.998   1.084   0.169  0.3176  0.6364  1.4360
 4885TIP3   OH236145   4.298   5.502  16.825  0.0956  0.0029 -0.3602
 4885TIP3    H136146   4.360   5.567  16.858  0.0835 -0.3164  0.2981
 4885TIP3    H236147   4.244   5.479  16.901  0.4919 -1.2271 -0.4386
 4886TIP3   OH236148   0.949   3.417  13.264  0.3512  0.2038 -0.1189
 4886TIP3    H136149   0.935   3.469  13.343  2.0246 -0.1097  0.4122
 4886TIP3    H236150   0.943   3.481  13.193 -3.0159  0.2214 -0.0055
 4887TIP3   OH236151   1.289   2.474  10.820  0.0663  0.4189 -0.3151
 4887TIP3    H136152   1.291   2.476  10.725 -0.5298  0.8106 -0.3283
 4887TIP3    H236153   1.216   2.531  10.843 -1.4033 -1.5970  0.2995
 4888TIP3   OH236154   0.651   0.473  16.522 -0.4890  0.0591  0.2835
 4888TIP3    H136155   0.596   0.436  16.453 -0.4280  0.3895  0.0510
 4888TIP3    H236156   0.740   0.471  16.487 -0.4995  0.5260  0.2155
 4889TIP3   OH236157   2.361   0.638   4.687 -0.7546  0.0158 -0.4709
 4889TIP3    H136158   2.267   0.624   4.701 -0.4372 -2.1585 -0.0862
 4889TIP3    H236159   2.402   0.611   4.770  0.3003 -0.6322 -1.1770
 4890TIP3   OH236160   5.493   6.092  15.722  0.0120 -0.1421  1.0570
 4890TIP3    H136161   5.496   6.187  15.715 -0.0428 -0.1453  0.9801
 4890TIP3    H236162   5.577   6.063  15.687 -0.8389 -0.2318 -1.0642
 4891TIP3   OH236163   3.928   1.136   6.663 -0.2660 -0.1453  0.5624
 4891TIP3    H136164   4.001   1.161   6.718  0.9851 -1.5034 -0.4059
 4891TIP3    H236165   3.949   1.048   6.633 -1.3839  0.1425 -1.2515
 4892TIP3   OH236166   4.443   1.954   3.254 -0.1320  0.7568  0.4464
 4892TIP3    H136167   4.512   1.928   3.316  0.0723  1.6522  0.6251
 4892TIP3    H236168   4.459   2.048   3.240 -2.2141  1.3609  1.6608
 4893TIP3   OH236169   1.674   3.205  16.756  0.2395  0.2809  0.2597
 4893TIP3    H136170   1.581   3.186  16.742 -0.3044  1.5111  1.9148
 4893TIP3    H236171   1.719   3.129  16.720 -1.4455 -0.6799  0.0652
 4894TIP3   OH236172   5.556   0.525   1.177 -0.3173  0.3333 -0.5258
 4894TIP3    H136173   5.564   0.477   1.259  1.2643  0.5861 -0.5154
 4894TIP3    H236174   5.572   0.460   1.109 -0.4783  0.3673 -0.5972
 4895TIP3   OH236175   5.039   4.943  15.927  0.0527 -0.6505 -0.1393
 4895TIP3    H136176   5.124   4.986  15.938  0.4115 -1.4511  0.2553
 4895TIP3    H236177   5.045   4.899  15.842  0.5662 -1.8850  0.5177
 4896TIP3   OH236178   6.726   2.049  11.796 -0.0135 -0.3934 -0.2630
 4896TIP3    H136179   6.702   2.140  11.815 -1.6694 -0.8606  0.0336
 4896TIP3    H236180   6.794   2.028  11.860 -0.6605  0.1866  0.6320
 4897TIP3   OH236181   4.336   2.440   5.031  0.0796  0.3348 -0.1893
 4897TIP3    H136182   4.395   2.504   5.070  0.1637 -0.5916  1.2397
 4897TIP3    H236183   4.272   2.420   5.099 -0.8456  0.0023 -1.1166
 4898TIP3   OH236184   5.291   1.573  10.512 -0.0712  0.0876  0.3183
 4898TIP3    H136185   5.385   1.584  10.531 -0.0543  1.4450 -0.4456
 4898TIP3    H236186   5.284   1.485  10.477  1.3548  0.7853 -1.9313
 4899TIP3   OH236187   0.646   6.694  16.250 -0.6089 -0.1297 -0.3331
 4899TIP3    H136188   0.670   6.672  16.160 -1.4516  0.5410 -0.7390
 4899TIP3    H236189   0.724   6.733  16.288  0.4175 -2.2392 -0.1031
 4900TIP3   OH236190   0.895   4.309  17.100 -0.2661  0.1111  0.4936
 4900TIP3    H136191   0.936   4.384  17.057 -1.3683  1.1170  1.1381
 4900TIP3    H236192   0.802   4.318  17.080 -0.3287 -1.5445 -0.0755
 4901TIP3   OH236193   5.971   0.742  16.520  0.1636 -0.6259  0.0576
 4901TIP3    H136194   5.936   0.679  16.583 -0.5686 -1.6942 -1.3560
 4901TIP3    H236195   5.934   0.715  16.436 -0.4208  1.9016 -0.5712
 4902TIP3   OH236196   1.407   1.800  16.985  0.0726  0.5511  0.2866
 4902TIP3    H136197   1.410   1.707  17.006  1.3316  0.4294 -0.3001
 4902TIP3    H236198   1.320   1.829  17.012 -0.0061 -0.5889  1.3227
 4903TIP3   OH236199   1.120   5.520  14.525 -0.2524 -0.1377  0.3227
 4903TIP3    H136200   1.058   5.451  14.548 -0.2636 -0.1622  0.2212
 4903TIP3    H236201   1.067   5.587  14.482 -0.1468 -0.3470 -0.1471
 4904TIP3   OH236202   3.059   2.102   5.382 -0.3240 -0.1428 -0.1257
 4904TIP3    H136203   3.023   2.189   5.402 -1.0967  0.0809 -2.2559
 4904TIP3    H236204   3.125   2.119   5.314 -0.2218 -1.1742 -0.2919
 4905TIP3   OH236205   5.580   4.924   4.588 -0.1117  0.1914  0.2554
 4905TIP3    H136206   5.501   4.920   4.642 -1.3542  0.1735 -1.4762
 4905TIP3    H236207   5.572   4.849   4.528  2.2263 -0.9776  1.2965
 4906TIP3   OH236208   4.626   5.964   0.456 -0.0395 -0.5807  0.3346
 4906TIP3    H136209   4.650   6.054   0.476 -0.7700 -0.5440  1.1212
 4906TIP3    H236210   4.600   5.966   0.364 -0.3475  0.0821  0.4318
 4907TIP3   OH236211   6.716   2.144   0.768  0.1642  0.1966 -0.6331
 4907TIP3    H136212   6.671   2.227   0.753 -1.6854 -0.2935  1.6416
 4907TIP3    H236213   6.809   2.165   0.758 -0.2658  2.4912 -0.4162
 4908TIP3   OH236214   6.486   5.665   0.293  0.5795  0.2698  0.5698
 4908TIP3    H136215   6.526   5.590   0.338  1.7216  0.8002  0.4735
 4908TIP3    H236216   6.394   5.660   0.317  0.7616 -0.7499  1.1487
 4909TIP3   OH236217   4.565   2.473  16.908 -0.5325  0.5090 -0.1414
 4909TIP3    H136218   4.551   2.441  16.818 -0.5295  0.3879 -0.0990
 4909TIP3    H236219   4.480   2.459  16.951 -0.0113 -1.1465  0.4003
 4910TIP3   OH236220   6.067   5.283  14.740 -0.7938 -0.0695  0.0216
 4910TIP3    H136221   6.104   5.323  14.662  0.5655 -1.2194  0.0318
 4910TIP3    H236222   5.992   5.233  14.709 -1.9647  1.6745 -0.1114
 4911TIP3   OH236223   5.666   3.947  13.920 -0.3070  0.0653 -0.1939
 4911TIP3    H136224   5.739   3.886  13.908  0.0006  0.5727 -0.9282
 4911TIP3    H236225   5.620   3.913  13.997  0.5453 -0.4097  0.1253
 4912TIP3   OH236226   0.872   3.366  12.826 -0.2340  0.2700  0.1814
 4912TIP3    H136227   0.924   3.309  12.883 -0.9592 -0.1000  0.4946
 4912TIP3    H236228   0.842   3.436  12.884  1.6517  1.6742 -0.4634
 4913TIP3   OH236229   1.875   3.007   2.440 -0.0327 -0.2234  0.5320
 4913TIP3    H136230   1.807   2.943   2.461 -1.0961  0.6396 -0.1875
 4913TIP3    H236231   1.844   3.050   2.360  1.0885  0.5801  0.5018
 4914TIP3   OH236232   2.382   5.794  14.829  0.1981  0.4297  0.2185
 4914TIP3    H136233   2.310   5.853  14.805  1.6101  1.1238 -2.7643
 4914TIP3    H236234   2.442   5.848  14.879  0.1173  0.7333 -0.0101
 4915TIP3   OH236235   0.201   1.595  16.819  0.5052 -0.6912  0.0504
 4915TIP3    H136236   0.124   1.593  16.762 -0.1492 -0.7561  0.9276
 4915TIP3    H236237   0.230   1.503  16.824  0.0598 -0.8087  0.4978
 4916TIP3   OH236238   3.924   6.419  12.540  0.3213 -0.5876  0.5294
 4916TIP3    H136239   3.998   6.388  12.593  1.5629  1.0462 -0.1352
 4916TIP3    H236240   3.959   6.423  12.451 -0.1676  1.3268  0.3805
 4917TIP3   OH236241   2.800   4.995   3.340  0.2828 -0.3367  0.2940
 4917TIP3    H136242   2.712   5.031   3.335  0.9784  1.3448 -1.1278
 4917TIP3    H236243   2.837   5.031   3.420 -0.2152 -0.8745  0.7812
 4918TIP3   OH236244   3.713   6.145  11.358  0.6812  0.0170 -0.3127
 4918TIP3    H136245   3.718   6.240  11.362  1.6785 -0.0548  0.8875
 4918TIP3    H236246   3.803   6.117  11.341  1.2086 -0.8034  3.0805
 4919TIP3   OH236247   5.643   1.618  16.846 -0.4705 -0.3852  0.3231
 4919TIP3    H136248   5.658   1.704  16.886 -1.3501 -0.2280  0.3341
 4919TIP3    H236249   5.603   1.637  16.762 -0.0233 -0.7714  0.0196
 4920TIP3   OH236250   2.064   4.701   4.127  0.1328 -0.9726 -0.5504
 4920TIP3    H136251   2.159   4.689   4.140  0.1739 -0.4163 -0.3064
 4920TIP3    H236252   2.055   4.792   4.098 -0.5351 -0.1497  1.9577
 4921TIP3   OH236253   4.497   2.157  11.281 -0.6640  0.6285  0.1878
 4921TIP3    H136254   4.533   2.231  11.330 -0.9873  1.4031 -0.7171
 4921TIP3    H236255   4.532   2.080  11.324 -0.2001  1.3174  1.0574
 4922TIP3   OH236256   0.253   4.962   2.106 -0.1394  0.3673  0.1708
 4922TIP3    H136257   0.255   4.871   2.076  0.4734  0.0370  1.1549
 4922TIP3    H236258   0.338   4.998   2.081  0.2658  0.1717  1.2027
 4923TIP3   OH236259   3.999   4.460   2.266  0.3506 -0.0020 -0.1734
 4923TIP3    H136260   3.907   4.486   2.261  0.6962  1.2196 -0.7254
 4923TIP3    H236261   3.999   4.381   2.319 -1.1313 -0.6554 -1.0908
 4924TIP3   OH236262   2.492   2.633   5.235  0.5575 -0.6617 -0.1533
 4924TIP3    H136263   2.521   2.597   5.319  3.3912  1.0291 -0.2784
 4924TIP3    H236264   2.441   2.711   5.259  1.0510 -0.3894  0.0317
 4925TIP3   OH236265   4.428   3.315  11.655 -0.2633 -0.4513 -0.3162
 4925TIP3    H136266   4.427   3.286  11.746  2.7585  1.3992  0.4627
 4925TIP3    H236267   4.489   3.255  11.612 -0.5720 -0.4308 -0.7937
 4926TIP3   OH236268   1.579   5.555  11.090  0.3590  0.2894 -0.1268
 4926TIP3    H136269   1.615   5.468  11.111  3.0186  1.5663  1.0064
 4926TIP3    H236270   1.510   5.568  11.154  0.9036 -0.4119  0.6218
 4927TIP3   OH236271   4.157   2.260   4.662 -0.1307  0.0379  0.5092
 4927TIP3    H136272   4.241   2.296   4.690  0.3233 -1.4376  1.1630
 4927TIP3    H236273   4.122   2.216   4.740 -1.7546  1.0230  0.3919
 4928TIP3   OH236274   4.163   2.723   3.917 -0.1297  0.4739 -0.3021
 4928TIP3    H136275   4.178   2.736   3.823 -0.0503 -2.2597 -0.7355
 4928TIP3    H236276   4.198   2.636   3.935 -0.5544  0.7571  2.1995
 4929TIP3   OH236277   0.251   1.751  15.373  0.3967 -0.1656 -0.5600
 4929TIP3    H136278   0.266   1.668  15.419  1.1147  1.2308  1.9270
 4929TIP3    H236279   0.312   1.812  15.415 -1.2990  2.0248 -1.1193
 4930TIP3   OH236280   1.397   4.703   5.161 -0.2339  0.2363  0.1872
 4930TIP3    H136281   1.325   4.698   5.225  0.3119 -1.7026  0.7238
 4930TIP3    H236282   1.473   4.729   5.213  0.2907 -1.6987  0.4725
 4931TIP3   OH236283   4.077   0.923   3.076 -0.2572  0.4418 -0.5666
 4931TIP3    H136284   4.115   0.924   2.988  0.3175  0.6058 -0.3249
 4931TIP3    H236285   4.054   1.014   3.094 -0.3821  0.4074 -0.5506
 4932TIP3   OH236286   3.343   0.794  15.935 -0.1056  0.3568  0.1047
 4932TIP3    H136287   3.263   0.827  15.975  0.0615  1.4188 -0.3932
 4932TIP3    H236288   3.350   0.843  15.852  0.3744 -0.6561 -0.4693
 4933TIP3   OH236289   2.453   5.327  10.441 -0.3667 -0.0430 -0.5666
 4933TIP3    H136290   2.374   5.335  10.494  0.2308  1.0781  0.2059
 4933TIP3    H236291   2.525   5.334  10.504  0.3585 -0.3072 -1.3416
 4934TIP3   OH236292   1.660   0.053   3.598 -0.5477 -0.7931 -0.4597
 4934TIP3    H136293   1.717  -0.022   3.584  0.5496 -0.0713  0.0709
 4934TIP3    H236294   1.575   0.024   3.565 -0.2470 -2.3975  0.1030
 4935TIP3   OH236295   4.603   4.075  10.594  0.0751 -0.2841 -0.7546
 4935TIP3    H136296   4.691   4.053  10.564  0.5072 -0.4589  0.5659
 4935TIP3    H236297   4.616   4.112  10.681 -1.3021 -2.3196  0.4110
 4936TIP3   OH236298   1.274   2.905   2.560  0.1162  0.3278 -1.1913
 4936TIP3    H136299   1.293   2.814   2.537 -0.3724 -0.2410  0.4782
 4936TIP3    H236300   1.340   2.928   2.624  0.3851  1.2542 -1.7883
 4937TIP3   OH236301   2.831   1.263   3.644  0.1926 -0.6038 -0.4881
 4937TIP3    H136302   2.876   1.320   3.582 -0.2864  0.5214  0.1558
 4937TIP3    H236303   2.832   1.312   3.727 -1.3109 -0.9727 -0.2067
 4938TIP3   OH236304   5.088   5.546  14.482  0.6541 -0.2139  0.4365
 4938TIP3    H136305   5.095   5.616  14.547  1.7604  0.1209 -0.0356
 4938TIP3    H236306   5.016   5.491  14.515 -0.2743  1.1605  0.7717
 4939TIP3   OH236307   0.654   5.657   4.735 -0.8215  0.3959  0.4170
 4939TIP3    H136308   0.591   5.624   4.671 -0.3782  0.0325  0.1614
 4939TIP3    H236309   0.709   5.719   4.687 -0.6574  0.3257  0.5109
 4940TIP3   OH236310   1.460   2.715  11.463 -0.4976 -0.6416 -0.3555
 4940TIP3    H136311   1.386   2.664  11.430 -1.0429 -0.4121  0.4602
 4940TIP3    H236312   1.480   2.777  11.393 -2.9132  1.1663  0.4045
 4941TIP3   OH236313   5.431   0.648  14.115 -0.1742  0.3307 -0.0683
 4941TIP3    H136314   5.509   0.689  14.076 -1.2162  0.6962 -1.8720
 4941TIP3    H236315   5.433   0.675  14.207  0.4439  2.5134 -0.6604
 4942TIP3   OH236316   3.342   2.583  12.739  0.2711 -0.5254  0.1122
 4942TIP3    H136317   3.325   2.649  12.806  0.0408 -0.9652  0.4916
 4942TIP3    H236318   3.371   2.633  12.663 -0.7660  0.0746  0.1041
 4943TIP3   OH236319   6.329   5.721  16.050 -0.6119  0.0472 -0.0119
 4943TIP3    H136320   6.288   5.678  16.125  0.1458  0.4538  0.6419
 4943TIP3    H236321   6.273   5.797  16.033 -0.3302  0.4027  0.6493
 4944TIP3   OH236322   1.992   6.223  15.764  0.3314  0.3753 -0.3007
 4944TIP3    H136323   2.077   6.268  15.765 -0.5846  2.2465  1.1337
 4944TIP3    H236324   1.928   6.293  15.780 -1.2609 -1.3454  1.3629
 4945TIP3   OH236325   5.644   4.435  10.823 -0.9125  0.1222 -0.0024
 4945TIP3    H136326   5.585   4.418  10.750 -3.2729  0.3378  1.7499
 4945TIP3    H236327   5.625   4.366  10.886  0.4505  0.4515  0.8173
 4946TIP3   OH236328   0.169   3.840   2.133 -0.1375  0.4627  0.0112
 4946TIP3    H136329   0.198   3.931   2.134  0.8986  0.1586 -0.5739
 4946TIP3    H236330   0.174   3.812   2.224  0.1607  0.8080  0.1031
 4947TIP3   OH236331   0.746   3.849  16.185 -0.0767 -0.8219  0.3458
 4947TIP3    H136332   0.722   3.780  16.123 -0.4886 -2.7103  2.4925
 4947TIP3    H236333   0.667   3.863  16.237  0.0952  1.1172  0.1420
 4948TIP3   OH236334   3.939   1.845  14.693 -0.3850 -0.2639  0.3404
 4948TIP3    H136335   4.026   1.862  14.728 -1.2849  2.3277  1.6168
 4948TIP3    H236336   3.942   1.754  14.664  2.0382 -0.9772  2.4219
 4949TIP3   OH236337   2.737   4.532   1.096  0.1536 -0.2604 -0.2503
 4949TIP3    H136338   2.797   4.479   1.043 -0.0503 -2.1649  1.3176
 4949TIP3    H236339   2.790   4.561   1.170  0.1065  1.3520 -0.8019
 4950TIP3   OH236340   3.172   4.940   4.918  1.0132  0.4255  0.5870
 4950TIP3    H136341   3.106   4.870   4.912  2.4517 -1.0922  1.4800
 4950TIP3    H236342   3.151   4.999   4.846 -1.9297  0.5937  1.4312
 4951TIP3   OH236343   6.763   0.879  15.086  0.1610 -0.1467  0.8382
 4951TIP3    H136344   6.850   0.875  15.126  0.6201 -0.4402 -0.1551
 4951TIP3    H236345   6.702   0.885  15.160  1.1385  2.5604  1.5237
 4952TIP3   OH236346   2.991   6.005  16.782 -0.4599  0.0304 -0.0540
 4952TIP3    H136347   3.079   6.037  16.767 -0.4043 -0.7303 -1.5700
 4952TIP3    H236348   2.987   5.987  16.876  1.4081 -1.0717 -0.1350
 4953TIP3   OH236349   5.799   1.406  16.409  0.3637 -0.3229  0.0614
 4953TIP3    H136350   5.830   1.381  16.323  2.6337 -1.0287  1.0033
 4953TIP3    H236351   5.863   1.471  16.440  0.2976 -0.9733  1.6678
 4954TIP3   OH236352   6.610   1.573   0.053  0.6621 -0.3737  0.0268
 4954TIP3    H136353   6.701   1.584   0.081  0.6981  1.2271 -0.5983
 4954TIP3    H236354   6.558   1.603   0.128  0.7312  1.4360 -0.5807
 4955TIP3   OH236355   3.848   4.784   1.469  0.2410  0.1586 -0.3299
 4955TIP3    H136356   3.884   4.817   1.552 -0.0721  0.3799 -0.2779
 4955TIP3    H236357   3.801   4.859   1.432 -1.9064 -0.6646  0.5897
 4956TIP3   OH236358   1.980   3.669   5.066  0.1324  0.5180 -0.5192
 4956TIP3    H136359   1.936   3.661   4.982  0.0616 -0.6924 -0.3860
 4956TIP3    H236360   2.073   3.654   5.046  0.2891  1.4457 -0.5507
 4957TIP3   OH236361   4.936   5.030  16.238  0.8806  0.1877  0.0538
 4957TIP3    H136362   4.844   5.056  16.229  1.2705  1.2232 -1.2947
 4957TIP3    H236363   4.951   4.973  16.162  1.2698 -0.2491  0.4568
 4958TIP3   OH236364   0.413   5.946  12.310  0.0689  0.0181  0.1900
 4958TIP3    H136365   0.477   6.016  12.322  0.8679 -0.7583  0.5604
 4958TIP3    H236366   0.377   5.961  12.223  1.7492 -0.2996 -0.6006
 4959TIP3   OH236367   1.602   3.134  14.261 -0.2622 -0.0074  0.3218
 4959TIP3    H136368   1.645   3.054  14.289 -0.0175  0.1428  0.3810
 4959TIP3    H236369   1.616   3.196  14.333  1.4958  0.7904 -0.6296
 4960TIP3   OH236370   1.890   4.594  11.968  0.6381  0.1106  0.2734
 4960TIP3    H136371   1.976   4.609  11.927  0.2339  1.1739 -0.2259
 4960TIP3    H236372   1.889   4.501  11.986  0.8408 -0.4573 -2.2008
 4961TIP3   OH236373   5.684   6.609  15.825 -0.3840  0.0918 -0.0727
 4961TIP3    H136374   5.604   6.635  15.780 -0.3863 -0.2302 -0.2600
 4961TIP3    H236375   5.709   6.527  15.783 -1.3047 -1.1196  1.5979
 4962TIP3   OH236376   0.608   6.582   0.295 -0.1847 -0.1559  0.0579
 4962TIP3    H136377   0.588   6.507   0.240 -0.0227 -0.7857  0.8445
 4962TIP3    H236378   0.664   6.547   0.364  1.2801  0.9916 -0.4724
 4963TIP3   OH236379   1.413   4.801  16.337  0.7337  0.0337 -0.2653
 4963TIP3    H136380   1.395   4.749  16.416  2.4839 -1.8725 -1.0248
 4963TIP3    H236381   1.433   4.736  16.270  3.5743  1.6712 -1.1710
 4964TIP3   OH236382   2.738   2.105  17.065  0.1118  0.0068  0.4650
 4964TIP3    H136383   2.832   2.089  17.061  0.2628  0.1487  2.4459
 4964TIP3    H236384   2.725   2.184  17.012  1.1055  0.0097  0.2046
 4965TIP3   OH236385   2.035   3.596  12.007 -0.6873  0.2138 -0.2515
 4965TIP3    H136386   2.059   3.529  12.072 -2.2058 -0.7412 -0.6304
 4965TIP3    H236387   2.108   3.596  11.945 -0.8563 -1.4296 -0.4851
 4966TIP3   OH236388   0.741   4.385   1.297  0.7379  0.3458  0.3249
 4966TIP3    H136389   0.831   4.389   1.264  1.1256 -0.2105  1.2523
 4966TIP3    H236390   0.751   4.373   1.392 -0.3119  0.2172  0.4321
 4967TIP3   OH236391   2.028   0.655   6.723  0.1583 -0.0452  0.2990
 4967TIP3    H136392   2.061   0.717   6.787  0.5239  1.1045 -0.9779
 4967TIP3    H236393   2.069   0.572   6.748 -0.2237  0.2036  1.9303
 4968TIP3   OH236394   1.512   0.160  11.461  0.6420 -0.6315 -0.0614
 4968TIP3    H136395   1.464   0.239  11.436  1.8907  0.3154  0.3924
 4968TIP3    H236396   1.509   0.104  11.383 -1.3510 -0.7151  0.0455
 4969TIP3   OH236397   0.705   1.708   2.071  0.1875 -0.1286 -0.2987
 4969TIP3    H136398   0.732   1.634   2.125  0.0990 -0.1582 -0.2947
 4969TIP3    H236399   0.722   1.785   2.126  0.4407 -0.1331 -0.3675
 4970TIP3   OH236400   0.636   5.115   0.925  0.2202  0.4463 -0.0373
 4970TIP3    H136401   0.549   5.127   0.962  0.3361 -1.7778  1.1066
 4970TIP3    H236402   0.693   5.106   1.001  0.8655 -1.6599 -0.7073
 4971TIP3   OH236403   4.413   6.524  17.193  0.2743  0.1397  0.6736
 4971TIP3    H136404   4.385   6.609  17.229 -1.0269  0.5937 -1.2373
 4971TIP3    H236405   4.505   6.538  17.170  0.2614  0.8142  0.9876
 4972TIP3   OH236406   1.567   2.354   4.230 -0.6769 -0.0946  0.4655
 4972TIP3    H136407   1.561   2.446   4.208  0.0942 -0.3203 -0.7625
 4972TIP3    H236408   1.483   2.334   4.271 -0.5119  1.3374  1.5756
 4973TIP3   OH236409   2.179   3.999   3.580 -0.2458 -0.3125  0.0841
 4973TIP3    H136410   2.176   3.948   3.499  0.6079 -2.0359  1.0920
 4973TIP3    H236411   2.089   3.997   3.613 -0.5129  0.0625 -0.5983
 4974TIP3   OH236412   2.538   0.229  11.029 -0.2273  0.3880  0.3262
 4974TIP3    H136413   2.543   0.151  10.974  0.3142  0.5754  0.1075
 4974TIP3    H236414   2.485   0.290  10.979  0.7305  0.7645 -0.2492
 4975TIP3   OH236415   5.283   4.819   2.247 -0.1191  0.5865 -0.0485
 4975TIP3    H136416   5.359   4.766   2.267  0.5611  2.1160  1.6624
 4975TIP3    H236417   5.211   4.757   2.240  1.0668 -0.7748 -0.6366
 4976TIP3   OH236418   3.351   6.684   3.956 -0.7033  0.2359 -0.2925
 4976TIP3    H136419   3.306   6.769   3.955  0.4374  0.9372  1.6003
 4976TIP3    H236420   3.292   6.625   3.909 -1.3596  2.1289 -2.0215
 4977TIP3   OH236421   0.806   3.579   2.964  0.9644 -0.2743 -0.3791
 4977TIP3    H136422   0.731   3.546   2.915 -0.7721  0.4189  1.6328
 4977TIP3    H236423   0.882   3.557   2.910 -0.4970 -2.7348 -1.6375
 4978TIP3   OH236424   2.398   1.687   1.298  0.1534 -0.4091  0.7219
 4978TIP3    H136425   2.408   1.596   1.270  0.8235  0.6694 -3.0858
 4978TIP3    H236426   2.484   1.726   1.285  0.1487  0.6528  3.2510
 4979TIP3   OH236427   6.485   3.454   4.541  0.3850 -0.0118  0.6540
 4979TIP3    H136428   6.489   3.373   4.591  0.3051  0.9860  2.3698
 4979TIP3    H236429   6.394   3.483   4.549  0.5894  0.6297  0.7211
 4980TIP3   OH236430   3.902   3.632  11.508  0.0656 -0.1466  0.4244
 4980TIP3    H136431   3.909   3.568  11.437 -0.1247  0.8743 -0.5498
 4980TIP3    H236432   3.939   3.588  11.584  2.8144 -0.3710 -0.9011
 4981TIP3   OH236433   2.092   4.722   5.115  0.4019 -0.2978 -0.3426
 4981TIP3    H136434   2.090   4.656   5.045 -0.1117 -0.3089 -0.3146
 4981TIP3    H236435   2.114   4.671   5.193 -0.0677 -0.4511 -0.3075
 4982TIP3   OH236436   0.851   4.131  11.602 -0.5895  0.0182 -0.6640
 4982TIP3    H136437   0.906   4.158  11.676 -1.5288 -1.5328  0.6792
 4982TIP3    H236438   0.910   4.077  11.548 -0.7649 -1.9978  0.9866
 4983TIP3   OH236439   0.275   2.013  13.194 -0.2397  0.3337 -0.8089
 4983TIP3    H136440   0.314   1.983  13.112  1.3970  0.4033 -0.1016
 4983TIP3    H236441   0.328   1.973  13.262  1.2006  3.5913  0.1860
 4984TIP3   OH236442   0.544   2.269   4.098 -0.5832 -0.1157  0.1351
 4984TIP3    H136443   0.624   2.314   4.123 -0.7331 -0.8493  2.0950
 4984TIP3    H236444   0.493   2.262   4.179 -2.7267  0.4702 -1.0770
 4985TIP3   OH236445   0.696   1.338  17.087  0.2419  0.1973  0.1476
 4985TIP3    H136446   0.674   1.376  17.172  1.5644  1.9296 -0.2374
 4985TIP3    H236447   0.780   1.293  17.101 -0.9996 -2.1934  0.4437
 4986TIP3   OH236448   2.845   6.291   0.267  0.3787  0.7311 -0.4028
 4986TIP3    H136449   2.925   6.304   0.216 -0.1386 -0.1327 -1.4707
 4986TIP3    H236450   2.862   6.337   0.349  2.1392  0.1994 -0.4254
 4987TIP3   OH236451   0.571   3.688  13.833  0.0762 -0.0186  0.1309
 4987TIP3    H136452   0.569   3.628  13.907 -1.2549 -0.6077 -0.3486
 4987TIP3    H236453   0.488   3.673  13.788 -0.1310  1.9146 -0.2116
 4988TIP3   OH236454   0.015   3.785   3.542 -0.2412  0.1557 -0.1074
 4988TIP3    H136455   0.100   3.785   3.586  0.3946  1.5937 -1.2682
 4988TIP3    H236456  -0.040   3.728   3.596  1.6161 -1.3213  0.3100
 4989TIP3   OH236457   0.592   4.276   5.980  0.2634  0.2557 -0.2046
 4989TIP3    H136458   0.502   4.298   5.954  0.1733  1.1739  0.7938
 4989TIP3    H236459   0.582   4.200   6.038  0.5113 -2.1399 -3.0893
 4990TIP3   OH236460   6.521   6.554   1.349  0.0514 -0.0425  0.2281
 4990TIP3    H136461   6.458   6.538   1.280  0.2270 -1.8610  0.4547
 4990TIP3    H236462   6.483   6.626   1.400 -1.8486 -1.0913  0.3777
 4991TIP3   OH236463   5.883   5.997   3.150  0.6564  0.0235 -0.2734
 4991TIP3    H136464   5.920   6.034   3.231 -0.1286 -0.8497  0.5152
 4991TIP3    H236465   5.925   6.046   3.080 -0.7665  2.8476  0.6917
 4992TIP3   OH236466   4.923   3.464  12.897  0.1942 -0.6592 -0.1905
 4992TIP3    H136467   4.971   3.489  12.818 -0.0483  0.4396 -0.0015
 4992TIP3    H236468   4.845   3.420  12.865  0.4191 -0.8127 -0.5417
 4993TIP3   OH236469   1.270   4.852  14.115  0.4062 -0.0755 -0.4780
 4993TIP3    H136470   1.307   4.923  14.063 -1.3830  1.0436 -0.2796
 4993TIP3    H236471   1.230   4.895  14.190  0.3590 -1.4116  0.2971
 4994TIP3   OH236472   0.207   4.345  16.182  0.4248  1.0211  0.4984
 4994TIP3    H136473   0.247   4.285  16.245  0.2441  0.8498  0.4527
 4994TIP3    H236474   0.212   4.431  16.223  2.2681  1.2724 -0.1712
 4995TIP3   OH236475   4.030   2.858  14.034 -0.4426 -0.0529  0.3845
 4995TIP3    H136476   3.944   2.877  13.997 -0.4327 -0.6346  0.0604
 4995TIP3    H236477   4.035   2.914  14.112 -0.4301  1.2291 -0.5155
 4996TIP3   OH236478   3.627   5.717  10.943 -0.1175 -0.2495 -0.3774
 4996TIP3    H136479   3.714   5.677  10.936 -0.1019 -0.2195 -0.3575
 4996TIP3    H236480   3.570   5.662  10.889  0.0162  0.0244 -0.8079
 4997TIP3   OH236481   0.339   1.760   1.017 -0.3127  0.0927  0.1550
 4997TIP3    H136482   0.389   1.698   1.071 -3.2625 -1.5704  1.1961
 4997TIP3    H236483   0.283   1.807   1.079 -0.2600  1.7355 -0.9715
 4998TIP3   OH236484   4.644   2.007   0.090 -0.0079  0.2107 -0.7771
 4998TIP3    H136485   4.631   2.046   0.177 -1.8672 -0.9495 -0.4759
 4998TIP3    H236486   4.659   1.915   0.107  0.8209  0.1744 -1.6434
 4999TIP3   OH236487   4.295   3.225  14.891 -0.0905  0.0935 -0.2778
 4999TIP3    H136488   4.308   3.172  14.813  0.4600  0.1138 -0.2043
 4999TIP3    H236489   4.225   3.181  14.939 -0.8512  0.4087 -1.0626
 5000TIP3   OH236490   5.139   0.675  14.594 -0.5955  0.7013  0.1638
 5000TIP3    H136491   5.197   0.726  14.537 -0.2629 -1.0741 -1.1882
 5000TIP3    H236492   5.054   0.679  14.551 -0.6139  0.3287  0.1595
 5001TIP3   OH236493   0.739   4.060  13.652  0.3656 -0.2755  0.1766
 5001TIP3    H136494   0.720   4.126  13.718 -0.8488 -0.0823 -0.3366
 5001TIP3    H236495   0.753   3.979  13.701  2.5126  0.4361  0.8628
 5002TIP3   OH236496   1.322   6.753   0.388  0.1999  0.2572  0.1198
 5002TIP3    H136497   1.366   6.742   0.304  0.5525  0.3398  0.2901
 5002TIP3    H236498   1.351   6.839   0.419 -1.3133  1.0238 -0.4830
 5003TIP3   OH236499   2.531   0.278  13.365 -0.2874 -0.1118  0.0431
 5003TIP3    H136500   2.573   0.222  13.300 -1.3769 -1.7651  0.7051
 5003TIP3    H236501   2.580   0.264  13.446  1.6537  2.6460 -0.5041
 5004TIP3   OH236502   6.605   6.127   2.339  0.9271  0.5546 -0.0858
 5004TIP3    H136503   6.568   6.063   2.400  1.6346  1.1677  1.0183
 5004TIP3    H236504   6.665   6.076   2.284 -0.1072 -0.0955 -0.6430
 5005TIP3   OH236505   2.597   5.979  14.944  0.7353 -0.1693 -0.0895
 5005TIP3    H136506   2.617   5.985  14.851  2.2545 -0.4778  0.1836
 5005TIP3    H236507   2.631   5.893  14.970  1.3243  0.3705  0.9695
 5006TIP3   OH236508   6.377   2.073   2.734  0.1192  0.0309  0.1385
 5006TIP3    H136509   6.458   2.026   2.717 -0.3197 -1.6976  2.3714
 5006TIP3    H236510   6.309   2.019   2.694 -0.2269 -0.2815  1.1394
 5007TIP3   OH236511   1.984   1.624   1.213  0.0874 -0.0846  0.2134
 5007TIP3    H136512   1.948   1.713   1.214 -1.1466 -0.5256 -1.0360
 5007TIP3    H236513   1.980   1.595   1.304 -0.9066  0.6268  0.4155
 5008TIP3   OH236514   3.776   5.654   3.385  0.4846  0.1837 -0.2444
 5008TIP3    H136515   3.797   5.595   3.313  0.0516 -0.9267  0.5026
 5008TIP3    H236516   3.786   5.742   3.349  0.3576 -0.3498 -1.6198
 5009TIP3   OH236517   5.672   6.597   1.384 -0.4512 -0.5172  0.3036
 5009TIP3    H136518   5.593   6.550   1.359 -0.0778 -0.2990 -1.4248
 5009TIP3    H236519   5.648   6.690   1.378 -0.5684 -0.4359  1.6086
 5010TIP3   OH236520   6.176   3.434   4.096  0.2597 -0.3381  0.4415
 5010TIP3    H136521   6.253   3.459   4.043 -2.4612 -0.0855 -3.8973
 5010TIP3    H236522   6.157   3.345   4.069 -1.3797 -0.1356  0.8562
 5011TIP3   OH236523   5.049   0.285  14.193  0.2016 -0.0463 -0.1278
 5011TIP3    H136524   5.003   0.351  14.141 -0.0996  0.0914  0.3102
 5011TIP3    H236525   5.002   0.282  14.276  1.1048  0.2541  0.4189
 5012TIP3   OH236526   4.702   1.480   4.752 -0.4045 -0.8766  0.2870
 5012TIP3    H136527   4.720   1.488   4.658 -1.4860  0.4383  0.1638
 5012TIP3    H236528   4.753   1.404   4.779  1.0682 -0.4455 -1.0692
 5013TIP3   OH236529   4.841   5.602   1.000 -0.4391  0.6106 -0.1225
 5013TIP3    H136530   4.751   5.632   1.012 -0.1152  1.3528  0.4911
 5013TIP3    H236531   4.896   5.671   1.037  0.3694 -0.1754  0.2007
 5014TIP3   OH236532   3.255   4.187   3.403  0.1639  0.0559  0.0304
 5014TIP3    H136533   3.281   4.175   3.494  0.5159 -1.0907 -0.2071
 5014TIP3    H236534   3.159   4.184   3.405  0.1640  0.1944  0.3784
 5015TIP3   OH236535   2.820   6.693   2.405  0.5397 -0.3834 -0.5029
 5015TIP3    H136536   2.727   6.669   2.398  0.5718 -0.5421 -0.4061
 5015TIP3    H236537   2.865   6.629   2.350  0.6765 -0.8755  0.1703
 5016TIP3   OH236538   3.658   2.610  11.033 -0.2828 -0.3858 -0.1022
 5016TIP3    H136539   3.631   2.519  11.020  0.4669 -0.9436  1.9562
 5016TIP3    H236540   3.599   2.643  11.101 -0.0515  0.4534 -0.2962
 5017TIP3   OH236541   2.283   3.311  16.918  0.0558  0.1669 -0.2207
 5017TIP3    H136542   2.285   3.391  16.866  2.4949  1.1124  1.1584
 5017TIP3    H236543   2.295   3.241  16.853 -0.3870  1.0287 -1.2664
 5018TIP3   OH236544   5.059   1.477  12.133  0.1708  0.0204  0.0347
 5018TIP3    H136545   5.060   1.410  12.065  2.1438  0.5880 -0.5732
 5018TIP3    H236546   4.993   1.540  12.104 -1.1726 -1.2578  0.2468
 5019TIP3   OH236547   1.707   2.050  14.669 -0.2318  0.3659 -0.4817
 5019TIP3    H136548   1.701   2.049  14.765  0.2949 -1.0955 -0.4421
 5019TIP3    H236549   1.753   2.132  14.649 -1.5807  1.3789  0.4081
 5020TIP3   OH236550   2.792   2.891  13.342  0.4419 -0.4400 -0.6785
 5020TIP3    H136551   2.785   2.844  13.425  0.7356  0.2288 -0.2624
 5020TIP3    H236552   2.808   2.823  13.277  3.2357 -0.7780  0.2172
 5021TIP3   OH236553   0.891   0.542   4.193 -0.5955 -0.3545 -0.0835
 5021TIP3    H136554   0.880   0.447   4.194  1.4674 -0.6710  2.5490
 5021TIP3    H236555   0.961   0.557   4.129  0.9722 -0.9756  1.3963
 5022TIP3   OH236556   5.928   1.713  12.294 -0.6483  0.4610  0.4686
 5022TIP3    H136557   5.993   1.644  12.280 -0.6870  0.4216  0.4816
 5022TIP3    H236558   5.979   1.790  12.317 -0.6556  0.2004  1.3843
 5023TIP3   OH236559   2.678   6.630  14.635 -0.7504  0.2839 -0.1206
 5023TIP3    H136560   2.711   6.543  14.655 -3.0596 -0.6338 -0.0395
 5023TIP3    H236561   2.750   6.673  14.587  0.0280 -2.0216 -1.1350
 5024TIP3   OH236562   1.093   0.204   5.818  0.1391  0.4304 -0.6766
 5024TIP3    H136563   0.997   0.212   5.814 -0.0273 -1.4598 -2.1258
 5024TIP3    H236564   1.123   0.289   5.848 -1.8688  1.9760 -2.6822
 5025TIP3   OH236565   5.786   5.646  14.636  0.4439  0.3252  0.3251
 5025TIP3    H136566   5.731   5.694  14.697 -0.5336 -1.0034  0.5367
 5025TIP3    H236567   5.852   5.709  14.608  1.1038  0.9231  2.9599
 5026TIP3   OH236568   2.364   4.352   5.068  0.2391  0.0667  0.0242
 5026TIP3    H136569   2.270   4.340   5.057  0.3074 -0.1504 -0.3289
 5026TIP3    H236570   2.379   4.339   5.162 -0.2224  1.0883  0.2585
 5027TIP3   OH236571   0.454   6.658  15.675  0.6485 -0.1269  0.1451
 5027TIP3    H136572   0.419   6.717  15.609  0.7905  0.8042  0.8811
 5027TIP3    H236573   0.466   6.575  15.629 -2.1210 -0.3900 -0.2414
 5028TIP3   OH236574   1.904   2.374  12.357  0.0663  0.2839 -0.1492
 5028TIP3    H136575   1.895   2.281  12.334 -1.0503  0.3415  0.0147
 5028TIP3    H236576   1.895   2.421  12.275  2.0189  0.2036 -0.4547
 5029TIP3   OH236577   0.087   2.787   2.317  0.3687 -0.0920 -0.3682
 5029TIP3    H136578   0.111   2.880   2.316  2.2209 -0.5066  1.0339
 5029TIP3    H236579   0.150   2.745   2.258  0.0777 -0.5840 -0.3384
 5030TIP3   OH236580   0.129   3.544   1.080  0.1396  0.1512 -0.4895
 5030TIP3    H136581   0.054   3.582   1.035  1.3295  0.7641 -2.0873
 5030TIP3    H236582   0.111   3.450   1.083 -0.3209  0.1852 -1.6306
 5031TIP3   OH236583   3.632   1.623  11.713 -0.0173 -0.7146 -0.3728
 5031TIP3    H136584   3.572   1.653  11.645  0.1123 -0.9415 -0.5900
 5031TIP3    H236585   3.619   1.528  11.716 -0.8038 -0.5863  0.6675
 5032TIP3   OH236586   1.907   1.960   2.782 -0.1044 -0.1422  0.0512
 5032TIP3    H136587   1.899   1.962   2.687 -1.2556  0.2803  0.1403
 5032TIP3    H236588   1.980   2.018   2.802 -0.5118  0.5802 -0.5254
 5033TIP3   OH236589   5.534   4.869  15.441 -0.2129  0.3911 -0.1161
 5033TIP3    H136590   5.600   4.930  15.407  0.7365  0.2071  1.2826
 5033TIP3    H236591   5.483   4.921  15.502 -0.1750  0.0898  0.1745
 5034TIP3   OH236592   6.262   0.284   2.700  0.0480 -0.2387 -0.5086
 5034TIP3    H136593   6.326   0.349   2.727  0.4162 -0.4011 -0.9799
 5034TIP3    H236594   6.192   0.334   2.658  0.1199 -0.1124 -0.4768
 5035TIP3   OH236595   0.646   4.220  11.448 -0.1907 -0.5687 -0.3517
 5035TIP3    H136596   0.635   4.170  11.367 -0.3950 -2.8611  1.0201
 5035TIP3    H236597   0.708   4.169  11.500  2.0390  2.1995 -0.0505
 5036TIP3   OH236598   0.544   0.864   2.443  0.0781 -0.3033  0.4610
 5036TIP3    H136599   0.633   0.885   2.414  0.2240 -0.4565  0.7854
 5036TIP3    H236600   0.494   0.856   2.362  0.1319  0.7518  0.3102
 5037TIP3   OH236601   3.720   4.148   3.360  0.2817 -0.2277 -0.1487
 5037TIP3    H136602   3.701   4.079   3.297 -1.1896 -1.0738  1.1588
 5037TIP3    H236603   3.771   4.104   3.429 -2.6119 -0.6977  1.8593
 5038TIP3   OH236604   1.585   2.563  10.410 -0.1766 -0.0413 -0.6856
 5038TIP3    H136605   1.508   2.577  10.356 -1.5656 -0.2873  1.1109
 5038TIP3    H236606   1.570   2.478  10.451 -0.7201  1.3588  2.3059
 5039TIP3   OH236607   2.020   4.620  14.429 -0.0707 -0.2657  0.3157
 5039TIP3    H136608   2.100   4.638  14.380 -0.4693  2.0226  0.3707
 5039TIP3    H236609   1.985   4.540  14.391  1.9067 -0.9719 -0.1269
 5040TIP3   OH236610   2.140   3.901  12.662  0.6969  0.1264  0.2094
 5040TIP3    H136611   2.088   3.980  12.646 -0.1509 -0.1630  1.3792
 5040TIP3    H236612   2.215   3.909  12.603  0.4163  1.6018  0.0089
 5041TIP3   OH236613   4.955   2.848   3.535 -0.4745  0.3073  0.0568
 5041TIP3    H136614   4.990   2.780   3.592 -0.4460 -0.1037 -0.4443
 5041TIP3    H236615   5.022   2.916   3.535  0.0123 -0.1614 -0.3277
 5042TIP3   OH236616   6.539   0.626  13.370 -0.0870  0.4813 -0.1952
 5042TIP3    H136617   6.452   0.662  13.389 -0.9101 -1.0590 -0.8615
 5042TIP3    H236618   6.568   0.589  13.454 -1.6732 -2.1459 -0.6926
 5043TIP3   OH236619   0.916   3.190   2.568 -0.3558  0.0263  0.8009
 5043TIP3    H136620   1.001   3.174   2.528 -0.0753  0.6972  1.1279
 5043TIP3    H236621   0.853   3.177   2.497  0.1775  1.8041 -0.0261
 5044TIP3   OH236622   1.355   0.994   2.875 -0.3582  0.5856 -0.0262
 5044TIP3    H136623   1.423   1.033   2.820 -0.3549  0.5073 -0.0787
 5044TIP3    H236624   1.289   0.963   2.813  0.3317 -0.8182 -0.0941
 5045TIP3   OH236625   6.561   5.320  12.209  0.0204  0.0196  0.2708
 5045TIP3    H136626   6.586   5.230  12.187  1.7865  0.5287  0.0854
 5045TIP3    H236627   6.481   5.310  12.262  0.5509 -1.6965  0.8137
 5046TIP3   OH236628   6.593   6.156   3.460 -0.2279  0.0137 -0.7204
 5046TIP3    H136629   6.507   6.196   3.469  0.6718  1.9761 -0.1574
 5046TIP3    H236630   6.609   6.153   3.366 -0.5874  0.3791 -0.7940
 5047TIP3   OH236631   0.944   6.498   1.012  0.7425  0.0380 -0.1269
 5047TIP3    H136632   1.011   6.505   0.945  1.0407 -0.7798  0.0740
 5047TIP3    H236633   0.992   6.502   1.095  0.3567  1.3092  0.0661
 5048TIP3   OH236634   6.102   4.475   2.025  0.7972  0.2963 -0.0148
 5048TIP3    H136635   6.031   4.477   1.960  1.5267 -0.5498 -0.8593
 5048TIP3    H236636   6.182   4.468   1.973  1.4004 -0.3483  0.9689
 5049TIP3   OH236637   0.248   3.768  16.222 -0.5202  0.3781  0.3768
 5049TIP3    H136638   0.178   3.774  16.157  0.3253  0.3230 -0.5552
 5049TIP3    H236639   0.326   3.796  16.176 -0.3044  2.8936  2.1065
 5050TIP3   OH236640   4.120   1.395   2.079  0.0589 -0.4288 -0.4834
 5050TIP3    H136641   4.052   1.370   2.016 -2.2477 -0.8405  2.0017
 5050TIP3    H236642   4.124   1.322   2.141  0.6082  0.9031  1.1158
 5051TIP3   OH236643   0.046   3.822   0.943 -0.2353  0.8039  0.4258
 5051TIP3    H136644   0.141   3.826   0.955 -0.1681  0.0168  0.2067
 5051TIP3    H236645   0.035   3.782   0.857 -0.7776 -0.0973  0.9033
 5052TIP3   OH236646   1.487   2.527   2.205  0.6611 -0.3131  0.0746
 5052TIP3    H136647   1.449   2.443   2.179  0.7511  0.1137 -1.4987
 5052TIP3    H236648   1.421   2.567   2.262 -0.6377 -0.2259 -1.4416
 5053TIP3   OH236649   0.644   3.539  12.163  0.0789  0.0201  0.0716
 5053TIP3    H136650   0.705   3.585  12.105  0.2021 -1.1410 -0.7554
 5053TIP3    H236651   0.621   3.459  12.115 -0.1633 -0.7608  1.4355
 5054TIP3   OH236652   1.138   5.166   2.587  0.3041 -0.3746  0.0709
 5054TIP3    H136653   1.229   5.183   2.614  0.0536  1.7506 -0.2459
 5054TIP3    H236654   1.093   5.249   2.603 -1.1827 -0.8532 -1.4128
 5055TIP3   OH236655   2.333   4.583  13.757  0.1397 -0.0281  0.1303
 5055TIP3    H136656   2.247   4.565  13.720  0.7661 -4.5159  0.2871
 5055TIP3    H236657   2.324   4.565  13.850  1.0531  0.4489  0.3278
 5056TIP3   OH236658   5.044   2.091   5.073  0.0328  0.3887  0.0736
 5056TIP3    H136659   4.982   2.039   5.022  0.2404  0.6906 -0.4980
 5056TIP3    H236660   5.008   2.179   5.072  0.7424  0.6838 -0.7316
 5057TIP3   OH236661   4.097   0.828  16.495  0.1714  0.0490 -0.8024
 5057TIP3    H136662   4.095   0.767  16.569  3.6862 -1.9063 -2.0557
 5057TIP3    H236663   4.149   0.902  16.527 -0.5185  0.4483 -0.5768
 5058TIP3   OH236664   1.576   2.907   2.058 -0.4252  0.1171  0.1232
 5058TIP3    H136665   1.611   2.988   2.095  0.6748 -0.4269  0.3098
 5058TIP3    H236666   1.591   2.841   2.126  0.0339 -0.5412 -0.6035
 5059TIP3   OH236667   6.612   0.331   2.487 -0.2335  0.0689 -0.2067
 5059TIP3    H136668   6.633   0.402   2.547 -1.2784  0.1318  0.0974
 5059TIP3    H236669   6.634   0.365   2.400 -0.1708  0.5375 -0.0080
 5060TIP3   OH236670   2.110   4.152  15.241 -0.9219 -0.6274 -0.2779
 5060TIP3    H136671   2.158   4.087  15.190 -1.5096 -1.8301  0.6638
 5060TIP3    H236672   2.020   4.144  15.211 -0.8921  0.2367 -0.6258
 5061TIP3   OH236673   6.535   1.903   1.815  0.4938  0.8075  0.4620
 5061TIP3    H136674   6.514   1.966   1.883 -1.4785 -0.2984  0.9612
 5061TIP3    H236675   6.533   1.818   1.859  4.3865  0.3544  0.1018
 5062TIP3   OH236676   3.617   3.519  12.696  0.1204 -0.6582 -0.4542
 5062TIP3    H136677   3.632   3.455  12.627 -0.1063 -0.0728 -1.0554
 5062TIP3    H236678   3.645   3.475  12.777 -0.7942 -1.7992 -0.7406
 5063TIP3   OH236679   5.303   4.095   0.064  0.1829  0.1552  0.0482
 5063TIP3    H136680   5.212   4.094   0.095 -0.4510  0.7093 -1.6533
 5063TIP3    H236681   5.328   4.187   0.064  0.0262  0.2193 -1.3689
 5064TIP3   OH236682   1.032   6.475   3.657 -0.0170 -0.0825  0.0869
 5064TIP3    H136683   1.022   6.449   3.566 -0.0740 -0.7372  0.2752
 5064TIP3    H236684   1.044   6.393   3.704  1.4316  0.3169  0.4903
 5065TIP3   OH236685   0.677   5.597   5.264 -0.0165 -0.1283 -0.4296
 5065TIP3    H136686   0.703   5.677   5.217 -2.0231  0.8765  0.0853
 5065TIP3    H236687   0.760   5.561   5.296  1.2847  0.0817 -3.1775
 5066TIP3   OH236688   4.856   1.708  12.199  0.3066  0.2896 -0.3953
 5066TIP3    H136689   4.798   1.768  12.151  0.8296  0.4027 -0.8952
 5066TIP3    H236690   4.874   1.754  12.281 -1.8889 -0.6035  0.6591
 5067TIP3   OH236691   2.894   5.002   0.718 -0.1198  0.3851  0.2057
 5067TIP3    H136692   2.822   5.061   0.693  0.5853  0.5387 -1.6225
 5067TIP3    H236693   2.861   4.915   0.698 -0.8483  0.1593  2.1343
 5068TIP3   OH236694   4.075   1.102  12.246 -0.1560 -0.1299 -0.7930
 5068TIP3    H136695   4.054   1.130  12.335  0.6891 -0.4587 -0.4757
 5068TIP3    H236696   4.148   1.041  12.257  1.2895  1.3337 -1.8625
 5069TIP3   OH236697   0.535   6.133   1.564 -0.2282 -0.0837  0.7872
 5069TIP3    H136698   0.528   6.049   1.518 -0.7642  1.4300 -2.1620
 5069TIP3    H236699   0.457   6.137   1.619 -0.6036 -1.1774  0.3681
 5070TIP3   OH236700   2.108   6.701   0.771  0.7564  0.2545  0.5482
 5070TIP3    H136701   2.139   6.791   0.780  1.3207  0.1817 -0.4711
 5070TIP3    H236702   2.109   6.684   0.676 -4.0438  0.7816  0.1434
 5071TIP3   OH236703   6.598   3.085  13.328  0.0827 -0.4306 -1.0135
 5071TIP3    H136704   6.591   3.066  13.422  0.1889  1.6331 -0.5399
 5071TIP3    H236705   6.516   3.055  13.291 -1.3855  1.6607  0.3429
 5072TIP3   OH236706   3.464   6.685  10.958  0.3368 -0.5155 -0.5155
 5072TIP3    H136707   3.386   6.653  10.913 -0.3135 -0.1903  0.3522
 5072TIP3    H236708   3.501   6.608  11.000  0.3612 -0.6297 -0.7443
 5073TIP3   OH236709   5.747   1.022   3.671 -0.1878 -0.4969 -0.4490
 5073TIP3    H136710   5.825   1.071   3.646  0.7501 -1.3239  0.7613
 5073TIP3    H236711   5.733   0.961   3.598  0.7183 -0.8045 -0.3796
 5074TIP3   OH236712   1.222   0.549   4.638 -0.8008 -0.2984  0.0266
 5074TIP3    H136713   1.202   0.594   4.555 -0.6421 -1.6637 -0.7785
 5074TIP3    H236714   1.257   0.464   4.611  2.7464  0.5419  1.3794
 5075TIP3   OH236715   2.269   3.044  10.953  0.4703 -0.4381 -0.0384
 5075TIP3    H136716   2.340   3.091  10.908  0.5310 -1.0096 -0.5574
 5075TIP3    H236717   2.313   2.994  11.022  0.4558 -0.0717  0.2402
 5076TIP3   OH236718   2.066   2.673   2.526  0.1515  0.2157  0.5888
 5076TIP3    H136719   2.054   2.674   2.431  1.4302 -0.7906  0.3976
 5076TIP3    H236720   2.021   2.595   2.555 -0.2004  0.5001  0.8099
 5077TIP3   OH236721   2.753   5.010  16.895  0.2688 -0.0447  0.4200
 5077TIP3    H136722   2.724   5.040  16.808  2.4462  1.4754  0.1574
 5077TIP3    H236723   2.690   4.941  16.918  0.0400 -1.0469 -2.6928
 5078TIP3   OH236724   4.031   6.364  13.706  0.2417 -0.3812 -0.3092
 5078TIP3    H136725   3.957   6.315  13.670  1.7618 -1.7954 -1.6699
 5078TIP3    H236726   4.043   6.328  13.793  0.2326 -1.1950 -0.6329
 5079TIP3   OH236727   3.356   5.500  15.032 -0.5976  0.0394  0.3092
 5079TIP3    H136728   3.378   5.593  15.029  0.6110 -0.2291  0.2937
 5079TIP3    H236729   3.437   5.457  15.058 -0.8735 -1.1017 -0.5996
 5080TIP3   OH236730   5.698   6.444   4.221 -0.0454  0.2576 -0.1007
 5080TIP3    H136731   5.762   6.373   4.219 -0.3078  0.0263 -1.1009
 5080TIP3    H236732   5.637   6.419   4.290  1.0812  0.6261  1.0614
 5081TIP3   OH236733   6.075   5.054  12.355  1.0721  0.6198  0.1398
 5081TIP3    H136734   6.101   5.144  12.339  0.2674  0.6904 -0.8451
 5081TIP3    H236735   6.158   5.007  12.367  1.4772  1.5754  1.2680
 5082TIP3   OH236736   1.741   1.994   0.090  0.0608  0.3444 -0.3907
 5082TIP3    H136737   1.712   1.910   0.053 -0.0698 -0.1370  0.7798
 5082TIP3    H236738   1.746   1.979   0.184 -1.3238  2.0631  0.0037
 5083TIP3   OH236739   3.384   2.563   6.626 -0.6870  0.0906 -0.4065
 5083TIP3    H136740   3.345   2.590   6.709  0.7923 -1.6117  0.9296
 5083TIP3    H236741   3.479   2.571   6.640 -0.3195 -2.1868 -1.1392
 5084TIP3   OH236742   1.750   5.210   0.984 -0.3250 -0.2649  0.3306
 5084TIP3    H136743   1.835   5.212   0.940 -0.0490  0.0716  0.8726
 5084TIP3    H236744   1.698   5.276   0.939 -0.5164 -0.9179 -0.4254
 5085TIP3   OH236745   5.070   5.769  14.615 -0.7163 -0.3678  0.3447
 5085TIP3    H136746   5.064   5.865  14.612 -0.2976 -0.3475 -0.0592
 5085TIP3    H236747   4.983   5.739  14.589 -1.1090 -0.1032  1.3022
 5086TIP3   OH236748   1.136   6.002   1.004  0.5691  0.6294  0.4592
 5086TIP3    H136749   1.055   5.957   0.979  1.1681 -0.6341  0.7473
 5086TIP3    H236750   1.137   5.999   1.099 -0.0479  2.4896  0.5721
 5087TIP3   OH236751   3.614   0.223  14.417  0.1061  0.3979 -0.1645
 5087TIP3    H136752   3.563   0.162  14.363 -0.4942  1.5481 -0.9434
 5087TIP3    H236753   3.578   0.309  14.396  0.8659  1.0202  0.9908
 5088TIP3   OH236754   6.252   5.355   5.935 -0.3064 -0.2878  0.2852
 5088TIP3    H136755   6.227   5.418   6.002  0.0238  1.6421 -1.2966
 5088TIP3    H236756   6.329   5.394   5.893 -1.6103 -0.3943 -2.4452
 5089TIP3   OH236757   5.648   1.096   5.112  0.0248 -0.2184 -0.5780
 5089TIP3    H136758   5.714   1.034   5.143  0.1227  0.6842  1.1030
 5089TIP3    H236759   5.677   1.118   5.023  0.6689 -1.5932 -0.7487
 5090TIP3   OH236760   1.370   3.892   0.734 -0.3889  0.1118 -0.0328
 5090TIP3    H136761   1.425   3.815   0.748  0.9253  1.1264  0.7414
 5090TIP3    H236762   1.308   3.892   0.806  0.3088  0.3243  0.5824
 5091TIP3   OH236763   0.387   2.019   2.741 -0.6203  0.4378 -0.2881
 5091TIP3    H136764   0.312   1.972   2.706  0.1204  0.6317 -2.2624
 5091TIP3    H236765   0.386   2.103   2.695  0.4599  0.6925  0.1165
 5092TIP3   OH236766   4.790   4.702   3.428 -0.3968 -0.0321 -0.1085
 5092TIP3    H136767   4.813   4.791   3.400 -2.3268  0.7885  0.6918
 5092TIP3    H236768   4.750   4.663   3.350 -0.1054  0.0250 -0.2882
 5093TIP3   OH236769   2.425   6.514  14.658 -0.6699  0.5267  0.1923
 5093TIP3    H136770   2.387   6.599  14.634 -0.4677  0.6614  0.3423
 5093TIP3    H236771   2.518   6.532  14.669 -0.5143  0.1431 -0.4457
 5094TIP3   OH236772   4.573   6.248   0.540  0.1801 -0.5278 -0.2813
 5094TIP3    H136773   4.580   6.265   0.446  3.1991 -1.7112 -0.3719
 5094TIP3    H236774   4.568   6.334   0.580 -0.5059  0.0140 -1.4627
 5095TIP3   OH236775   3.997   3.581  15.001  0.4022  0.0357 -0.6464
 5095TIP3    H136776   4.059   3.518  15.037  1.5698  1.0353 -0.8491
 5095TIP3    H236777   4.027   3.596  14.912 -0.7889 -0.2736 -1.1182
 5096TIP3   OH236778   3.028   6.337  11.459  0.5243 -0.3237 -0.9328
 5096TIP3    H136779   2.933   6.338  11.464  0.5100  0.5576 -1.3166
 5096TIP3    H236780   3.056   6.296  11.541 -0.1619  0.0130 -0.5257
 5097TIP3   OH236781   1.810   2.323   6.294 -0.2256 -0.2671  0.3709
 5097TIP3    H136782   1.898   2.331   6.330 -0.2115 -0.5064  0.3970
 5097TIP3    H236783   1.804   2.231   6.268  0.1791  0.1628 -1.3213
 5098TIP3   OH236784   4.868   1.824  14.325 -0.5217 -0.7182  0.1418
 5098TIP3    H136785   4.860   1.737  14.363 -0.1553 -0.3943  0.9946
 5098TIP3    H236786   4.947   1.861  14.366  0.2702 -0.6052 -1.4452
 5099TIP3   OH236787   2.223   0.675   1.641  0.0759  0.0782  0.3230
 5099TIP3    H136788   2.204   0.658   1.734  2.4494 -1.7177  0.6011
 5099TIP3    H236789   2.278   0.753   1.642 -1.5523  1.2757  0.1683
 5100TIP3   OH236790   5.560   4.896   5.174  0.2427  0.1604 -0.1262
 5100TIP3    H136791   5.470   4.926   5.188  0.6266  0.8535  1.0072
 5100TIP3    H236792   5.589   4.943   5.096 -0.8110 -1.1297 -1.3472
 5101TIP3   OH236793   4.385   1.583   4.373  0.0814 -0.2805 -0.2292
 5101TIP3    H136794   4.457   1.629   4.416 -0.6180  0.3445  0.3117
 5101TIP3    H236795   4.306   1.628   4.404 -0.4766 -0.0316 -1.9021
 5102TIP3   OH236796   3.272   3.704  11.269 -0.7190 -0.0510 -0.0949
 5102TIP3    H136797   3.361   3.724  11.240 -1.0202  0.8473 -0.4506
 5102TIP3    H236798   3.218   3.772  11.228 -1.4738 -0.1853  0.6539
 5103TIP3   OH236799   5.065   5.085   1.967 -0.5339 -0.2098 -0.3707
 5103TIP3    H136800   5.054   5.161   2.025 -1.1663 -0.4916 -0.1133
 5103TIP3    H236801   5.111   5.021   2.020 -1.6117 -0.6794  0.0226
 5104TIP3   OH236802   6.195   3.229   3.262  0.0718 -0.0578 -0.1751
 5104TIP3    H136803   6.211   3.198   3.173  1.1571  2.2062 -0.8523
 5104TIP3    H236804   6.138   3.305   3.251 -1.7951 -1.1601  1.3158
 5105TIP3   OH236805   3.134   0.163   0.491  0.0766  0.3751 -0.0842
 5105TIP3    H136806   3.215   0.198   0.455  0.6095  0.1704  0.9045
 5105TIP3    H236807   3.152   0.150   0.584 -0.8738 -0.3081  0.0167
 5106TIP3   OH236808   0.222   3.697   1.474  0.3044  0.1826 -0.0956
 5106TIP3    H136809   0.171   3.768   1.512 -0.5983 -0.9286  0.8226
 5106TIP3    H236810   0.158   3.632   1.446  1.1340 -0.7965  0.1710
 5107TIP3   OH236811   2.578   1.261   1.002 -0.2323  0.1178  0.4249
 5107TIP3    H136812   2.601   1.246   1.094  2.4735 -1.7910 -0.4459
 5107TIP3    H236813   2.521   1.187   0.980  1.6876 -1.2837 -0.1588
 5108TIP3   OH236814   6.101   3.910   0.818  0.2634 -0.2825 -0.8277
 5108TIP3    H136815   6.063   3.988   0.777  2.7592  0.5646 -1.7426
 5108TIP3    H236816   6.074   3.916   0.909  0.0191  1.4386 -0.9672
 5109TIP3   OH236817   6.246   3.717   5.336  0.5148 -0.0873 -0.1610
 5109TIP3    H136818   6.220   3.628   5.313 -0.1739  0.0189  0.1834
 5109TIP3    H236819   6.191   3.740   5.411  0.5147  0.7105 -0.3919
 5110TIP3   OH236820   5.894   0.163  14.093  0.0711 -0.5977  0.0799
 5110TIP3    H136821   5.854   0.133  14.012  0.4651  3.0619 -1.6257
 5110TIP3    H236822   5.820   0.176  14.153 -0.4390 -1.2339 -0.3931
 5111TIP3   OH236823   6.059   1.433  12.532  0.1184  0.4277  0.3540
 5111TIP3    H136824   6.080   1.526  12.528  2.1373 -0.0425 -0.8500
 5111TIP3    H236825   6.136   1.388  12.498  0.0266 -1.8245  2.7533
 5112TIP3   OH236826   3.932   3.332  15.799 -0.0704  0.1677 -0.0590
 5112TIP3    H136827   3.913   3.278  15.876  1.4479 -0.9540 -0.4264
 5112TIP3    H236828   3.923   3.422  15.831  0.4658 -0.2652  1.4290
 5113TIP3   OH236829   4.013   4.104   4.947 -0.1150 -0.9033 -0.3925
 5113TIP3    H136830   4.089   4.111   5.005  0.0545  2.0373 -0.7986
 5113TIP3    H236831   4.041   4.043   4.878  0.8003 -2.0459  0.9390
 5114TIP3   OH236832   2.384   3.568  11.422  0.2030 -0.1045  0.2439
 5114TIP3    H136833   2.314   3.621  11.461 -0.2366 -1.5378  1.5154
 5114TIP3    H236834   2.420   3.623  11.353 -2.4836  0.5482 -0.7799
 5115TIP3   OH236835   4.376   0.464   3.175  0.4835  0.3992 -0.4534
 5115TIP3    H136836   4.421   0.460   3.259  2.3304  0.4386 -1.3666
 5115TIP3    H236837   4.342   0.376   3.161  0.0617  0.4238  0.3682
 5116TIP3   OH236838   5.737   0.670  14.633  0.0660 -0.1358 -0.2743
 5116TIP3    H136839   5.813   0.687  14.689 -0.0735 -0.8653  0.1477
 5116TIP3    H236840   5.704   0.757  14.610 -0.4635  0.1935  1.5934
 5117TIP3   OH236841   6.475   3.217  14.988  0.1719 -0.0726  0.2677
 5117TIP3    H136842   6.561   3.184  15.013 -0.6954 -2.8786 -0.0342
 5117TIP3    H236843   6.467   3.301  15.033  3.1479  0.4304  0.0403
 5118TIP3   OH236844   2.010   0.241   0.635  0.2046 -0.1331 -0.3053
 5118TIP3    H136845   2.065   0.239   0.556  1.7700  0.9454  0.7247
 5118TIP3    H236846   2.071   0.234   0.708 -1.0607  0.7111  0.8827
 5119TIP3   OH236847   0.043   3.153  10.643  0.0575  0.1939 -0.5678
 5119TIP3    H136848   0.039   3.128  10.735 -2.1233 -0.2506 -0.7083
 5119TIP3    H236849   0.035   3.070  10.595  3.3236  0.1633 -1.2666
 5120TIP3   OH236850   0.107   5.897  16.672 -0.5744 -0.1865  0.4339
 5120TIP3    H136851   0.179   5.955  16.647 -0.0550 -0.8297  0.4151
 5120TIP3    H236852   0.114   5.822  16.613 -0.5578 -0.7885  1.1792
 5121TIP3   OH236853   4.570   1.328   4.025 -0.5272  0.3075 -0.2099
 5121TIP3    H136854   4.524   1.250   4.055  0.2464 -0.0765  0.0039
 5121TIP3    H236855   4.502   1.383   3.987 -1.2285 -0.0478  0.5048
 5122TIP3   OH236856   1.419   0.462  11.734 -0.3097 -0.1064  1.0075
 5122TIP3    H136857   1.346   0.486  11.792  0.5400 -0.8159  2.4168
 5122TIP3    H236858   1.376   0.437  11.652 -1.5115  1.5117  1.0786
 5123TIP3   OH236859   4.135   6.127   1.821 -0.3024 -0.3459  0.6017
 5123TIP3    H136860   4.216   6.087   1.788 -0.0462 -0.9965  1.9533
 5123TIP3    H236861   4.165   6.198   1.877 -0.7252  0.6318 -0.3925
 5124TIP3   OH236862   6.131   0.599   3.592 -0.6746 -0.3597  0.3229
 5124TIP3    H136863   6.096   0.516   3.560 -1.6702 -0.3211  1.2540
 5124TIP3    H236864   6.220   0.577   3.621 -0.7620 -0.9980  0.1297
 5125TIP3   OH236865   0.331   0.749   4.392  0.3301  0.0826 -0.0333
 5125TIP3    H136866   0.382   0.719   4.467  0.5473 -1.4202 -0.7391
 5125TIP3    H236867   0.264   0.683   4.379  1.8082 -1.0795 -2.6204
 5126TIP3   OH236868   4.476   3.703  16.077  0.5468  0.1099  0.6803
 5126TIP3    H136869   4.442   3.724  15.990 -0.3193  0.8526  1.1705
 5126TIP3    H236870   4.497   3.789  16.116  1.2042 -0.2298  1.0929
 5127TIP3   OH236871   1.897   5.052   4.915 -0.1656  1.1305  0.1784
 5127TIP3    H136872   1.923   5.140   4.942 -2.3338  1.5955  0.9510
 5127TIP3    H236873   1.898   5.001   4.996  0.0088  0.7312 -0.0738
 5128TIP3   OH236874   3.470   4.618   5.648 -0.2211  0.2860  0.1965
 5128TIP3    H136875   3.436   4.606   5.560 -0.9446  1.1898  0.3276
 5128TIP3    H236876   3.538   4.685   5.639 -0.0594  0.1319  0.2723
 5129TIP3   OH236877   1.241   4.021  12.984 -0.0927  0.3098 -0.6232
 5129TIP3    H136878   1.238   3.960  13.057  0.5959 -0.3364 -1.1325
 5129TIP3    H236879   1.312   3.990  12.928  0.7774  2.0061 -0.5106
 5130TIP3   OH236880   1.649   3.075  12.514 -0.5967 -0.3768 -0.5201
 5130TIP3    H136881   1.681   3.135  12.582 -2.2150 -0.7087  0.6027
 5130TIP3    H236882   1.691   2.992  12.534 -1.4904 -0.6136  0.4539
 5131TIP3   OH236883   2.543   3.007  15.494  0.6029 -0.2898  0.4695
 5131TIP3    H136884   2.510   3.095  15.482 -1.0242 -0.8726  0.5141
 5131TIP3    H236885   2.567   2.978  15.406  0.8261  0.0620  0.4117
 5132TIP3   OH236886   6.775   4.595  12.298  0.0545 -0.4257  0.0454
 5132TIP3    H136887   6.787   4.600  12.393 -0.0210  1.1878  0.0029
 5132TIP3    H236888   6.810   4.678  12.265 -1.0990 -0.4022 -1.2077
 5133TIP3   OH236889   3.918   3.020   5.821  0.1032  0.1321 -0.0017
 5133TIP3    H136890   3.859   3.008   5.895  0.1554  2.5796  0.5462
 5133TIP3    H236891   4.006   3.010   5.859  0.1084 -1.5897 -0.4083
 5134TIP3   OH236892   2.331   3.393   5.729 -0.3084 -0.0443  0.2294
 5134TIP3    H136893   2.287   3.377   5.812  0.7451  2.5502  1.4086
 5134TIP3    H236894   2.383   3.472   5.744  0.1026  0.4096 -2.8456
 5135TIP3   OH236895   6.194   3.171   4.913  0.6837 -0.1818  0.3793
 5135TIP3    H136896   6.212   3.265   4.918  0.4650 -0.0518 -0.8753
 5135TIP3    H236897   6.131   3.155   4.983  0.6214  0.6323  0.5187
 5136TIP3   OH236898   3.801   0.673   3.357  0.1899 -0.0067  0.1653
 5136TIP3    H136899   3.749   0.731   3.301  1.0029  0.1778 -0.4118
 5136TIP3    H236900   3.870   0.728   3.392  0.0511 -0.2711  0.8739
 5137TIP3   OH236901   1.206   1.177   4.629 -0.3174 -0.0007 -0.1802
 5137TIP3    H136902   1.216   1.268   4.602 -1.0540  1.1616  3.0303
 5137TIP3    H236903   1.157   1.136   4.558  0.3722  1.9697 -1.8909
 5138TIP3   OH236904   4.232   4.840   1.593  0.1714 -0.0507  0.5583
 5138TIP3    H136905   4.279   4.772   1.642 -0.6585 -0.5464  0.6845
 5138TIP3    H236906   4.141   4.829   1.619 -0.1516  0.2856 -0.3992
 5139TIP3   OH236907   5.837   5.252   5.612  0.0396  0.1470  0.3411
 5139TIP3    H136908   5.801   5.189   5.549 -1.2069 -1.4068  2.4923
 5139TIP3    H236909   5.813   5.217   5.698 -0.2998  3.3210  1.6769
 5140TIP3   OH236910   5.272   0.419  14.274 -0.1576 -0.2174 -0.1786
 5140TIP3    H136911   5.316   0.483  14.219 -0.3134  1.0221  1.0812
 5140TIP3    H236912   5.210   0.375  14.216  1.6099 -0.9173 -1.6170
 5141TIP3   OH236913   4.576   4.801   1.715 -0.1037  0.0261  0.6192
 5141TIP3    H136914   4.517   4.726   1.718  0.8601 -0.7655  0.2530
 5141TIP3    H236915   4.608   4.810   1.805  1.6272 -1.5330  0.1951
 5142TIP3   OH236916   3.752   2.835  17.107  0.1402 -0.7024  0.5040
 5142TIP3    H136917   3.843   2.820  17.129  0.6596  0.9690 -0.3180
 5142TIP3    H236918   3.714   2.875  17.185  0.2078 -1.0687  0.7218
 5143TIP3   OH236919   2.163   0.692   3.311  0.3081  0.1742  0.0077
 5143TIP3    H136920   2.111   0.755   3.361  0.3701 -1.0151  1.6622
 5143TIP3    H236921   2.115   0.609   3.318  0.4122 -0.0918 -1.8121
 5144TIP3   OH236922   5.455   0.651  12.639 -0.4415  0.1405 -0.3026
 5144TIP3    H136923   5.475   0.697  12.557  1.0654  1.5102  0.7612
 5144TIP3    H236924   5.501   0.702  12.706  0.5749 -2.4317  1.0783
 5145TIP3   OH236925   3.676   4.823   5.868 -0.4725 -0.0623 -0.0032
 5145TIP3    H136926   3.731   4.836   5.790 -0.5788 -0.9336 -0.2378
 5145TIP3    H236927   3.623   4.903   5.873  0.3172  0.4909 -0.1702
 5146TIP3   OH236928   0.273   3.054  14.694  0.3572  0.2459  0.1762
 5146TIP3    H136929   0.288   3.118  14.625  0.4252  2.1622  1.8845
 5146TIP3    H236930   0.181   3.030  14.685 -0.6523  3.1737  1.4911
 5147TIP3   OH236931   5.847   4.847   2.469  0.0016 -0.0088  0.1318
 5147TIP3    H136932   5.795   4.924   2.443 -0.6615 -0.8279 -1.0638
 5147TIP3    H236933   5.938   4.873   2.452 -0.2790  0.1887 -1.1830
 5148TIP3   OH236934   5.140   4.395  11.672  0.0844  0.6361 -0.1148
 5148TIP3    H136935   5.151   4.436  11.758  2.0701  1.5676 -0.7597
 5148TIP3    H236936   5.047   4.371  11.669  0.1642 -0.4602  2.7184
 5149TIP3   OH236937   5.986   3.323   2.128 -0.2347 -0.3388  0.3716
 5149TIP3    H136938   6.061   3.297   2.182 -2.5758 -3.9110  2.2663
 5149TIP3    H236939   5.956   3.405   2.167  0.7100 -0.6238  1.7790
 5150TIP3   OH236940   1.688   1.388  15.657  0.1505 -0.6719 -0.0136
 5150TIP3    H136941   1.740   1.436  15.722  2.3538 -0.4407 -1.8290
 5150TIP3    H236942   1.642   1.456  15.608  1.4427 -0.5217 -1.0716
 5151TIP3   OH236943   6.800   0.405   3.306 -0.0005  0.0502  0.1426
 5151TIP3    H136944   6.777   0.330   3.252  1.0116 -1.0616  1.2149
 5151TIP3    H236945   6.878   0.378   3.355 -0.8741  0.9723  2.1993
 5152TIP3   OH236946   5.991   5.866  12.545  0.0915 -0.3542  0.2003
 5152TIP3    H136947   6.041   5.786  12.558  0.2508 -0.3912 -0.5705
 5152TIP3    H236948   6.056   5.932  12.521 -0.0670 -0.0566  0.5819
 5153TIP3   OH236949   3.787   0.742   4.682  0.0566  0.3867  0.2348
 5153TIP3    H136950   3.756   0.707   4.599  0.3802  0.8053 -0.0683
 5153TIP3    H236951   3.879   0.763   4.666  1.1284 -2.6065  1.6338
 5154TIP3   OH236952   0.902   0.681  10.759 -0.0998 -0.2784 -0.3912
 5154TIP3    H136953   0.962   0.608  10.772  0.9096  0.2355 -1.9092
 5154TIP3    H236954   0.941   0.733  10.688 -1.8395  0.6071 -0.7773
 5155TIP3   OH236955   0.327   1.191  15.507  0.0360 -0.1792  0.2412
 5155TIP3    H136956   0.292   1.215  15.592  0.1628  0.4942  0.1095
 5155TIP3    H236957   0.324   1.096  15.506  0.3938 -0.2107  1.1563
 5156TIP3   OH236958   0.909   0.064   0.276 -0.1683  0.1798  0.4357
 5156TIP3    H136959   0.888  -0.010   0.220  0.3574  0.0823  0.3654
 5156TIP3    H236960   0.898   0.030   0.365  0.5845 -0.1429  0.4136
 5157TIP3   OH236961   3.535   2.686   3.129  0.1747  0.5074  0.0085
 5157TIP3    H136962   3.453   2.711   3.171  0.3014  0.1075  0.5153
 5157TIP3    H236963   3.581   2.769   3.115  0.8847  0.5799  2.2851
 5158TIP3   OH236964   2.826   0.169  17.039 -0.2994  0.0292  0.2839
 5158TIP3    H136965   2.892   0.203  16.979 -0.9865 -0.6986 -0.9296
 5158TIP3    H236966   2.862   0.085  17.069  0.0197  0.3679  0.8829
 5159TIP3   OH236967   4.104   5.139  15.328  1.2975  0.0132  0.3459
 5159TIP3    H136968   4.130   5.138  15.236  1.7228 -0.5123  0.4684
 5159TIP3    H236969   4.010   5.158  15.326  0.7037 -2.6247 -0.3617
 5160TIP3   OH236970   2.771   0.760   5.227 -0.6536 -0.2280 -0.2785
 5160TIP3    H136971   2.745   0.732   5.315  0.6187 -0.6074 -0.0153
 5160TIP3    H236972   2.812   0.683   5.188  0.6280  0.5171 -0.4539
 5161TIP3   OH236973   4.832   5.167   4.294 -0.1004 -0.3130 -0.0567
 5161TIP3    H136974   4.848   5.106   4.222 -1.4225 -0.0394 -0.6277
 5161TIP3    H236975   4.877   5.248   4.268 -0.0704 -0.4068 -0.3001
 5162TIP3   OH236976   5.477   3.310  12.288 -0.9437 -0.2038  0.2772
 5162TIP3    H136977   5.449   3.374  12.354 -2.4044 -1.6713  1.1397
 5162TIP3    H236978   5.503   3.364  12.214 -0.8831  1.4478  1.4212
 5163TIP3   OH236979   4.142   3.738  12.614  0.1054  0.2543 -0.5176
 5163TIP3    H136980   4.153   3.670  12.548  1.0957  0.4588 -0.5732
 5163TIP3    H236981   4.222   3.791  12.608  0.0854  0.4433  0.6495
 5164TIP3   OH236982   2.510   4.319  16.774 -0.4835 -0.2793 -0.3488
 5164TIP3    H136983   2.598   4.289  16.753 -0.7319 -1.0921 -0.2615
 5164TIP3    H236984   2.511   4.336  16.868  0.0627  1.4146 -0.6313
 5165TIP3   OH236985   4.906   2.034   3.797 -0.1668 -0.1574 -0.0320
 5165TIP3    H136986   4.844   1.971   3.834  2.3640 -2.1836  1.0844
 5165TIP3    H236987   4.926   2.094   3.869  0.5313 -0.6739  0.2229
 5166TIP3   OH236988   6.686   5.569  12.160  0.7033  0.6178  0.3952
 5166TIP3    H136989   6.613   5.630  12.172 -0.4346 -0.4209 -0.9999
 5166TIP3    H236990   6.647   5.482  12.168  1.6844  0.0389 -0.7582
 5167TIP3   OH236991   5.883   2.607   0.113  0.4760  0.2979 -0.2949
 5167TIP3    H136992   5.788   2.614   0.127  0.4998  2.7965 -0.8293
 5167TIP3    H236993   5.921   2.630   0.198  0.5825  0.8847 -0.4949
 5168TIP3   OH236994   1.262   5.448   3.135  0.1647  0.1975  0.2489
 5168TIP3    H136995   1.326   5.517   3.151  0.7101  0.0556 -1.2160
 5168TIP3    H236996   1.192   5.466   3.197  0.7829  1.4348  0.6217
 5169TIP3   OH236997   5.322   1.369  16.573 -0.1053  0.1274  0.4965
 5169TIP3    H136998   5.340   1.345  16.664  0.6131 -0.3135  0.2535
 5169TIP3    H236999   5.406   1.354  16.528 -0.1060  1.4782 -0.0124
 5170TIP3   OH237000   6.347   5.358  12.428  0.4810 -0.1693 -0.3726
 5170TIP3    H137001   6.371   5.445  12.459 -1.4259 -0.6550  2.9449
 5170TIP3    H237002   6.278   5.373  12.364  1.5409  0.7695 -1.3355
 5171TIP3   OH237003   6.001   6.291  11.796 -0.4943 -0.1202 -0.3306
 5171TIP3    H137004   5.983   6.239  11.718 -0.0137 -0.9015  0.0670
 5171TIP3    H237005   6.093   6.315  11.789 -0.6229  0.3760 -0.3350
 5172TIP3   OH237006   0.324   4.294   5.929  0.3422  0.0999  0.0995
 5172TIP3    H137007   0.272   4.366   5.966 -0.0728 -0.9614  1.7263
 5172TIP3    H237008   0.267   4.256   5.862  1.2097  2.2334 -1.9681
 5173TIP3   OH237009   0.647   2.095   0.149 -0.1689  0.0031  0.1729
 5173TIP3    H137010   0.725   2.145   0.124  0.4161 -1.2295 -0.5406
 5173TIP3    H237011   0.588   2.161   0.186  0.7333  1.1521 -0.3542
 5174TIP3   OH237012   2.732   1.215  15.277 -0.6609  0.0985 -0.0194
 5174TIP3    H137013   2.733   1.258  15.362 -1.4023  0.7544 -0.3248
 5174TIP3    H237014   2.652   1.163  15.277 -0.7252  0.1914 -0.3477
 5175TIP3   OH237015   2.189   3.154  11.340  0.1632  0.2043 -0.1142
 5175TIP3    H137016   2.202   3.236  11.293 -1.2676  1.5895  1.7662
 5175TIP3    H237017   2.094   3.147  11.350  0.1426 -2.3932 -1.3416
 5176TIP3   OH237018   1.299   3.043   3.814  0.4650 -0.0207  0.4268
 5176TIP3    H137019   1.206   3.034   3.797  0.9242 -0.3845 -2.4266
 5176TIP3    H237020   1.318   2.978   3.881 -0.7343 -2.8969 -1.8077
 5177TIP3   OH237021   4.565   5.884   1.000  0.4447 -0.2928 -0.7998
 5177TIP3    H137022   4.609   5.968   1.008 -2.6819  1.4077  0.3243
 5177TIP3    H237023   4.525   5.870   1.086 -1.7987 -1.2666 -1.9171
 5178TIP3   OH237024   5.763   1.093   0.891  0.6211 -0.0002  0.0350
 5178TIP3    H137025   5.749   1.121   0.982 -1.1482  2.5736 -0.9163
 5178TIP3    H237026   5.677   1.095   0.851  1.4414 -0.5360 -1.8743
 5179TIP3   OH237027   0.194   0.297  14.270 -0.0141  0.6392 -0.1656
 5179TIP3    H137028   0.212   0.333  14.357  2.3289 -0.2230 -0.2233
 5179TIP3    H237029   0.279   0.265  14.239 -1.0378 -0.2717 -2.2374
 5180TIP3   OH237030   2.659   6.454  15.292  0.5004  0.1578 -0.2092
 5180TIP3    H137031   2.606   6.451  15.212  1.6974  1.2400 -1.0907
 5180TIP3    H237032   2.623   6.527  15.343 -0.0597 -0.3283  0.0968
 5181TIP3   OH237033   3.716   2.404   1.047  0.0630  0.4988  0.1544
 5181TIP3    H137034   3.785   2.461   1.012 -1.0643  1.1983 -1.0359
 5181TIP3    H237035   3.634   2.448   1.023 -0.8371 -1.2165 -0.0977
 5182TIP3   OH237036   2.117   5.330  17.232  0.8006 -0.3415  0.0135
 5182TIP3    H137037   2.142   5.383  17.307  2.0267  0.8763 -1.2017
 5182TIP3    H237038   2.196   5.279  17.211  1.0601  0.6272 -1.4861
 5183TIP3   OH237039   1.672   5.748  14.189  0.2000  0.2224 -0.2877
 5183TIP3    H137040   1.626   5.696  14.123 -0.6878 -1.1215  1.2923
 5183TIP3    H237041   1.756   5.770  14.149 -0.2509 -0.6652 -1.7968
 5184TIP3   OH237042   4.271   1.248   5.993  0.2967 -0.5092 -0.4109
 5184TIP3    H137043   4.251   1.325   5.940  1.4309 -0.0149 -0.1484
 5184TIP3    H237044   4.258   1.277   6.083  1.9699 -0.2045 -0.2364
 5185TIP3   OH237045   2.790   1.195  14.727 -0.3209  0.4896 -0.1109
 5185TIP3    H137046   2.885   1.182  14.718  0.0614  2.7882 -0.0257
 5185TIP3    H237047   2.754   1.164  14.643  0.3839 -1.0897  0.1352
 5186TIP3   OH237048   5.523   3.675  13.595  0.0538  0.2996  0.7927
 5186TIP3    H137049   5.501   3.611  13.663 -1.0652 -0.8660 -0.5978
 5186TIP3    H237050   5.440   3.715  13.571  0.4018  0.5485 -0.0344
 5187TIP3   OH237051   5.708   3.901  14.295  0.6295  0.4146  0.2271
 5187TIP3    H137052   5.657   3.893  14.215  3.5387 -0.0703 -1.7423
 5187TIP3    H237053   5.689   3.988  14.328 -0.9102  0.4835 -0.7762
 5188TIP3   OH237054   1.053   4.390  14.575  0.3604  0.6322  0.1850
 5188TIP3    H137055   1.012   4.367  14.659 -0.1682 -2.7205 -0.8208
 5188TIP3    H237056   1.137   4.343  14.577  0.5871  0.9705 -0.9517
 5189TIP3   OH237057   3.112   4.548  13.192  0.7848 -0.4010 -0.2626
 5189TIP3    H137058   3.035   4.599  13.218 -0.7925 -1.8319 -1.8712
 5189TIP3    H237059   3.186   4.607  13.207 -0.6330  1.1514  1.0223
 5190TIP3   OH237060   4.856   2.563  13.651  0.3711 -0.0419  0.0365
 5190TIP3    H137061   4.800   2.492  13.680 -1.1963  1.0024 -0.3115
 5190TIP3    H237062   4.819   2.642  13.692  0.9004  0.8258 -1.0920
 5191TIP3   OH237063   5.190   0.666   2.638  0.2079  0.7255  0.1590
 5191TIP3    H137064   5.174   0.750   2.681 -1.8938  0.0491  0.8184
 5191TIP3    H237065   5.137   0.604   2.687  1.1796 -0.8825 -0.7542
 5192TIP3   OH237066   1.375   5.899   0.312  0.0408  0.1090 -0.3911
 5192TIP3    H137067   1.451   5.890   0.255  0.3349  0.3459 -0.0491
 5192TIP3    H237068   1.368   5.815   0.356 -1.0533 -0.5714 -1.8060
 5193TIP3   OH237069   0.507   5.211   5.224 -0.3649 -1.0489  0.2914
 5193TIP3    H137070   0.465   5.162   5.154 -0.5440 -0.3206 -0.1131
 5193TIP3    H237071   0.539   5.291   5.183 -2.9287  0.7604  1.5372
 5194TIP3   OH237072   2.113   0.822  15.285  0.4495 -0.1292 -0.3436
 5194TIP3    H137073   2.129   0.756  15.217 -0.2800  0.5499 -1.1995
 5194TIP3    H237074   2.026   0.856  15.266  0.8813  1.2293 -0.0543
 5195TIP3   OH237075   5.739   4.540  15.250 -0.3128  0.3899 -0.4996
 5195TIP3    H137076   5.723   4.462  15.303  2.3819  0.4772  0.6408
 5195TIP3    H237077   5.653   4.565  15.217 -1.6977 -1.3638  1.4838
 5196TIP3   OH237078   6.767   0.987  17.228  0.2604 -0.6603  0.2418
 5196TIP3    H137079   6.690   1.037  17.201 -0.3328 -1.3402  0.6323
 5196TIP3    H237080   6.826   0.993  17.153  0.4036  0.9891  0.4546
 5197TIP3   OH237081   5.733   6.584  14.438  0.2714 -0.0540  0.1596
 5197TIP3    H137082   5.740   6.515  14.504 -0.1431  0.8472  1.1609
 5197TIP3    H237083   5.768   6.543  14.358 -3.3537 -2.7165 -0.3227
 5198TIP3   OH237084   2.358   0.852  15.400  0.5130  0.6895  0.2717
 5198TIP3    H137085   2.273   0.839  15.357 -0.3105  1.1529  1.7124
 5198TIP3    H237086   2.391   0.763  15.413 -0.4361  0.4270  1.0065
 5199TIP3   OH237087   2.280   3.324   3.084  0.1451 -0.7440 -0.0167
 5199TIP3    H137088   2.218   3.274   3.137 -0.4908 -1.5853 -1.4843
 5199TIP3    H237089   2.346   3.260   3.057 -0.0238 -0.5442 -0.9466
 5200TIP3   OH237090   0.357   2.792   0.770  0.1123  0.2474 -0.0840
 5200TIP3    H137091   0.328   2.825   0.685 -1.2036 -1.7058 -0.4617
 5200TIP3    H237092   0.288   2.818   0.831  0.0174 -0.1471 -0.0213
 5201TIP3   OH237093   6.542   6.113  12.820  0.5377  1.4262 -0.2375
 5201TIP3    H137094   6.575   6.036  12.866  0.5904  0.9188 -1.0972
 5201TIP3    H237095   6.606   6.129  12.751  2.2429  4.1476  1.7480
 5202TIP3   OH237096   4.501   1.516  10.843 -0.4506 -0.0552  0.3525
 5202TIP3    H137097   4.540   1.563  10.917 -1.1249 -0.5480  1.0315
 5202TIP3    H237098   4.509   1.577  10.769 -0.0321  0.5559  0.8851
 5203TIP3   OH237099   0.081   5.445  13.119 -0.8657  0.5158 -0.1116
 5203TIP3    H137100   0.131   5.367  13.096 -0.7982  0.2159  0.9581
 5203TIP3    H237101   0.038   5.472  13.038  1.3116  0.9995 -1.1539
 5204TIP3   OH237102   2.714   5.235   1.759  0.4561  0.5643 -0.5309
 5204TIP3    H137103   2.682   5.146   1.775  1.3972  0.6650  2.5282
 5204TIP3    H237104   2.634   5.288   1.751 -0.1080 -0.3566 -1.1038
 5205TIP3   OH237105   0.571   5.327   2.359 -0.0081 -0.6969 -0.7786
 5205TIP3    H137106   0.618   5.361   2.283 -1.3314  0.6282 -1.0510
 5205TIP3    H237107   0.613   5.244   2.378  0.4399 -1.0179 -2.9066
 5206TIP3   OH237108   6.440   4.110  11.676  0.1781 -0.2797  0.1658
 5206TIP3    H137109   6.389   4.029  11.665 -1.8202  1.0451 -1.0632
 5206TIP3    H237110   6.444   4.123  11.770 -3.8870  0.6888  0.4006
 5207TIP3   OH237111   0.368   2.167  13.430 -0.0571 -0.1010  0.5698
 5207TIP3    H137112   0.281   2.140  13.460 -1.0311  0.6970 -1.3583
 5207TIP3    H237113   0.360   2.262  13.416  1.2574  0.0506  0.7535
 5208TIP3   OH237114   6.495   6.359  12.397  0.4530 -0.4142 -0.2152
 5208TIP3    H137115   6.521   6.451  12.404  0.0237 -0.3914  1.4209
 5208TIP3    H237116   6.407   6.356  12.435  0.7700 -1.6270  0.4537
 5209TIP3   OH237117   4.175   1.512  13.839  0.4227 -0.2889 -0.1969
 5209TIP3    H137118   4.206   1.474  13.757 -2.9590 -0.8653 -1.3363
 5209TIP3    H237119   4.084   1.483  13.847  0.0677  1.2342  2.8634
 5210TIP3   OH237120   3.902   4.418  10.353  0.0471  0.0208  0.3217
 5210TIP3    H137121   3.935   4.454  10.435  1.0386  1.1364 -0.5303
 5210TIP3    H237122   3.950   4.465  10.285 -2.0076  0.4174 -0.9490
 5211TIP3   OH237123   6.304   4.816  14.612  0.3285 -0.1424 -0.0668
 5211TIP3    H137124   6.303   4.779  14.524  0.8329  1.6391 -0.8536
 5211TIP3    H237125   6.249   4.757  14.663  0.7432 -1.7041 -1.3486
 5212TIP3   OH237126   2.538   2.594  12.589 -0.0099  0.4022  0.6349
 5212TIP3    H137127   2.521   2.545  12.509 -0.0845  1.3990  0.0300
 5212TIP3    H237128   2.454   2.635  12.610 -0.1807 -0.4020  1.6223
 5213TIP3   OH237129   5.392   1.560  13.968 -0.1927 -0.4699  0.4240
 5213TIP3    H137130   5.370   1.524  14.054  0.0105 -1.2670  0.1544
 5213TIP3    H237131   5.486   1.546  13.959 -0.3894 -1.3809 -0.3612
 5214TIP3   OH237132   4.040   4.643   5.305 -0.2791  0.2361  0.1193
 5214TIP3    H137133   3.950   4.659   5.277 -0.0200 -0.8769 -1.4703
 5214TIP3    H237134   4.031   4.599   5.389 -1.1880  0.8762  0.3769
 5215TIP3   OH237135   5.009   6.523   6.660 -0.0285  0.3276 -0.3609
 5215TIP3    H137136   4.974   6.599   6.707 -1.1022 -0.1863 -0.2951
 5215TIP3    H237137   4.951   6.513   6.585 -0.2471 -0.7601 -0.0649
 5216TIP3   OH237138   5.916   5.646   3.966 -0.1359 -0.0626  0.0883
 5216TIP3    H137139   5.987   5.625   4.027  0.9191  0.1648 -1.0262
 5216TIP3    H237140   5.838   5.653   4.022  0.8287  0.3917  1.4391
 5217TIP3   OH237141   0.903   4.707   0.674  0.0768  0.5913 -0.3332
 5217TIP3    H137142   0.901   4.786   0.728  0.8797  0.8955 -0.7304
 5217TIP3    H237143   0.944   4.735   0.592  0.1551 -0.1839 -0.5661
 5218TIP3   OH237144   1.323   0.560   1.525  0.7218  0.6643  0.4708
 5218TIP3    H137145   1.320   0.533   1.617  0.0646  0.5988  0.4399
 5218TIP3    H237146   1.238   0.602   1.510  0.1219 -0.8036 -0.5322
 5219TIP3   OH237147   0.273   2.853   1.950 -0.1345  0.3559  0.1996
 5219TIP3    H137148   0.353   2.802   1.960 -0.3512  0.0564  0.4086
 5219TIP3    H237149   0.286   2.902   1.868  0.3889  0.5440  0.3868
 5220TIP3   OH237150   1.322   3.385   2.090  0.0591 -0.1413  0.3465
 5220TIP3    H137151   1.230   3.367   2.106 -0.2323  0.4152 -0.6078
 5220TIP3    H237152   1.339   3.467   2.137  0.4179 -0.8899  1.5779
 5221TIP3   OH237153   0.224   6.494   2.670  0.4471 -0.1569 -0.5997
 5221TIP3    H137154   0.294   6.555   2.693  0.7270  0.3476 -2.6064
 5221TIP3    H237155   0.270   6.413   2.648  0.1850 -0.6335  0.5265
 5222TIP3   OH237156   1.796   0.966  16.557  0.0278 -0.1312  0.2029
 5222TIP3    H137157   1.795   1.038  16.619  0.5529 -0.3808  0.5109
 5222TIP3    H237158   1.841   0.895  16.603  1.6857  0.1144 -0.9141
 5223TIP3   OH237159   1.384   1.542  15.632 -0.3874 -0.4360 -0.0215
 5223TIP3    H137160   1.433   1.542  15.550  0.3518 -0.6090  0.4183
 5223TIP3    H237161   1.314   1.478  15.618 -0.3751 -0.3335 -0.5742
 5224TIP3   OH237162   5.354   6.792   4.617 -0.3346 -0.4262 -0.1217
 5224TIP3    H137163   5.370   6.765   4.708 -0.5174  0.2272  0.1121
 5224TIP3    H237164   5.288   6.730   4.586  1.2292 -1.9889 -0.5144
 5225TIP3   OH237165   4.059   5.705  11.850  0.0829  0.0021 -0.6281
 5225TIP3    H137166   3.987   5.704  11.787  0.0599 -0.4975 -0.5971
 5225TIP3    H237167   4.016   5.710  11.936  0.1294  1.5952 -0.6648
 5226TIP3   OH237168   6.248   2.946  12.196  0.0145  0.0619 -0.0223
 5226TIP3    H137169   6.224   3.028  12.152  2.8749  0.9966 -0.0813
 5226TIP3    H237170   6.196   2.945  12.276 -0.5922  1.5978 -0.3687
 5227TIP3   OH237171   4.352   5.818  12.509  0.2951 -0.1261 -0.0495
 5227TIP3    H137172   4.375   5.725  12.515  1.4930  0.1462 -0.2552
 5227TIP3    H237173   4.261   5.821  12.537  1.0086 -1.0067  2.6095
 5228TIP3   OH237174   2.081   4.370  15.419  0.2404 -0.2949 -0.7430
 5228TIP3    H137175   2.157   4.354  15.475 -0.6657  0.0203  0.6164
 5228TIP3    H237176   2.083   4.298  15.356  1.4957 -0.4547 -0.5549
 5229TIP3   OH237177   0.764   0.754  15.061 -0.2174 -0.2790  0.4601
 5229TIP3    H137178   0.798   0.834  15.100  1.6329 -1.0158  0.4335
 5229TIP3    H237179   0.761   0.692  15.134  1.4524 -1.1060 -0.1300
 5230TIP3   OH237180   0.235   2.087  16.425 -0.0272  0.3703 -0.0661
 5230TIP3    H137181   0.317   2.127  16.395  0.4880  0.7439  1.7195
 5230TIP3    H237182   0.211   2.138  16.503  0.0534 -2.0676  1.6480
 5231TIP3   OH237183   4.014   3.981   5.830  0.5259 -0.3920 -0.4019
 5231TIP3    H137184   4.082   4.044   5.854 -0.0757  0.0854  0.0884
 5231TIP3    H237185   3.952   3.983   5.903  0.0530 -0.9236 -0.7744
 5232TIP3   OH237186   4.258   4.006   2.235 -0.2549  0.2662 -0.0037
 5232TIP3    H137187   4.274   4.100   2.229  1.0461  0.2093  1.7380
 5232TIP3    H237188   4.345   3.968   2.250 -0.8314 -1.1512 -0.0953
 5233TIP3   OH237189   0.777   1.361  10.363  0.4586  0.2261 -0.1507
 5233TIP3    H137190   0.797   1.449  10.398 -1.4935 -0.1323  2.1143
 5233TIP3    H237191   0.778   1.304  10.440 -1.3493 -1.1712 -1.0901
 5234TIP3   OH237192   0.493   1.385   0.658  0.2169 -0.2197  0.5104
 5234TIP3    H137193   0.573   1.427   0.689 -0.7594  1.2344  1.1824
 5234TIP3    H237194   0.426   1.410   0.723 -0.5401 -2.4026  0.6521
 5235TIP3   OH237195   4.700   4.380  12.824 -0.0322  0.2653 -0.4971
 5235TIP3    H137196   4.716   4.290  12.849  1.1019  0.5935  0.0122
 5235TIP3    H237197   4.779   4.407  12.777 -1.3722  0.2138 -2.9380
 5236TIP3   OH237198   5.492   3.862  14.124  0.1243  0.2918  0.9522
 5236TIP3    H137199   5.420   3.895  14.177 -0.8003  0.9649 -0.6351
 5236TIP3    H237200   5.459   3.780  14.087 -0.0032  0.7863 -0.0759
 5237TIP3   OH237201   2.179   3.103   4.751 -0.7135 -0.6438  0.0360
 5237TIP3    H137202   2.138   3.105   4.664 -0.9457 -3.2793 -0.0120
 5237TIP3    H237203   2.272   3.098   4.733 -0.6532  0.3242  0.0139
 5238TIP3   OH237204   6.322   0.707   1.450  0.0426  0.5317  0.1758
 5238TIP3    H137205   6.284   0.720   1.363  2.1072  0.3138 -0.8327
 5238TIP3    H237206   6.387   0.777   1.458 -0.1344  0.5586  1.5705
 5239TIP3   OH237207   4.988   2.489   6.772  0.1613 -0.1509 -0.2962
 5239TIP3    H137208   4.916   2.549   6.790 -1.1844 -1.0624 -2.2284
 5239TIP3    H237209   4.979   2.469   6.679  1.6668 -1.9074 -0.1200
 5240TIP3   OH237210   6.513   6.790  13.583  0.3707 -0.5162  0.0567
 5240TIP3    H137211   6.499   6.882  13.608  3.9145 -0.0791  1.0141
 5240TIP3    H237212   6.477   6.783  13.495  2.3802  2.6430 -1.1952
 5241TIP3   OH237213   0.670   1.805  15.764  0.2619  0.2389 -0.3089
 5241TIP3    H137214   0.761   1.801  15.793  1.4258 -0.0308 -3.5168
 5241TIP3    H237215   0.627   1.734  15.812  2.2011 -0.8031  0.0246
 5242TIP3   OH237216   4.310   6.089  15.606  0.1449 -0.2088 -0.4094
 5242TIP3    H137217   4.325   6.081  15.512 -3.1185  1.5167 -1.1950
 5242TIP3    H237218   4.249   6.018  15.627 -0.8750  0.7332 -0.1003
 5243TIP3   OH237219   2.499   6.352   5.273 -0.3966  0.1191 -0.2896
 5243TIP3    H137220   2.532   6.289   5.337  0.1535  1.1979  0.5148
 5243TIP3    H237221   2.503   6.305   5.190  0.4008 -0.7715  0.2263
 5244TIP3   OH237222   2.491   1.417   4.630  0.0956 -0.4212 -0.4349
 5244TIP3    H137223   2.481   1.348   4.696  1.1683  0.7358  0.9945
 5244TIP3    H237224   2.509   1.496   4.680 -0.2188  0.7474 -2.0843
 5245TIP3   OH237225   1.851   3.732  16.267 -0.0164 -0.2961 -0.3398
 5245TIP3    H137226   1.879   3.655  16.316 -1.8348 -1.4317 -0.9966
 5245TIP3    H237227   1.756   3.723  16.260 -0.1857  1.6301 -1.0947
 5246TIP3   OH237228   0.602   0.732  16.443  0.5670 -0.1125 -0.3824
 5246TIP3    H137229   0.606   0.649  16.489  1.9938 -0.0480 -0.3616
 5246TIP3    H237230   0.520   0.772  16.473  1.3311 -0.1492  1.9842
 5247TIP3   OH237231   4.244   5.958  16.007 -0.0961 -0.4209 -0.3481
 5247TIP3    H137232   4.295   6.024  16.052 -0.5656  0.1583 -0.6504
 5247TIP3    H237233   4.306   5.887  15.989  0.0737 -0.7239  1.3021
 5248TIP3   OH237234   2.855   5.629   3.908 -0.2443  0.5552  0.1305
 5248TIP3    H137235   2.934   5.681   3.893 -0.8051  1.3200 -0.2217
 5248TIP3    H237236   2.835   5.641   4.001  0.7824 -0.7105  0.5527
 5249TIP3   OH237237   5.117   0.741  12.830 -0.5529 -0.2413 -0.0283
 5249TIP3    H137238   5.046   0.755  12.893 -0.9750 -0.7209 -0.3983
 5249TIP3    H237239   5.127   0.825  12.786  0.0190  0.2229  0.9567
 5250TIP3   OH237240   4.179   1.068  14.261  0.3618  0.6032  0.6603
 5250TIP3    H137241   4.203   1.154  14.296  1.1183  0.5164  0.3814
 5250TIP3    H237242   4.259   1.036  14.219 -0.0897  0.0346  0.2121
 5251TIP3   OH237243   4.546   3.016  13.829  0.0809 -0.1303  0.2507
 5251TIP3    H137244   4.511   2.928  13.839  1.0363 -0.6444 -0.7724
 5251TIP3    H237245   4.490   3.071  13.884 -1.2452 -1.1847 -0.0157
 5252TIP3   OH237246   4.202   0.934   1.806  0.2977  0.0635 -0.3394
 5252TIP3    H137247   4.277   0.885   1.773 -0.5716 -1.2647 -0.4129
 5252TIP3    H237248   4.196   1.010   1.749  3.0546  1.5477  1.1475
 5253TIP3   OH237249   4.305   1.355  16.683 -1.0123  0.6993 -0.1931
 5253TIP3    H137250   4.272   1.324  16.598 -1.1091  2.0592 -0.6708
 5253TIP3    H237251   4.253   1.432  16.703 -0.1029  1.1611  0.4707
 5254TIP3   OH237252   3.471   2.841   1.429 -0.6755 -0.2021 -0.4403
 5254TIP3    H137253   3.550   2.807   1.387 -1.3402 -0.1120 -1.7916
 5254TIP3    H237254   3.439   2.909   1.371 -1.1163  0.5821  0.6748
 5255TIP3   OH237255   0.443   5.764   5.815  0.5672 -0.5719  0.6771
 5255TIP3    H137256   0.528   5.721   5.818  0.3309 -1.1251 -0.0377
 5255TIP3    H237257   0.444   5.814   5.733 -0.4078 -1.9737 -0.2501
 5256TIP3   OH237258   1.988   5.681   0.388 -0.2968 -0.1740  0.0758
 5256TIP3    H137259   2.039   5.759   0.411 -2.6474  0.7273  2.8898
 5256TIP3    H237260   2.042   5.608   0.414  0.5663  0.6406  0.6252
 5257TIP3   OH237261   0.985   3.613   1.696 -0.0252 -0.2122 -0.1208
 5257TIP3    H137262   1.057   3.569   1.742  0.0078 -1.1038 -1.0021
 5257TIP3    H237263   0.928   3.644   1.766  0.2545 -1.1589  0.5422
 5258TIP3   OH237264   1.118   6.450  10.740  0.3793 -0.6294  0.4832
 5258TIP3    H137265   1.057   6.517  10.770 -0.2920 -0.8902 -0.2593
 5258TIP3    H237266   1.177   6.436  10.814 -0.1224  0.0226  1.0184
 5259TIP3   OH237267   2.696   3.664   0.184 -0.0186  0.4048 -0.1872
 5259TIP3    H137268   2.684   3.590   0.126  0.2960 -0.0500  0.3191
 5259TIP3    H237269   2.731   3.734   0.128 -2.7584  1.0554 -1.2411
 5260TIP3   OH237270   0.237   0.007  14.819  0.2066  0.0348 -0.1436
 5260TIP3    H137271   0.185  -0.069  14.847 -1.6178  1.1970 -0.1982
 5260TIP3    H237272   0.238   0.002  14.724 -2.8353  1.7442 -0.4293
 5261TIP3   OH237273   4.428   2.191   5.423 -0.1841 -0.4201 -0.0601
 5261TIP3    H137274   4.459   2.200   5.513  0.0528 -0.8633 -0.0953
 5261TIP3    H237275   4.405   2.099   5.414 -1.2524 -0.1628 -0.1286
 5262TIP3   OH237276   4.781   6.327   4.187  0.6235  0.5241 -0.4594
 5262TIP3    H137277   4.780   6.365   4.099 -0.5627  1.8683  0.0964
 5262TIP3    H237278   4.702   6.273   4.191  0.3885  0.8858 -0.0652
 5263TIP3   OH237279   6.771   0.988  16.549  0.1900  0.0924  0.0855
 5263TIP3    H137280   6.728   0.991  16.634 -0.2851 -0.7247 -0.1202
 5263TIP3    H237281   6.822   0.907  16.550 -0.2334 -0.1930 -0.6016
 5264TIP3   OH237282   1.557   2.366  13.781 -0.0335 -0.5443  0.4106
 5264TIP3    H137283   1.563   2.295  13.845  0.9379  0.9246  2.0357
 5264TIP3    H237284   1.529   2.442  13.832  0.5715  0.6435 -0.9566
 5265TIP3   OH237285   1.853   0.668  14.959 -0.1393 -0.2090 -0.2211
 5265TIP3    H137286   1.880   0.757  14.980 -0.6817 -0.4267  1.5423
 5265TIP3    H237287   1.759   0.667  14.977 -0.1436 -1.1399 -0.2474
 5266TIP3   OH237288   5.009   2.790   5.530 -0.5775  0.4380  0.0440
 5266TIP3    H137289   4.956   2.813   5.454  0.9291  0.8194 -0.9332
 5266TIP3    H237290   4.958   2.722   5.574 -1.5666  0.3140 -1.2113
 5267TIP3   OH237291   1.227   6.289   5.819 -0.3039 -0.0234  0.3165
 5267TIP3    H137292   1.213   6.366   5.763 -1.5293 -0.9751 -0.7620
 5267TIP3    H237293   1.289   6.235   5.770 -0.2317 -0.1807  0.5815
 5268TIP3   OH237294   3.675   0.238   5.513 -0.1234  0.3797 -0.0243
 5268TIP3    H137295   3.677   0.158   5.460  0.9018  0.4462 -0.1108
 5268TIP3    H237296   3.730   0.218   5.589  0.2703  1.0440 -0.1247
 5269TIP3   OH237297   4.799   1.809  12.911 -0.0725  0.7446  0.3829
 5269TIP3    H137298   4.799   1.905  12.910 -2.6403  0.8222 -0.8337
 5269TIP3    H237299   4.749   1.787  12.990 -0.4169  0.4560  0.0889
 5270TIP3   OH237300   0.882   5.795   5.937  0.1876  0.2113 -0.3703
 5270TIP3    H137301   0.888   5.712   5.889  0.0756 -0.4317  0.6917
 5270TIP3    H237302   0.972   5.820   5.953  0.2207 -0.1075 -0.0365
 5271TIP3   OH237303   0.139   3.896  11.862 -0.2862 -0.0338  0.7037
 5271TIP3    H137304   0.164   3.876  11.772  0.3219 -0.3629  0.9393
 5271TIP3    H237305   0.220   3.885  11.913 -0.9047 -1.1747  1.4916
 5272TIP3   OH237306   1.366   1.184   3.872 -0.4241 -0.2049 -0.2631
 5272TIP3    H137307   1.336   1.253   3.930 -2.5173 -1.4056  0.1561
 5272TIP3    H237308   1.400   1.231   3.795  0.2733  1.3197  0.9208
 5273TIP3   OH237309   4.693   5.965   1.557  0.1786 -0.7163  0.0234
 5273TIP3    H137310   4.727   5.962   1.468  0.1569 -0.8655  0.0207
 5273TIP3    H237311   4.770   5.959   1.613  0.3059  0.5015  0.0170
 5274TIP3   OH237312   2.864   2.547   2.946 -0.0231  0.1410  0.5103
 5274TIP3    H137313   2.932   2.518   3.006 -0.1578  0.0846  0.6350
 5274TIP3    H237314   2.883   2.501   2.864 -0.6564 -0.8444  0.9154
 5275TIP3   OH237315   2.970   6.281  13.724  1.2252  0.0626  0.3672
 5275TIP3    H137316   2.991   6.354  13.782  2.0472  0.3158 -0.2400
 5275TIP3    H237317   2.991   6.203  13.775 -0.2942  0.2061  1.2690
 5276TIP3   OH237318   6.114   5.321  12.271 -0.2058 -0.4182  0.3712
 5276TIP3    H137319   6.028   5.350  12.300  0.2493  1.0511  0.3111
 5276TIP3    H237320   6.122   5.354  12.181  1.3670  1.6399  1.1989
 5277TIP3   OH237321   5.786   2.523   1.544 -0.0170 -0.1508  0.8350
 5277TIP3    H137322   5.735   2.576   1.606  0.2196 -0.3727  1.2197
 5277TIP3    H237323   5.725   2.455   1.516 -0.4493  0.5432  0.0373
 5278TIP3   OH237324   2.111   2.859  12.829  0.3047 -0.6355 -0.8395
 5278TIP3    H137325   2.069   2.774  12.841  2.0028 -1.2151  1.7550
 5278TIP3    H237326   2.200   2.847  12.863  0.7268  2.0796 -0.7494
 5279TIP3   OH237327   2.075   1.381  15.614  0.5334 -0.0343 -0.0200
 5279TIP3    H137328   2.014   1.455  15.613  0.1981 -0.3170 -1.1948
 5279TIP3    H237329   2.110   1.377  15.525 -1.0360 -2.5706 -0.6296
 5280TIP3   OH237330   4.258   3.079  12.564 -0.1624 -0.0444  0.0647
 5280TIP3    H137331   4.275   3.140  12.634 -1.0488 -0.2703  0.4972
 5280TIP3    H237332   4.282   2.993  12.599  1.7174  0.0972 -0.7688
 5281TIP3   OH237333   2.167   5.835  13.800 -0.1026  0.6149 -0.0535
 5281TIP3    H137334   2.242   5.811  13.854 -1.2539 -0.0932  1.3214
 5281TIP3    H237335   2.168   5.931  13.799  1.2220  0.6218 -0.7025
 5282TIP3   OH237336   6.213   3.742   2.212  0.2811  0.1704 -0.1933
 5282TIP3    H137337   6.184   3.756   2.122 -2.6927  0.0251  0.6296
 5282TIP3    H237338   6.186   3.821   2.258  1.7982  0.2576  0.5975
 5283TIP3   OH237339   4.224   1.798  12.177 -0.1144  0.0539 -0.1037
 5283TIP3    H137340   4.162   1.725  12.184 -0.7704  0.7579  2.3459
 5283TIP3    H237341   4.263   1.787  12.091  0.5339 -3.7934  0.4724
 5284TIP3   OH237342   5.233   3.641  13.435  0.4378 -0.3585  0.1350
 5284TIP3    H137343   5.247   3.666  13.343  1.7553  0.9441  0.6590
 5284TIP3    H237344   5.196   3.553  13.430 -0.6984  0.1468 -1.6782
 5285TIP3   OH237345   1.023   6.567   4.465 -0.7546 -0.2274 -0.2962
 5285TIP3    H137346   1.026   6.572   4.560  3.7606  0.1384 -0.2384
 5285TIP3    H237347   0.968   6.641   4.438 -1.5353  0.0765  1.9549
 5286TIP3   OH237348   3.128   0.594   2.527 -0.2082 -0.1374 -0.0131
 5286TIP3    H137349   3.184   0.539   2.582  0.2345 -0.4400 -0.7659
 5286TIP3    H237350   3.045   0.548   2.524 -0.5767  0.4013  1.2541
 5287TIP3   OH237351   4.397   2.711   2.041  0.1118 -0.0699 -0.4338
 5287TIP3    H137352   4.318   2.657   2.035  0.2035 -0.4005  1.0782
 5287TIP3    H237353   4.460   2.666   1.983 -0.0142 -1.2635  0.3127
 5288TIP3   OH237354   0.831   0.186   0.033 -0.2439 -0.4728 -0.3195
 5288TIP3    H137355   0.859   0.183   0.125 -0.4034 -2.0028 -0.2954
 5288TIP3    H237356   0.755   0.128   0.029 -2.3988  2.2176 -0.7580
 5289TIP3   OH237357   3.819   6.411   1.749 -0.0016  0.0247 -0.3466
 5289TIP3    H137358   3.846   6.446   1.664 -1.7422 -1.3962 -1.5701
 5289TIP3    H237359   3.724   6.420   1.749 -0.4814 -3.6001 -0.3228
 5290TIP3   OH237360   2.463   2.080   3.092  0.2607 -0.2337  0.4616
 5290TIP3    H137361   2.558   2.079   3.106  0.5505  0.5632 -1.2616
 5290TIP3    H237362   2.427   2.045   3.174  2.0336 -0.7179  1.0836
 5291TIP3   OH237363   2.132   3.432  13.221 -0.1066  0.4953  0.1137
 5291TIP3    H137364   2.159   3.521  13.202  0.2684  0.4097  0.2498
 5291TIP3    H237365   2.180   3.378  13.158 -0.4659  0.4039 -0.0851
 5292TIP3   OH237366   3.885   1.772   0.223  0.7443 -0.0600 -0.1235
 5292TIP3    H137367   3.867   1.865   0.213  0.7282 -0.0458  0.0409
 5292TIP3    H237368   3.894   1.759   0.318 -2.4038 -0.8084  0.1684
 5293TIP3   OH237369   4.658   0.878  12.264 -0.4851 -0.2764 -0.1141
 5293TIP3    H137370   4.562   0.876  12.258 -0.4524 -1.9537 -0.7984
 5293TIP3    H237371   4.677   0.855  12.355 -0.7588 -1.8147 -0.4055
 5294TIP3   OH237372   4.449   2.114  16.963  0.1984  0.1182  0.1369
 5294TIP3    H137373   4.381   2.073  16.910 -0.1943  0.1729  0.5945
 5294TIP3    H237374   4.427   2.207  16.962  0.4728  0.1824 -0.0103
 5295TIP3   OH237375   0.684   1.521  16.464  0.3749 -0.0459  0.6132
 5295TIP3    H137376   0.668   1.534  16.371  0.2789 -0.1633  0.6134
 5295TIP3    H237377   0.767   1.567  16.481  0.3783 -0.0020  0.4764
 5296TIP3   OH237378   1.355   5.864   4.006  0.0866 -0.0393  0.1416
 5296TIP3    H137379   1.329   5.777   4.034  1.1106 -0.1450  0.8231
 5296TIP3    H237380   1.422   5.849   3.939 -2.2787  0.2122 -2.4191
 5297TIP3   OH237381   4.310   5.535  13.993 -0.1769 -0.1921  0.3522
 5297TIP3    H137382   4.273   5.447  13.996  0.0953 -0.3187  0.0445
 5297TIP3    H237383   4.315   5.556  13.899  2.4672 -1.0028  0.2295
 5298TIP3   OH237384   2.377   2.741   0.021  0.0301  0.1090  0.3549
 5298TIP3    H137385   2.344   2.752  -0.069 -1.0354  0.3000  0.7554
 5298TIP3    H237386   2.467   2.772   0.017 -0.6422  2.1429 -0.1941
 5299TIP3   OH237387   0.946   0.950  14.573  0.2817  0.0430  0.3771
 5299TIP3    H137388   0.906   0.869  14.540  1.8085  0.5002 -2.9587
 5299TIP3    H237389   0.929   0.948  14.667 -2.7547 -2.4037 -0.0693
 5300TIP3   OH237390   2.429   6.031   1.460  0.3553 -0.2210 -0.5426
 5300TIP3    H137391   2.369   5.979   1.406  0.2228 -0.8289  0.1772
 5300TIP3    H237392   2.428   5.988   1.545  2.6286 -0.8816 -0.7999
 5301TIP3   OH237393   1.099   1.941   5.025  0.3928 -0.4327 -0.4078
 5301TIP3    H137394   1.163   1.976   4.963  0.2710 -2.7401 -1.9391
 5301TIP3    H237395   1.014   1.961   4.985  0.2179  0.1306  0.2188
 5302TIP3   OH237396   1.392   4.973  12.580  0.0391 -0.2115  0.1996
 5302TIP3    H137397   1.444   4.892  12.572  0.6918 -0.1256  2.6280
 5302TIP3    H237398   1.447   5.040  12.539  0.8802 -0.5041  0.8116
 5303TIP3   OH237399   4.238   4.723  15.896 -0.3387 -0.4686  0.5876
 5303TIP3    H137400   4.331   4.746  15.892 -0.5896  0.5174  0.3732
 5303TIP3    H237401   4.195   4.783  15.836 -1.0178 -1.5089 -0.0055
 5304TIP3   OH237402   1.314   0.577  13.106 -0.0084 -0.0246  0.4014
 5304TIP3    H137403   1.237   0.615  13.064 -0.0485 -0.3739  0.1582
 5304TIP3    H237404   1.311   0.609  13.196 -0.3552  0.0818  0.3514
 5305TIP3   OH237405   2.877   4.930  14.395 -0.6150 -0.3869  0.0222
 5305TIP3    H137406   2.871   4.947  14.301 -1.9527 -0.2861  0.1104
 5305TIP3    H237407   2.948   4.987  14.425 -1.2114  0.7424 -0.6628
 5306TIP3   OH237408   0.528   3.154  14.205 -0.1515  0.2895 -0.2281
 5306TIP3    H137409   0.539   3.174  14.298  0.5028  1.8468 -0.5996
 5306TIP3    H237410   0.455   3.209  14.177 -1.5237 -1.4859 -0.2894
 5307TIP3   OH237411   1.809   3.840  14.007  0.6050  0.3475 -0.0976
 5307TIP3    H137412   1.777   3.751  14.019  0.0085  0.5065 -0.4647
 5307TIP3    H237413   1.835   3.869  14.094 -0.8593  0.4458  0.3285
 5308TIP3   OH237414   4.639   2.810   2.200  0.2348 -0.2045 -0.6220
 5308TIP3    H137415   4.696   2.838   2.128 -1.2802  1.1412 -1.3539
 5308TIP3    H237416   4.556   2.788   2.158 -0.9189  1.3114  0.7579
 5309TIP3   OH237417   2.219   5.367  13.177  0.2453 -1.2265  0.5639
 5309TIP3    H137418   2.139   5.329  13.213 -0.5293 -0.2580 -0.0849
 5309TIP3    H237419   2.233   5.447  13.227 -0.6099 -0.0901 -0.9356
 5310TIP3   OH237420   3.259   1.242   5.075 -0.1522  0.2661 -0.0398
 5310TIP3    H137421   3.294   1.168   5.125 -0.6570  0.4798  0.6404
 5310TIP3    H237422   3.164   1.233   5.082 -0.2339  1.7599  1.2238
 5311TIP3   OH237423   2.271   3.381  12.360 -0.1742 -0.6915  0.1619
 5311TIP3    H137424   2.280   3.476  12.359 -1.5255 -0.5264  0.6323
 5311TIP3    H237425   2.180   3.366  12.388 -0.0864 -2.1106 -0.2189
 5312TIP3   OH237426   1.627   5.168  13.424  0.4651 -0.6632 -0.1714
 5312TIP3    H137427   1.564   5.194  13.357 -0.2142 -2.0465 -0.1027
 5312TIP3    H237428   1.657   5.081  13.398  0.1344 -1.2631  1.3213
 5313TIP3   OH237429   1.389   3.708   0.025  0.3241 -0.3367  0.2407
 5313TIP3    H137430   1.405   3.618   0.055  0.7009 -0.0271  0.9864
 5313TIP3    H237431   1.474   3.751   0.031 -0.3337  0.7846  2.3641
 5314TIP3   OH237432   3.406   1.785   0.102  0.2080 -0.4837 -0.0987
 5314TIP3    H137433   3.418   1.698   0.140  0.1566 -0.3437  0.2321
 5314TIP3    H237434   3.313   1.804   0.114  0.8017  1.0008  2.7794
 5315TIP3   OH237435   6.265   5.002  12.933  0.0944  0.8968 -0.0423
 5315TIP3    H137436   6.294   4.936  12.996 -1.4009 -1.2125 -1.4506
 5315TIP3    H237437   6.327   4.996  12.861 -1.0591 -0.3766 -0.9964
 5316TIP3   OH237438   2.846   6.305  15.446  0.0428  0.4879 -0.0612
 5316TIP3    H137439   2.923   6.251  15.426 -0.5293 -0.6293  0.6349
 5316TIP3    H237440   2.807   6.324  15.361 -0.3871 -1.2046 -0.2877
 5317TIP3   OH237441   3.602   4.842  17.053 -0.0252  0.0405  0.0495
 5317TIP3    H137442   3.676   4.865  16.996  0.6560 -0.5725  0.6685
 5317TIP3    H237443   3.578   4.925  17.095 -0.1954  0.3936 -0.7180
 5318TIP3   OH237444   1.822   5.839   5.752 -0.4587 -0.3352 -0.1745
 5318TIP3    H137445   1.758   5.794   5.806  0.2287 -1.7219 -0.4605
 5318TIP3    H237446   1.861   5.904   5.810 -2.0078  0.4292  0.0316
 5319TIP3   OH237447   0.345   0.080  11.393  0.4525 -0.7961 -0.6872
 5319TIP3    H137448   0.310   0.169  11.405  0.1704 -0.8568 -1.0400
 5319TIP3    H237449   0.272   0.030  11.358  0.4983 -1.2680 -0.1250
 5320TIP3   OH237450   2.647   5.102   0.729  0.1828  0.2601 -0.1335
 5320TIP3    H137451   2.616   5.154   0.654  0.6632 -0.7812 -1.0685
 5320TIP3    H237452   2.595   5.022   0.726  0.6669 -0.0732  0.2759
 5321TIP3   OH237453   4.355   5.917   4.734  0.4248  0.7140  0.1868
 5321TIP3    H137454   4.388   5.929   4.823  0.3577  0.5737  0.2308
 5321TIP3    H237455   4.261   5.930   4.741  0.5210  1.6167 -0.0279
 5322TIP3   OH237456   4.048   1.583  12.116  0.6095 -0.0638  0.1056
 5322TIP3    H137457   4.043   1.535  12.198  0.2877  0.0717  0.1659
 5322TIP3    H237458   4.046   1.516  12.048  0.5136 -0.1533  0.1990
 5323TIP3   OH237459   1.371   5.982   6.128 -0.2589 -0.4757 -0.1836
 5323TIP3    H137460   1.394   6.071   6.155 -1.4265  0.1742 -1.2343
 5323TIP3    H237461   1.377   5.983   6.033 -1.3259 -1.2050 -0.2784
 5324TIP3   OH237462   3.577   2.071  14.706  0.3313 -0.0263  0.4096
 5324TIP3    H137463   3.510   2.035  14.648 -0.8527 -0.2661  1.8578
 5324TIP3    H237464   3.568   2.020  14.787  1.0051  1.1756  1.2705
 5325TIP3   OH237465   1.366   4.487   4.320  0.1436  0.0088 -0.3491
 5325TIP3    H137466   1.296   4.461   4.261 -1.7368 -0.8124  2.1019
 5325TIP3    H237467   1.397   4.405   4.359  0.1782  0.6332  1.0007
 5326TIP3   OH237468   3.514   6.762  12.059  0.0460 -0.2722 -0.2008
 5326TIP3    H137469   3.434   6.727  12.021 -0.0017 -0.3949  0.0119
 5326TIP3    H237470   3.486   6.802  12.142  0.1539 -0.0366 -0.2752
 5327TIP3   OH237471   6.182   5.310  16.555  0.6885 -0.2871 -0.3766
 5327TIP3    H137472   6.210   5.363  16.630 -2.3947  0.2232  0.5593
 5327TIP3    H237473   6.216   5.357  16.479  1.7280  0.6043  0.5872
 5328TIP3   OH237474   2.821   0.861  14.344  0.0337 -0.6616 -0.1145
 5328TIP3    H137475   2.830   0.812  14.425 -1.1205 -0.0788  0.3933
 5328TIP3    H237476   2.908   0.898  14.327  0.4617 -1.4054  0.4438
 5329TIP3   OH237477   3.348   5.912   6.471  0.1524  0.3121 -0.6383
 5329TIP3    H137478   3.380   5.999   6.449 -1.2237  0.5400 -1.8778
 5329TIP3    H237479   3.258   5.911   6.439 -0.5530 -0.8653  1.1958
 5330TIP3   OH237480   5.533   0.283  10.988  0.0143 -0.5977  0.4209
 5330TIP3    H137481   5.616   0.331  10.983 -0.2152 -0.3216 -1.3991
 5330TIP3    H237482   5.473   0.344  11.031  0.3633 -0.2094  0.3649
 5331TIP3   OH237483   5.179   6.787  13.513  0.2872  0.0180  0.1104
 5331TIP3    H137484   5.115   6.813  13.580 -0.1616 -2.9397  0.9947
 5331TIP3    H237485   5.135   6.717  13.465  1.3260  0.8047 -2.1217
 5332TIP3   OH237486   4.619   4.938   3.373  0.3013  0.5044 -0.3015
 5332TIP3    H137487   4.618   4.987   3.455 -0.9103  0.9000 -0.5270
 5332TIP3    H237488   4.547   4.876   3.382 -0.3018  1.0282 -1.3275
 5333TIP3   OH237489   1.996   0.216   1.808  0.2586  0.3541  0.0418
 5333TIP3    H137490   1.996   0.296   1.756  2.3419 -0.4457 -1.3123
 5333TIP3    H237491   2.069   0.226   1.868  0.7357 -0.6302 -0.3541
 5334TIP3   OH237492   0.751   2.943   2.512  0.6773  0.2507  0.6494
 5334TIP3    H137493   0.776   3.009   2.447 -0.7569  0.8052  0.6119
 5334TIP3    H237494   0.687   2.988   2.567  0.2316 -0.8891  1.0870
 5335TIP3   OH237495   3.308   4.633   2.970 -0.0129 -0.4990 -0.4759
 5335TIP3    H137496   3.324   4.616   3.063  1.1400 -0.2424 -0.6072
 5335TIP3    H237497   3.223   4.592   2.952 -0.7033  0.2578  0.8957
 5336TIP3   OH237498   4.039   6.451   4.825 -0.2207  0.0372 -0.5311
 5336TIP3    H137499   4.021   6.499   4.743 -0.4257 -0.5438 -0.8309
 5336TIP3    H237500   4.131   6.427   4.819  0.8755  3.2294  1.1163
 5337TIP3   OH237501   5.973   4.637  11.090 -0.3805  0.8142  0.5652
 5337TIP3    H137502   5.951   4.607  11.002 -0.2962  0.8574  0.5292
 5337TIP3    H237503   6.038   4.707  11.076 -0.5811  1.0176  0.6490
 5338TIP3   OH237504   6.402   1.048   2.654 -0.5248  0.2086  0.1746
 5338TIP3    H137505   6.320   1.009   2.684 -0.0868 -0.1234  0.9366
 5338TIP3    H237506   6.406   1.132   2.699 -0.6893  0.4579 -0.2613
 5339TIP3   OH237507   2.941   4.378  11.081  0.2757  0.0870 -0.0273
 5339TIP3    H137508   2.945   4.363  10.987  0.8164  0.0555 -0.0057
 5339TIP3    H237509   2.923   4.471  11.091  0.2624  0.0981 -0.1622
 5340TIP3   OH237510   5.379   5.839   2.166 -0.0311  0.4061 -0.4268
 5340TIP3    H137511   5.352   5.908   2.105 -0.6660  0.9124  0.4075
 5340TIP3    H237512   5.357   5.758   2.121 -1.3028  0.7825 -0.5192
 5341TIP3   OH237513   3.089   4.592  11.575 -0.2454  0.9256  0.5077
 5341TIP3    H137514   3.014   4.574  11.631 -0.9218 -1.5431 -1.0541
 5341TIP3    H237515   3.071   4.545  11.494  2.9937  0.2177  0.0615
 5342TIP3   OH237516   2.794   5.387  16.333  0.1876  0.5152 -0.0684
 5342TIP3    H137517   2.887   5.365  16.342  0.5424  2.0514  0.2705
 5342TIP3    H237518   2.787   5.429  16.248 -0.0228  1.2121  0.2875
 5343TIP3   OH237519   4.888   3.478  13.584 -0.1688 -0.1168  0.1209
 5343TIP3    H137520   4.960   3.437  13.536 -0.9439  0.7016 -1.8933
 5343TIP3    H237521   4.891   3.570  13.557 -0.1458  0.6004  2.3876
 5344TIP3   OH237522   6.425   3.131   1.469  0.0971 -0.1119  0.3100
 5344TIP3    H137523   6.397   3.190   1.399  0.9250 -0.9357 -0.7454
 5344TIP3    H237524   6.347   3.121   1.524  0.0505  2.2693  0.7730
 5345TIP3   OH237525   5.075   1.510  14.573  0.0059  0.7958 -0.0743
 5345TIP3    H137526   5.167   1.536  14.574  0.6557 -1.3346  0.8050
 5345TIP3    H237527   5.063   1.469  14.487  1.0676 -2.5199  1.2060
 5346TIP3   OH237528   4.732   0.929  12.790 -0.3694  1.1831  0.0936
 5346TIP3    H137529   4.694   0.996  12.847 -2.5089  0.0931  0.0628
 5346TIP3    H237530   4.780   0.871  12.849  0.0245  1.7579  0.3466
 5347TIP3   OH237531   0.783   3.368  15.682 -0.0210  0.0726  0.2792
 5347TIP3    H137532   0.822   3.297  15.732 -0.6006  0.1465  0.8448
 5347TIP3    H237533   0.830   3.367  15.599 -0.3799 -1.3034  0.0745
 5348TIP3   OH237534   1.646   6.431  14.736 -0.6966  0.0865  0.3421
 5348TIP3    H137535   1.626   6.522  14.758  2.0227  0.3641  2.0973
 5348TIP3    H237536   1.578   6.380  14.779 -1.3603  1.2010  0.6455
 5349TIP3   OH237537   1.262   2.144  15.328 -0.0349 -0.3814  0.0457
 5349TIP3    H137538   1.251   2.173  15.237  0.5815 -0.0482  0.0671
 5349TIP3    H237539   1.198   2.074  15.339 -1.1488  0.5715 -0.1955
 5350TIP3   OH237540   2.672   4.188   0.889  0.5388 -0.6320 -0.2090
 5350TIP3    H137541   2.698   4.104   0.851  0.8034 -0.9878  0.7274
 5350TIP3    H237542   2.609   4.165   0.957  1.7062 -0.2370  1.0714
 5351TIP3   OH237543   2.058   0.951   3.157  0.3355 -0.7912  0.3553
 5351TIP3    H137544   2.002   0.977   3.230  0.0306  0.6881 -0.3829
 5351TIP3    H237545   2.146   0.946   3.195 -0.3364 -4.3830  1.8399
 5352TIP3   OH237546   3.344   2.850   4.304 -0.1232  0.3099 -0.0533
 5352TIP3    H137547   3.329   2.757   4.323 -2.5398  0.3182 -1.6464
 5352TIP3    H237548   3.299   2.896   4.375 -1.0711  0.2685 -0.6197
 5353TIP3   OH237549   2.989   0.369   0.679  0.7015 -0.6732  0.0615
 5353TIP3    H137550   2.924   0.317   0.632  1.3006 -1.2412 -0.1576
 5353TIP3    H237551   3.060   0.307   0.698  1.9736  0.3197 -1.2417
 5354TIP3   OH237552   2.674   1.511  12.732 -0.4642 -0.2365 -0.4988
 5354TIP3    H137553   2.660   1.435  12.789  3.7698 -1.7137 -1.0648
 5354TIP3    H237554   2.641   1.585  12.782  0.1242 -1.8522  2.5250
 5355TIP3   OH237555   6.628   5.063   3.748 -0.4104  0.4003 -0.2099
 5355TIP3    H137556   6.648   4.972   3.726 -2.5038 -0.0951 -0.2030
 5355TIP3    H237557   6.710   5.110   3.731  0.9850 -1.6022  0.6084
 5356TIP3   OH237558   2.048   5.054  10.666 -0.3933  0.2421  0.1655
 5356TIP3    H137559   2.055   4.964  10.696  0.8245  0.9245  2.1502
 5356TIP3    H237560   2.007   5.048  10.580  0.2697 -2.2282 -0.0466
 5357TIP3   OH237561   5.653   4.159  12.461  0.5456 -0.5999 -0.4635
 5357TIP3    H137562   5.579   4.172  12.402 -0.5173  1.6193  1.2248
 5357TIP3    H237563   5.672   4.065  12.454  0.5661 -0.4754 -4.2831
 5358TIP3   OH237564   5.699   0.453   5.242 -1.1102 -0.0593 -0.4838
 5358TIP3    H137565   5.727   0.454   5.334 -0.8317 -1.3963 -0.5325
 5358TIP3    H237566   5.611   0.416   5.244 -0.3862 -1.8811 -0.9031
 5359TIP3   OH237567   1.402   3.411  15.200  0.6271  0.4772  0.5762
 5359TIP3    H137568   1.411   3.497  15.241 -0.0606 -0.0422  1.8925
 5359TIP3    H237569   1.439   3.350  15.264  1.7336 -0.1748 -0.6294
 5360TIP3   OH237570   6.704   1.875  13.789  0.2305 -0.0843 -0.2455
 5360TIP3    H137571   6.724   1.964  13.818 -1.7418  0.2684  0.1659
 5360TIP3    H237572   6.772   1.855  13.724  0.4039  1.9115 -0.7368
 5361TIP3   OH237573   1.158   0.918   2.698  0.5645  0.2888 -0.5260
 5361TIP3    H137574   1.178   0.904   2.605  0.1180  0.7475 -0.6916
 5361TIP3    H237575   1.088   0.856   2.717  1.4221 -0.6013 -0.2026
 5362TIP3   OH237576   3.590   5.131   2.742  0.1247 -0.3177  0.4582
 5362TIP3    H137577   3.650   5.138   2.816 -1.1359  0.9363  1.4233
 5362TIP3    H237578   3.607   5.209   2.689 -2.0418  1.2448  1.8989
 5363TIP3   OH237579   1.758   1.451   3.178 -0.5726  0.1942 -0.4482
 5363TIP3    H137580   1.773   1.357   3.177 -1.5982  0.0149 -0.6524
 5363TIP3    H237581   1.827   1.487   3.234 -0.6268 -0.7591  0.2404
 5364TIP3   OH237582   3.045   4.269  12.332  0.5339  0.4545 -0.2017
 5364TIP3    H137583   3.114   4.204  12.349  1.4026  1.0994 -1.1548
 5364TIP3    H237584   2.997   4.274  12.415  0.5903 -1.2166 -0.0205
 5365TIP3   OH237585   2.956   5.507  12.343  0.1291  0.3377 -0.9378
 5365TIP3    H137586   2.994   5.480  12.427  0.1856  1.3805 -0.6175
 5365TIP3    H237587   2.919   5.594  12.360  0.0863  0.5305 -1.9706
 5366TIP3   OH237588   1.444   1.808   0.788 -0.1750 -0.1353  0.4482
 5366TIP3    H137589   1.364   1.860   0.779 -0.8655 -1.0433  1.1524
 5366TIP3    H237590   1.436   1.766   0.873  0.1021 -1.7913 -0.3005
 5367TIP3   OH237591   3.460   1.972   2.594 -0.5423  0.1696 -0.1693
 5367TIP3    H137592   3.434   1.881   2.609  0.3726 -0.0647  0.0927
 5367TIP3    H237593   3.531   1.967   2.529  0.3044  0.5760  0.6887
 5368TIP3   OH237594   2.911   3.255  14.357  0.5635 -0.2007 -0.1250
 5368TIP3    H137595   2.900   3.227  14.266 -0.7097  0.1257 -0.0799
 5368TIP3    H237596   2.997   3.221  14.381  0.3956 -1.3736 -1.0557
 5369TIP3   OH237597   3.897   4.962   1.781  0.2300 -0.2368  0.0906
 5369TIP3    H137598   3.938   5.006   1.855  0.7658 -0.1572 -0.2542
 5369TIP3    H237599   3.929   4.872   1.785  2.3110  0.3662 -1.5219
 5370TIP3   OH237600   2.439   3.842   2.158  0.1275 -0.2766 -0.5176
 5370TIP3    H137601   2.465   3.750   2.153  0.5781 -0.1663 -0.3111
 5370TIP3    H237602   2.343   3.841   2.154  0.1476 -0.7225 -0.9458
 5371TIP3   OH237603   2.550   5.010  13.486  0.2332  0.2182  0.0480
 5371TIP3    H137604   2.488   5.045  13.422 -0.1506 -2.4769 -1.1664
 5371TIP3    H237605   2.501   5.005  13.568 -0.3744  0.4337 -0.2998
 5372TIP3   OH237606   6.131   2.107   5.564 -0.4186  0.5422  0.4705
 5372TIP3    H137607   6.201   2.173   5.566 -0.3253  0.4865 -0.7116
 5372TIP3    H237608   6.092   2.116   5.478 -0.3880 -0.9746  0.2798
 5373TIP3   OH237609   0.504   3.928   6.358 -0.4562  0.8507  0.2520
 5373TIP3    H137610   0.448   3.987   6.408 -1.6876  0.4777 -0.6399
 5373TIP3    H237611   0.450   3.851   6.341  1.1837 -0.6705  1.5599
 5374TIP3   OH237612   4.134   1.149   5.782  0.0651  0.1702 -0.0769
 5374TIP3    H137613   4.171   1.153   5.870  0.3548 -2.6419  0.0157
 5374TIP3    H237614   4.209   1.161   5.724  0.2165 -0.0299  0.0752
 5375TIP3   OH237615   0.819   1.500  12.289  0.8654  0.0982  0.2034
 5375TIP3    H137616   0.777   1.514  12.204  0.6805 -2.3884 -0.2012
 5375TIP3    H237617   0.912   1.505  12.271  0.8183  0.0627 -0.0558
 5376TIP3   OH237618   0.630   3.074  11.673  0.0330  0.1918 -0.0707
 5376TIP3    H137619   0.569   3.104  11.741  0.6995 -0.8113  1.0019
 5376TIP3    H237620   0.598   2.988  11.648 -0.6268  0.8493 -1.5923
 5377TIP3   OH237621   6.786   4.946  11.407 -0.1261 -0.0152 -0.0007
 5377TIP3    H137622   6.861   4.915  11.356  1.4842  2.1838  0.8725
 5377TIP3    H237623   6.781   4.886  11.482 -0.4062 -1.2294 -0.9508
 5378TIP3   OH237624   4.654   4.811   1.434 -0.0584  0.7775  0.1902
 5378TIP3    H137625   4.694   4.897   1.418  1.3075  0.2164  0.4693
 5378TIP3    H237626   4.580   4.829   1.491 -0.2290  1.8580 -0.3478
 5379TIP3   OH237627   3.263   0.912   1.904 -0.0063 -0.0005  0.2798
 5379TIP3    H137628   3.255   0.903   1.999 -2.8356  1.0397  0.2437
 5379TIP3    H237629   3.297   1.001   1.892 -0.1573  0.0652  0.3295
 5380TIP3   OH237630   3.405   5.266  15.482  0.2722 -0.4004  0.1558
 5380TIP3    H137631   3.358   5.299  15.559 -1.1294 -1.5873 -0.1529
 5380TIP3    H237632   3.468   5.204  15.518  0.2789 -0.2386  0.4279
 5381TIP3   OH237633   3.999   5.969   1.538  0.3915 -0.2019  0.0333
 5381TIP3    H137634   3.928   5.936   1.593  0.3613  0.6623  0.5213
 5381TIP3    H237635   4.044   6.033   1.593 -0.4675  1.7025 -1.3870
 5382TIP3   OH237636   6.609   0.347  12.214 -0.2132 -0.3720 -0.2270
 5382TIP3    H137637   6.634   0.339  12.122  1.5876  0.1094  0.1797
 5382TIP3    H237638   6.575   0.437  12.221  1.1191  0.1439 -0.1273
 5383TIP3   OH237639   2.755   6.565  16.610  0.5876  0.0079  0.6014
 5383TIP3    H137640   2.747   6.660  16.615  1.9405  0.1026  1.2096
 5383TIP3    H237641   2.699   6.533  16.682 -2.2698  0.1436 -1.3756
 5384TIP3   OH237642   5.151   0.330  15.357  0.1188  0.0278 -0.7319
 5384TIP3    H137643   5.077   0.371  15.403  0.1049 -1.7517  0.9731
 5384TIP3    H237644   5.172   0.253  15.410  2.0963 -0.4682 -2.1376
 5385TIP3   OH237645   0.268   0.921  12.074  0.1072  0.5428  0.3492
 5385TIP3    H137646   0.289   0.837  12.033 -1.1739 -0.6884  2.0499
 5385TIP3    H237647   0.181   0.908  12.111  0.2513  2.3306  1.4234
 5386TIP3   OH237648   3.822   0.570  13.688  0.1768 -0.6986  0.1550
 5386TIP3    H137649   3.842   0.478  13.709  0.2092 -0.6974  0.1305
 5386TIP3    H237650   3.892   0.595  13.627  0.2917 -0.5922  0.3290
 5387TIP3   OH237651   0.995   5.366   6.139  0.3505  0.0703  0.3004
 5387TIP3    H137652   1.067   5.393   6.082 -1.4171  0.8653 -1.6411
 5387TIP3    H237653   0.972   5.279   6.109 -0.7492  0.5893 -0.4024
 5388TIP3   OH237654   5.847   2.611   3.830  0.0660 -0.1295  0.5346
 5388TIP3    H137655   5.827   2.632   3.739  0.2687  0.4184  0.6148
 5388TIP3    H237656   5.941   2.596   3.832  0.1808  0.5645  0.7809
 5389TIP3   OH237657   5.815   2.031  11.544  0.0211 -0.3301 -0.4133
 5389TIP3    H137658   5.760   2.105  11.572  0.6469  0.3103 -0.8622
 5389TIP3    H237659   5.810   1.969  11.617  0.3481  0.6280  0.4403
 5390TIP3   OH237660   6.178   1.783  13.745 -0.3005  0.0726  0.3053
 5390TIP3    H137661   6.255   1.838  13.757 -1.2215  1.0376  2.3095
 5390TIP3    H237662   6.108   1.845  13.723 -0.7798 -0.6461 -0.2257
 5391TIP3   OH237663   6.120   4.252   5.102  0.0192 -0.2870  0.2226
 5391TIP3    H137664   6.044   4.267   5.158 -0.7873  0.4348 -0.9907
 5391TIP3    H237665   6.195   4.260   5.160 -0.8324 -1.4594  1.5488
 5392TIP3   OH237666   4.453   0.706   0.401  0.3162  0.2994 -0.4690
 5392TIP3    H137667   4.485   0.616   0.401 -0.0007  0.1813  0.4580
 5392TIP3    H237668   4.500   0.749   0.472 -2.9372 -0.4151  2.3800
 5393TIP3   OH237669   4.944   4.679  13.562  0.0282 -0.0324 -0.1484
 5393TIP3    H137670   4.965   4.657  13.653  0.3584 -0.1777 -0.2557
 5393TIP3    H237671   4.976   4.604  13.512 -0.1842  0.0311 -0.3803
 5394TIP3   OH237672   4.556   3.077  16.958  0.4517 -0.4881  0.2452
 5394TIP3    H137673   4.564   2.982  16.954 -0.1478 -0.5061 -0.8885
 5394TIP3    H237674   4.644   3.109  16.941  0.9842 -0.8385  2.1300
 5395TIP3   OH237675   5.442   2.679  11.666 -0.3934  0.7590  0.2757
 5395TIP3    H137676   5.347   2.670  11.665 -0.3307  0.0157 -1.0688
 5395TIP3    H237677   5.467   2.666  11.758 -1.6299  1.6526  0.7577
 5396TIP3   OH237678   1.862   0.277   0.999  0.2460 -0.3674 -0.8023
 5396TIP3    H137679   1.901   0.190   0.993 -0.4603 -0.6669 -1.0834
 5396TIP3    H237680   1.796   0.278   0.930 -0.4140  0.0574 -0.1695
 5397TIP3   OH237681   2.311   5.175  15.571 -0.0232  0.2266 -0.0237
 5397TIP3    H137682   2.365   5.097  15.585 -1.1539 -0.8057 -1.1581
 5397TIP3    H237683   2.222   5.140  15.558 -0.2402  1.5117 -2.6137
 5398TIP3   OH237684   0.521   5.953  12.914  0.8483  0.6425  0.1532
 5398TIP3    H137685   0.558   6.040  12.900 -0.0673  1.0036 -0.0485
 5398TIP3    H237686   0.536   5.907  12.831  1.5043  0.5333  0.3244
 5399TIP3   OH237687   6.730   2.350  12.732 -0.0643  0.7637  0.5176
 5399TIP3    H137688   6.720   2.270  12.680  0.2670  1.1744 -0.1932
 5399TIP3    H237689   6.810   2.391  12.699  0.0296  1.1530  1.2020
 5400TIP3   OH237690   3.304   3.452  16.592 -0.6846  0.5536  0.5110
 5400TIP3    H137691   3.263   3.502  16.521  0.1563 -0.8160 -1.0018
 5400TIP3    H237692   3.398   3.463  16.579 -0.4802 -1.1951  0.2658
 5401TIP3   OH237693   3.893   4.035   4.234 -0.1030  0.0819  0.1186
 5401TIP3    H137694   3.852   3.956   4.267  0.2138  0.1429  0.6632
 5401TIP3    H237695   3.893   4.096   4.308 -0.9365  0.8271 -0.4785
 5402TIP3   OH237696   4.025   0.555  16.283  0.1501 -0.4172 -0.4893
 5402TIP3    H137697   4.085   0.482  16.268  0.2451 -0.5400  0.4033
 5402TIP3    H237698   4.050   0.589  16.369 -1.7508 -1.1581  0.4154
 5403TIP3   OH237699   4.668   4.670   0.789  0.0811  0.6285  0.3833
 5403TIP3    H137700   4.707   4.662   0.702 -0.4634  0.4195  0.1480
 5403TIP3    H237701   4.734   4.635   0.849 -0.3202 -1.1835 -0.1570
 5404TIP3   OH237702   2.404   2.464   0.929  0.1610 -0.8133  0.2994
 5404TIP3    H137703   2.396   2.537   0.990  0.7471  1.2255 -1.9271
 5404TIP3    H237704   2.315   2.432   0.917 -0.3045  0.4502  0.2784
 5405TIP3   OH237705   0.287   0.726  10.646 -0.7764  0.3339  0.6663
 5405TIP3    H137706   0.360   0.706  10.703 -0.9201 -0.0448  0.7179
 5405TIP3    H237707   0.239   0.795  10.692 -0.8315  0.1058  0.9521
 5406TIP3   OH237708   4.485   6.247   1.834  0.7211 -0.4753  0.1040
 5406TIP3    H137709   4.423   6.299   1.885  1.6104  0.0936  0.6346
 5406TIP3    H237710   4.435   6.171   1.805  0.3751 -1.2018  2.4634
 5407TIP3   OH237711   1.042   3.834   2.156 -0.1195  0.0415 -0.5324
 5407TIP3    H137712   0.989   3.848   2.078  3.2905  1.6220 -2.8315
 5407TIP3    H237713   1.040   3.918   2.202 -0.9820 -0.4492  0.3576
 5408TIP3   OH237714   2.000   3.615  11.133 -0.2794  0.3996  0.0659
 5408TIP3    H137715   1.931   3.654  11.080 -1.2792  1.1294  1.7981
 5408TIP3    H237716   2.081   3.660  11.106 -0.2864 -1.0039 -2.5230
 5409TIP3   OH237717   3.899   0.447  14.751  0.2976  0.2606  0.3423
 5409TIP3    H137718   3.842   0.463  14.827  1.3259 -1.8913  1.6604
 5409TIP3    H237719   3.942   0.532  14.736 -0.3886  0.9116  1.7847
 5410TIP3   OH237720   3.246   2.575  15.809 -0.0174  0.6561  0.1131
 5410TIP3    H137721   3.341   2.572  15.801 -0.0695 -0.6152 -0.1776
 5410TIP3    H237722   3.223   2.495  15.856 -1.0727  0.0999 -1.2856
 5411TIP3   OH237723   6.239   0.834   3.856  0.1115 -0.1070 -0.2174
 5411TIP3    H137724   6.167   0.771   3.863 -1.2207  1.5195  2.1386
 5411TIP3    H237725   6.270   0.846   3.945  0.7564  2.0708 -0.6644
 5412TIP3   OH237726   0.863   1.108  17.136 -0.1635 -0.5229  0.4049
 5412TIP3    H137727   0.807   1.042  17.176 -1.7256  1.6648  2.1437
 5412TIP3    H237728   0.951   1.084  17.163 -0.4952 -2.6697 -0.2632
 5413TIP3   OH237729   2.573   0.547   0.169 -0.2555 -0.2817  0.2199
 5413TIP3    H137730   2.573   0.582   0.080  1.3578  0.6810  0.5596
 5413TIP3    H237731   2.660   0.509   0.180 -1.0575 -2.1005  0.7883
 5414TIP3   OH237732   0.945   2.575   2.645  0.4661  0.0134 -0.4989
 5414TIP3    H137733   1.034   2.597   2.674  0.4598  0.2508 -0.6542
 5414TIP3    H237734   0.957   2.548   2.553  0.6694 -1.9527  0.0620
 5415TIP3   OH237735   0.996   6.311  16.056 -0.3198  0.0771  0.2592
 5415TIP3    H137736   1.050   6.346  15.985  0.5861  0.5527  1.1474
 5415TIP3    H237737   1.014   6.217  16.057  0.3682  0.2029  0.4211
 5416TIP3   OH237738   1.603   2.705   3.870  0.0653 -0.5393 -0.7641
 5416TIP3    H137739   1.561   2.684   3.954 -0.5426 -0.6144 -1.0801
 5416TIP3    H237740   1.688   2.662   3.874 -0.2733 -1.1920 -0.4968
 5417TIP3   OH237741   4.520   2.406   5.281  0.3270  0.2904  0.3176
 5417TIP3    H137742   4.456   2.386   5.350  0.0924 -1.0167 -0.2451
 5417TIP3    H237743   4.550   2.320   5.251  2.0989  0.8762  0.3147
 5418TIP3   OH237744   1.516   0.103   5.474 -0.3798 -0.4430  0.6718
 5418TIP3    H137745   1.431   0.142   5.456 -0.5063  0.4151  2.8464
 5418TIP3    H237746   1.577   0.177   5.474  0.1222 -0.8452  0.5988
 5419TIP3   OH237747   1.245   2.780  11.972 -0.2662 -0.2235 -0.3337
 5419TIP3    H137748   1.223   2.851  12.033 -0.4468 -0.5739  0.0105
 5419TIP3    H237749   1.335   2.798  11.946 -0.0045 -0.3650  0.4504
 5420TIP3   OH237750   1.047   3.275   3.653  0.1882  0.4312  0.1542
 5420TIP3    H137751   1.062   3.211   3.583 -0.5337  0.7162 -0.2719
 5420TIP3    H237752   0.991   3.229   3.716  0.3678  0.3619  0.2623
 5421TIP3   OH237753   2.672   3.846  11.050  0.3963 -0.2499 -0.2883
 5421TIP3    H137754   2.721   3.926  11.067 -0.0157 -0.4318  2.0794
 5421TIP3    H237755   2.617   3.867  10.974  1.1419  1.3071 -0.4214
 5422TIP3   OH237756   5.384   2.664   4.314 -0.1478  0.3480 -0.4273
 5422TIP3    H137757   5.350   2.626   4.233  0.3277 -2.3146  0.5527
 5422TIP3    H237758   5.479   2.668   4.301 -0.0923  0.1317 -0.0928
 5423TIP3   OH237759   5.675   1.586   1.531  0.5253 -0.0735  0.3862
 5423TIP3    H137760   5.719   1.667   1.558  0.0380 -0.0809  1.2644
 5423TIP3    H237761   5.731   1.516   1.564 -0.6136 -0.0942  2.4702
 5424TIP3   OH237762   0.101   0.978  11.518 -0.2544  0.6266  0.0068
 5424TIP3    H137763   0.139   0.906  11.467 -1.0187  0.3748 -0.2218
 5424TIP3    H237764   0.120   1.056  11.466 -0.0090  0.5131 -0.0808
 5425TIP3   OH237765   4.692   6.553  13.684 -0.3049  0.3472  0.3570
 5425TIP3    H137766   4.779   6.525  13.654 -1.4200 -1.3698 -1.5616
 5425TIP3    H237767   4.647   6.471  13.705 -1.6411  1.1681  0.8035
 5426TIP3   OH237768   3.611   4.207   4.425  0.1761 -0.6412 -0.5179
 5426TIP3    H137769   3.588   4.236   4.337  0.3778 -1.0803 -0.7232
 5426TIP3    H237770   3.595   4.112   4.424 -0.5889 -0.5330  0.1677
 5427TIP3   OH237771   1.043   6.298   2.632  0.2286 -0.3593 -0.2887
 5427TIP3    H137772   1.046   6.209   2.596  0.1990 -0.6954  0.5146
 5427TIP3    H237773   0.956   6.330   2.609  1.4390  0.8921 -3.8128
 5428TIP3   OH237774   5.225   3.004   5.857  0.0887  0.3553  0.4835
 5428TIP3    H137775   5.244   2.990   5.764 -1.2900 -1.4903  0.4333
 5428TIP3    H237776   5.229   2.917   5.896 -0.2835  0.9752  1.9877
 5429TIP3   OH237777   6.520   1.731   0.605 -0.1613 -0.1084 -0.1173
 5429TIP3    H137778   6.584   1.791   0.643 -1.0087  0.8137 -0.1037
 5429TIP3    H237779   6.460   1.788   0.557 -2.5793 -0.6244  2.1198
 5430TIP3   OH237780   1.130   0.273   3.389  0.2260 -0.3026 -0.4002
 5430TIP3    H137781   1.190   0.292   3.318  1.5934 -0.0684  0.7642
 5430TIP3    H237782   1.187   0.254   3.464 -1.0789 -3.4763 -0.0496
 5431TIP3   OH237783   2.685   4.942  11.640 -0.6803 -0.2370  0.2800
 5431TIP3    H137784   2.634   4.862  11.631 -1.5578  0.4963 -1.7342
 5431TIP3    H237785   2.633   4.997  11.699  1.3680 -2.1495  4.2577
 5432TIP3   OH237786   2.938   4.267   5.215 -0.1678  0.1859  0.0589
 5432TIP3    H137787   2.997   4.226   5.278 -2.7184 -1.2755  1.6366
 5432TIP3    H237788   2.855   4.276   5.261 -1.7142  0.5650 -2.5907
 5433TIP3   OH237789   0.309   2.153  12.655 -0.6143 -0.3560 -0.1569
 5433TIP3    H137790   0.343   2.213  12.590  1.3518 -1.8466 -0.6246
 5433TIP3    H237791   0.364   2.168  12.732 -1.6209  0.0144  0.5105
 5434TIP3   OH237792   3.119   1.674   0.506 -0.2473  0.7085  0.1195
 5434TIP3    H137793   3.123   1.581   0.485  1.5125  0.6404  0.5724
 5434TIP3    H237794   3.064   1.679   0.584  0.8204 -0.1606  0.9670
 5435TIP3   OH237795   4.256   3.289  11.252 -0.1636 -0.4289 -0.1885
 5435TIP3    H137796   4.281   3.377  11.226  0.2534 -0.9132 -1.4974
 5435TIP3    H237797   4.164   3.297  11.279  0.1291  0.5552  0.5777
 5436TIP3   OH237798   6.185   2.432  11.182 -0.2466 -0.5846  0.5048
 5436TIP3    H137799   6.266   2.470  11.151 -0.1447 -0.2917  1.1120
 5436TIP3    H237800   6.147   2.390  11.105  1.3170 -2.2247  0.5609
 5437TIP3   OH237801   6.640   6.375  16.040  0.0015  0.2438 -0.1695
 5437TIP3    H137802   6.648   6.378  16.136  3.2239 -1.8078 -0.2089
 5437TIP3    H237803   6.712   6.429  16.008  0.8643 -1.4685 -1.3107
 5438TIP3   OH237804   5.658   5.379  16.354  0.0627  0.5743 -0.6370
 5438TIP3    H137805   5.664   5.285  16.336  0.0813  0.9689 -2.9282
 5438TIP3    H237806   5.749   5.408  16.362  0.1362  0.7151 -1.8669
 5439TIP3   OH237807   4.649   4.834   3.870  0.3383 -0.6726 -0.6170
 5439TIP3    H137808   4.719   4.776   3.899 -0.9389 -1.8353  0.3019
 5439TIP3    H237809   4.580   4.775   3.839 -1.2367  0.2821  0.8663
 5440TIP3   OH237810   5.766   5.085  15.313  0.1557 -0.1329  0.8710
 5440TIP3    H137811   5.740   5.110  15.225 -1.0084  2.5606  1.8904
 5440TIP3    H237812   5.856   5.054  15.303  0.3190  0.8371 -1.1535
 5441TIP3   OH237813   5.259   4.782  16.102 -0.0908  0.4030  0.8051
 5441TIP3    H137814   5.268   4.876  16.089 -0.3281  0.3719  0.4018
 5441TIP3    H237815   5.328   4.760  16.165  1.1080  0.5492 -0.4173
 5442TIP3   OH237816   1.832   5.417  13.777  0.1047  0.0749 -0.3417
 5442TIP3    H137817   1.741   5.414  13.806 -0.5863  0.3155 -2.2979
 5442TIP3    H237818   1.855   5.325  13.762 -0.2918  0.0898 -1.1171
 5443TIP3   OH237819   2.950   3.868   4.546 -0.6595  0.2113  0.2733
 5443TIP3    H137820   2.902   3.876   4.628 -1.4495 -1.3382 -0.0080
 5443TIP3    H237821   2.953   3.774   4.528  0.2119  0.4605 -1.0571
 5444TIP3   OH237822   4.457   0.268   5.612 -0.4238  0.7060  0.2285
 5444TIP3    H137823   4.428   0.359   5.623  0.7734  1.1664 -0.2055
 5444TIP3    H237824   4.376   0.217   5.613 -1.1845  1.8476 -0.2548
 5445TIP3   OH237825   6.134   3.532  15.682 -0.3094  0.3099  0.1424
 5445TIP3    H137826   6.126   3.588  15.758  0.8154  1.0034 -0.2294
 5445TIP3    H237827   6.085   3.578  15.613 -0.0840  0.4195  0.0557
 5446TIP3   OH237828   3.574   0.439   4.868 -0.4344 -0.0531 -0.6750
 5446TIP3    H137829   3.517   0.388   4.926 -2.5463  0.3598 -2.2475
 5446TIP3    H237830   3.572   0.527   4.905  0.6534 -0.4108  0.2686
 5447TIP3   OH237831   0.228   2.748   3.784  0.1526 -0.3712  0.0197
 5447TIP3    H137832   0.168   2.817   3.758 -1.1408 -1.9784 -1.5190
 5447TIP3    H237833   0.188   2.710   3.863  0.9461  0.6679  0.9596
 5448TIP3   OH237834   2.542   1.935   3.324  0.4688  0.3795 -0.2969
 5448TIP3    H137835   2.545   1.842   3.346 -2.5200  0.2647  0.0767
 5448TIP3    H237836   2.552   1.980   3.408 -0.2245  0.2908 -0.1580
 5449TIP3   OH237837   4.423   5.595   4.896  0.1862  0.0435 -0.0157
 5449TIP3    H137838   4.410   5.610   4.990  0.1838  0.0945 -0.0243
 5449TIP3    H237839   4.496   5.652   4.872 -1.4275  1.9780 -0.5849
 5450TIP3   OH237840   3.341   2.985   1.212 -0.2740 -0.0157  0.1639
 5450TIP3    H137841   3.307   2.921   1.149  1.7699 -0.5541 -0.4400
 5450TIP3    H237842   3.275   3.054   1.213 -1.6490 -1.2594 -0.5297
 5451TIP3   OH237843   2.734   2.970   5.985 -0.1679 -0.1474 -0.6634
 5451TIP3    H137844   2.695   2.970   5.897 -1.6174  2.9486 -0.1299
 5451TIP3    H237845   2.660   2.958   6.044  0.2270  1.6079  0.2383
 5452TIP3   OH237846   0.328   4.189   0.662  0.8803  0.0952 -0.5867
 5452TIP3    H137847   0.382   4.142   0.726  0.0882  0.4821  0.3911
 5452TIP3    H237848   0.272   4.246   0.715  1.2216  1.5295 -1.6875
 5453TIP3   OH237849   2.257   4.653   3.232 -0.4708 -0.1225  0.4262
 5453TIP3    H137850   2.255   4.681   3.323  1.7653  0.9641  0.1989
 5453TIP3    H237851   2.309   4.572   3.233 -3.4398 -2.1770  0.5176
 5454TIP3   OH237852   0.719   6.252  15.370 -0.1196  0.3540  0.1395
 5454TIP3    H137853   0.672   6.195  15.431 -1.4437  0.4762 -0.7268
 5454TIP3    H237854   0.810   6.248  15.399 -0.1986 -2.0640  0.2050
 5455TIP3   OH237855   2.569   2.876  13.909  0.1529 -0.3474  0.5609
 5455TIP3    H137856   2.567   2.908  13.819  0.5423  1.4013  1.1209
 5455TIP3    H237857   2.519   2.795  13.907 -0.5914  0.1029 -1.0632
 5456TIP3   OH237858   5.004   4.998   3.022 -0.1763 -0.1200 -0.2111
 5456TIP3    H137859   5.012   5.083   3.065 -2.1208  0.1752 -0.3332
 5456TIP3    H237860   4.915   4.970   3.042  0.2788 -1.9230 -0.5622
 5457TIP3   OH237861   3.510   0.412   4.539  0.3360 -0.1993 -0.9091
 5457TIP3    H137862   3.421   0.394   4.567  0.4084  0.8639  0.0619
 5457TIP3    H237863   3.564   0.400   4.617  0.6730  1.8164 -0.7849
 5458TIP3   OH237864   4.946   6.009  16.968 -0.1850  0.6172  0.1691
 5458TIP3    H137865   4.913   6.055  17.045 -1.7653  0.1078 -0.1663
 5458TIP3    H237866   4.943   5.917  16.991  0.5503  0.5313 -0.0573
 5459TIP3   OH237867   2.063   4.502   4.640 -0.3094 -0.6154 -0.1644
 5459TIP3    H137868   2.128   4.439   4.611  0.9975  0.3216  0.6053
 5459TIP3    H237869   2.026   4.537   4.560 -1.6202 -2.8517 -0.6201
 5460TIP3   OH237870   1.927   6.552  16.982 -0.0979 -0.3568 -0.4042
 5460TIP3    H137871   1.930   6.599  17.065 -1.2231  0.3171 -0.7285
 5460TIP3    H237872   1.835   6.556  16.955  0.1342 -1.0993 -1.3788
 5461TIP3   OH237873   1.739   5.447   1.319 -0.0573  0.1956 -0.1693
 5461TIP3    H137874   1.765   5.505   1.391 -3.7829  2.0755 -0.1312
 5461TIP3    H237875   1.695   5.374   1.362 -1.9820  1.1510 -0.4378
 5462TIP3   OH237876   4.943   5.933   1.675 -0.5852 -0.2255  0.4611
 5462TIP3    H137877   5.010   5.940   1.742 -0.1715 -1.0099  0.1371
 5462TIP3    H237878   4.950   6.014   1.625 -0.0910 -0.1682  0.6228
 5463TIP3   OH237879   4.475   4.342  14.639 -0.9141 -0.2505 -0.4828
 5463TIP3    H137880   4.440   4.431  14.647 -1.5319 -0.4989 -0.3398
 5463TIP3    H237881   4.459   4.302  14.725 -0.1290 -0.3236 -0.3628
 5464TIP3   OH237882   5.121   1.589   4.899 -0.1947 -0.3670 -0.2645
 5464TIP3    H137883   5.065   1.519   4.934 -0.9140  0.2575 -0.1306
 5464TIP3    H237884   5.190   1.543   4.852 -0.8158 -1.1626 -0.4228
 5465TIP3   OH237885   4.194   2.517   4.368 -0.0616 -0.0940  0.1360
 5465TIP3    H137886   4.190   2.561   4.284 -0.4752  0.4216  0.4192
 5465TIP3    H237887   4.278   2.471   4.368 -0.6698 -1.2749 -1.1332
 5466TIP3   OH237888   2.993   6.660  15.008  0.1919  0.2264  0.1550
 5466TIP3    H137889   2.959   6.710  14.935 -0.1990 -0.1600  0.0710
 5466TIP3    H237890   3.074   6.705  15.032  1.0448 -0.4162 -1.3840
 5467TIP3   OH237891   3.748   6.691  11.449 -0.2484 -0.5390 -0.2145
 5467TIP3    H137892   3.797   6.771  11.432 -1.3170  0.2134  0.1585
 5467TIP3    H237893   3.698   6.675  11.368 -0.5783 -0.4270 -0.0355
 5468TIP3   OH237894   4.173   3.703  13.082 -0.0880 -0.1844  0.0144
 5468TIP3    H137895   4.084   3.725  13.112  0.4258  0.5689  1.0710
 5468TIP3    H237896   4.195   3.623  13.128 -0.2006 -0.3550 -0.2253
 5469TIP3   OH237897   6.380   2.623  11.954 -0.1682 -0.0155  0.1069
 5469TIP3    H137898   6.334   2.647  12.034  0.9432  0.8153  0.5195
 5469TIP3    H237899   6.402   2.706  11.913 -0.7407 -0.4380 -1.0824
 5470TIP3   OH237900   3.737   4.813  15.497  0.3433 -0.1394  0.0827
 5470TIP3    H137901   3.671   4.882  15.491 -0.5793 -1.0315 -0.3662
 5470TIP3    H237902   3.773   4.821  15.585 -0.6072  0.1640  0.4561
 5471TIP3   OH237903   0.884   5.574   3.676 -0.7888  0.0416  0.2904
 5471TIP3    H137904   0.832   5.593   3.754  1.6022  0.2052  1.9438
 5471TIP3    H237905   0.943   5.504   3.702 -0.0720 -0.0618 -1.4468
 5472TIP3   OH237906   5.674   2.564   0.296  0.3404 -1.0223 -0.2528
 5472TIP3    H137907   5.659   2.502   0.224 -1.0540 -0.5463 -0.4042
 5472TIP3    H237908   5.586   2.581   0.330  1.0818 -2.6060  2.7413
 5473TIP3   OH237909   1.911   5.789  13.276  0.1359  0.2206 -0.1543
 5473TIP3    H137910   1.972   5.835  13.218 -1.2483  1.1876 -0.9005
 5473TIP3    H237911   1.959   5.779  13.358  1.4795  0.4695 -0.8699
 5474TIP3   OH237912   5.627   5.149  12.171 -0.6386  0.2609  0.2150
 5474TIP3    H137913   5.695   5.091  12.206 -1.4741 -1.3878 -0.7516
 5474TIP3    H237914   5.667   5.236  12.171  0.5115 -0.2064  2.1424
 5475TIP3   OH237915   6.695   1.948  14.291  0.5560  0.3226  0.5812
 5475TIP3    H137916   6.710   2.043  14.293  0.1899  0.4628 -1.1968
 5475TIP3    H237917   6.782   1.911  14.277  0.5643  0.4655  0.2499
 5476TIP3   OH237918   5.244   5.529  16.549  0.6010 -0.2685 -0.4829
 5476TIP3    H137919   5.209   5.465  16.611  1.6375 -0.3916  0.0053
 5476TIP3    H237920   5.250   5.482  16.466  0.6033 -0.5583 -0.3215
 5477TIP3   OH237921   5.390   2.187   2.711 -0.0017  0.1915 -0.1655
 5477TIP3    H137922   5.485   2.202   2.712 -0.0938  0.8332  0.6844
 5477TIP3    H237923   5.353   2.272   2.686 -0.3269 -0.3257 -1.5092
 5478TIP3   OH237924   0.701   1.774  14.623 -0.3651 -0.3267 -0.4118
 5478TIP3    H137925   0.750   1.752  14.544  1.1808 -1.8488  0.9015
 5478TIP3    H237926   0.726   1.864  14.643 -0.0721 -0.2433 -1.1320
 5479TIP3   OH237927   4.062   0.797   5.964  0.2957 -0.3480  0.1148
 5479TIP3    H137928   4.013   0.715   5.962 -3.8624  1.9244 -0.6572
 5479TIP3    H237929   4.073   0.821   5.872 -1.7661  1.6020  0.3028
 5480TIP3   OH237930   1.984   0.618   6.041 -0.0258 -0.0255  0.3899
 5480TIP3    H137931   2.018   0.554   6.104  0.8215 -1.0444 -1.0312
 5480TIP3    H237932   2.019   0.702   6.071  1.6704 -0.7031  0.4135
 5481TIP3   OH237933   3.558   2.533  15.801 -0.0261  0.2821 -0.4274
 5481TIP3    H137934   3.645   2.543  15.763  0.7453 -1.4670  0.7177
 5481TIP3    H237935   3.512   2.472  15.743 -0.0387  0.2545 -0.3891
 5482TIP3   OH237936   1.926   6.512  11.742 -1.0629  0.0389 -0.3154
 5482TIP3    H137937   1.943   6.423  11.773 -1.8492  0.0338  0.1414
 5482TIP3    H237938   1.991   6.527  11.674  0.8647  0.1208  1.4572
 5483TIP3   OH237939   3.361   2.153  13.002  0.1929 -0.3765  0.0642
 5483TIP3    H137940   3.330   2.190  12.920  0.0498  1.4806  0.9203
 5483TIP3    H237941   3.300   2.081  13.021  0.2281 -0.8215 -1.4151
 5484TIP3   OH237942   4.826   4.222  12.522  0.7396 -0.0256 -0.1885
 5484TIP3    H137943   4.795   4.187  12.606 -1.3087  0.6462 -0.5903
 5484TIP3    H237944   4.879   4.297  12.546 -0.3354  0.5355  0.5296
 5485TIP3   OH237945   3.176   5.816   0.105 -0.4853  0.0082 -0.1379
 5485TIP3    H137946   3.096   5.867   0.107 -1.2702 -1.1949  0.0867
 5485TIP3    H237947   3.202   5.809   0.198  0.8113  1.7605 -0.3133
 5486TIP3   OH237948   0.670   2.518   0.981  0.3292  0.0835  0.1485
 5486TIP3    H137949   0.652   2.558   0.896  1.8783  0.0503 -0.2140
 5486TIP3    H237950   0.586   2.522   1.027  0.0429  2.3113 -0.4539
 5487TIP3   OH237951   0.081   2.680   0.494  0.1837  0.3521  0.2929
 5487TIP3    H137952   0.082   2.649   0.404 -1.0904  0.4414  0.2246
 5487TIP3    H237953   0.001   2.733   0.500  1.5781  2.5388  0.7711
 5488TIP3   OH237954   4.941   5.485   0.583  0.5577  0.1583 -0.1485
 5488TIP3    H137955   4.930   5.447   0.671 -0.4127 -1.7143 -1.0275
 5488TIP3    H237956   4.888   5.565   0.585  0.8913  0.3798  1.0742
 5489TIP3   OH237957   2.932   4.865  11.548  0.1983 -0.7383  0.4296
 5489TIP3    H137958   2.922   4.796  11.482 -0.6422  0.7335 -1.0528
 5489TIP3    H237959   2.842   4.886  11.574  0.2137  1.7440 -1.2749
 5490TIP3   OH237960   6.438   3.599   6.201  0.1530 -0.6436  0.0621
 5490TIP3    H137961   6.484   3.595   6.118 -0.3074 -1.8935 -0.1609
 5490TIP3    H237962   6.394   3.514   6.208 -0.3860 -0.2910  1.2490
 5491TIP3   OH237963   5.515   2.565   2.975 -0.1406 -0.2361  0.8343
 5491TIP3    H137964   5.587   2.559   2.912  0.5763  0.2251  1.5840
 5491TIP3    H237965   5.444   2.514   2.936  0.3584 -0.1277 -0.2372
 5492TIP3   OH237966   6.552   4.153   0.682  0.5735 -0.0803 -1.1420
 5492TIP3    H137967   6.613   4.098   0.731  1.2719  1.1836 -0.5382
 5492TIP3    H237968   6.609   4.208   0.627 -0.0639  0.5093 -1.2214
 5493TIP3   OH237969   0.693   6.111   1.043 -0.4085 -0.0992  0.2878
 5493TIP3    H137970   0.721   6.202   1.030  0.8405 -0.6039 -0.8269
 5493TIP3    H237971   0.698   6.072   0.956 -2.4565 -0.8707  0.4549
 5494TIP3   OH237972   6.726   5.291  13.277 -0.2335 -0.3579  0.1657
 5494TIP3    H137973   6.658   5.242  13.230  0.5142 -0.1388 -1.1823
 5494TIP3    H237974   6.791   5.312  13.211  0.5330  0.5710  1.1754
 5495TIP3   OH237975   2.193   6.005   5.968 -0.1805  0.5898 -0.4373
 5495TIP3    H137976   2.106   5.993   6.006  0.3317 -1.8523  0.1460
 5495TIP3    H237977   2.182   5.982   5.876 -0.1650  0.2713 -0.3616
 5496TIP3   OH237978   5.262   0.705   1.369 -0.0598 -0.4473  0.1019
 5496TIP3    H137979   5.250   0.798   1.390  1.1412 -0.1894 -0.2985
 5496TIP3    H237980   5.323   0.673   1.436 -0.6633 -1.0236  0.3925
 5497TIP3   OH237981   5.908   4.185   6.938  0.2217  0.2334  0.2356
 5497TIP3    H137982   5.898   4.233   6.856  1.2343 -1.0560 -0.6964
 5497TIP3    H237983   5.953   4.245   6.997  2.8757 -0.0114 -1.3958
 5498TIP3   OH237984   3.363   6.109  12.694 -0.1525  0.3677  0.5244
 5498TIP3    H137985   3.293   6.064  12.740  1.4335 -2.2207  0.5931
 5498TIP3    H237986   3.443   6.082  12.738  1.1066  1.1401 -1.1473
 5499TIP3   OH237987   2.052   2.896  10.833 -0.0337  0.6813 -0.0387
 5499TIP3    H137988   2.024   2.927  10.919  0.3041  1.4716 -0.2014
 5499TIP3    H237989   2.123   2.835  10.852 -2.3986 -2.1216  0.4288
 5500TIP3   OH237990   2.975   3.383   1.815 -0.5989  0.2751 -0.1893
 5500TIP3    H137991   2.928   3.441   1.876 -0.5454  0.4361 -0.3001
 5500TIP3    H237992   3.007   3.442   1.747 -0.8767  0.0592 -0.5083
 5501TIP3   OH237993   5.134   4.720  17.251  0.3038 -0.6446 -0.5007
 5501TIP3    H137994   5.193   4.677  17.313  0.1656 -0.9820 -0.5997
 5501TIP3    H237995   5.066   4.760  17.305  1.2150  0.6934 -0.3025
 5502TIP3   OH237996   5.777   3.896   3.005 -0.5348 -0.4415 -0.2950
 5502TIP3    H137997   5.786   3.910   3.099 -0.7523 -3.0622  0.1949
 5502TIP3    H237998   5.859   3.928   2.968 -0.8155  1.4512  0.6433
 5503TIP3   OH237999   0.387   1.185  11.693 -0.1522 -0.2396 -0.4785
 5503TIP3    H138000   0.373   1.172  11.599  2.4423  0.7338 -1.0811
 5503TIP3    H238001   0.342   1.111  11.734 -1.6856 -0.4777 -2.4322
 5504TIP3   OH238002   3.927   3.060  14.444 -0.0205 -0.1771  0.0799
 5504TIP3    H138003   3.926   2.966  14.431 -0.9837 -0.3589  1.3461
 5504TIP3    H238004   3.976   3.094  14.369 -0.6969 -1.5651 -1.0296
 5505TIP3   OH238005   2.895   6.511   5.828  0.1699  0.0519 -0.0698
 5505TIP3    H138006   2.931   6.494   5.915  1.5885  0.4029 -0.5652
 5505TIP3    H238007   2.881   6.605   5.826  0.4387  0.0876 -0.3227
 5506TIP3   OH238008   3.641   6.677   4.040  0.0351  0.0224  0.2098
 5506TIP3    H138009   3.546   6.672   4.041 -0.0867  1.7674 -0.1425
 5506TIP3    H238010   3.664   6.694   3.949  0.5836  0.8697  0.4906
 5507TIP3   OH238011   3.089   4.917  14.015 -0.3959  0.3069 -0.6752
 5507TIP3    H138012   3.009   4.958  14.050  0.3877  2.0250 -0.7843
 5507TIP3    H238013   3.111   4.971  13.939  1.7338  0.8834  0.2736
 5508TIP3   OH238014   2.481   4.125   1.713  0.3666 -0.5449 -0.1645
 5508TIP3    H138015   2.575   4.126   1.734  0.6039  0.0281 -1.1711
 5508TIP3    H238016   2.462   4.034   1.691  0.9082 -0.4945 -0.8580
 5509TIP3   OH238017   5.460   2.667   2.475 -0.3206  0.1314 -0.3983
 5509TIP3    H138018   5.397   2.713   2.420  2.2751  1.6420 -2.3182
 5509TIP3    H238019   5.447   2.574   2.454 -2.0508  0.3728 -0.5050
 5510TIP3   OH238020   2.532   2.851   2.326  0.0295  0.0623  0.5580
 5510TIP3    H138021   2.537   2.787   2.396 -1.2697 -0.1651  0.4620
 5510TIP3    H238022   2.621   2.887   2.320  0.4089 -0.6614  1.5974
 5511TIP3   OH238023   4.348   5.620  12.104 -0.1957 -0.4018 -0.1714
 5511TIP3    H138024   4.289   5.659  12.168 -1.7361 -0.3461 -1.5373
 5511TIP3    H238025   4.290   5.568  12.047  1.1871 -0.9737 -1.1120
 5512TIP3   OH238026   1.077   1.076   0.712 -0.0540 -0.3663 -0.3680
 5512TIP3    H138027   1.141   1.040   0.774  1.5291 -0.1951 -1.8216
 5512TIP3    H238028   1.104   1.042   0.627 -1.8546 -0.1750 -1.0581
 5513TIP3   OH238029   5.917   4.894  14.187 -0.3418 -0.3645 -0.6976
 5513TIP3    H138030   6.000   4.847  14.177  0.0476  0.5580 -2.0483
 5513TIP3    H238031   5.853   4.837  14.145 -0.3549 -0.9191  0.0476
 5514TIP3   OH238032   2.470   6.489  11.037  0.8898  0.7524 -0.1927
 5514TIP3    H138033   2.476   6.474  10.943  0.0725  0.8068 -0.2624
 5514TIP3    H238034   2.428   6.411  11.072  0.8792  0.8747  0.0775
 5515TIP3   OH238035   5.534   1.480  11.246 -0.2594  0.4726  0.0960
 5515TIP3    H138036   5.449   1.444  11.222 -0.4342  2.2128 -2.2524
 5515TIP3    H238037   5.590   1.403  11.256 -1.6355 -0.6259 -0.3429
 5516TIP3   OH238038   0.092   0.663  13.698 -0.3292  0.1578 -0.2480
 5516TIP3    H138039   0.065   0.591  13.755  0.1994 -0.2265 -0.4804
 5516TIP3    H238040   0.174   0.695  13.735  1.5956 -1.9767 -2.3733
 5517TIP3   OH238041   3.381   4.466   3.253 -0.1886  0.0539 -0.2546
 5517TIP3    H138042   3.417   4.419   3.328 -1.1148 -2.1308 -1.0859
 5517TIP3    H238043   3.296   4.499   3.282  0.5035  1.3624  0.3595
 5518TIP3   OH238044   0.348   5.012  16.234 -0.2053 -0.7290  0.5178
 5518TIP3    H138045   0.402   5.061  16.296 -0.4146 -0.4495  0.4859
 5518TIP3    H238046   0.304   4.946  16.287 -0.7346 -0.1967  0.7558
 5519TIP3   OH238047   5.544   4.930  14.122 -0.0821 -0.5452 -0.7886
 5519TIP3    H138048   5.491   4.939  14.201  0.7417 -1.0796 -0.1548
 5519TIP3    H238049   5.589   4.846  14.132 -0.8662 -1.1939 -2.3940
 5520TIP3   OH238050   5.494   0.914   2.060 -0.1589 -0.3709  0.2999
 5520TIP3    H138051   5.485   0.986   1.997 -2.3291  0.4824  1.4591
 5520TIP3    H238052   5.568   0.940   2.115 -0.5930  0.7622  0.3815
 5521TIP3   OH238053   0.642   5.233  13.338  0.0956 -0.2369 -0.0302
 5521TIP3    H138054   0.651   5.319  13.298 -1.9723 -0.4605 -1.1056
 5521TIP3    H238055   0.587   5.184  13.278  1.6788 -2.5505  0.2495
 5522TIP3   OH238056   1.904   0.690  12.785 -0.0197  0.8551 -0.3675
 5522TIP3    H138057   1.927   0.696  12.692 -1.3226  1.6533 -0.6632
 5522TIP3    H238058   1.986   0.709  12.831  0.1358  2.9352 -1.3755
 5523TIP3   OH238059   1.153   3.267   1.341  0.0498 -0.2473 -0.0728
 5523TIP3    H138060   1.165   3.316   1.422  0.0934  1.5711 -1.1213
 5523TIP3    H238061   1.117   3.183   1.368 -0.6965  0.6269  1.7644
 5524TIP3   OH238062   4.334   0.968   2.063  0.0801 -0.0663  0.1904
 5524TIP3    H138063   4.366   0.881   2.090  1.6835  0.7139  0.9235
 5524TIP3    H238064   4.290   0.952   1.980 -1.8552 -1.9757  1.4550
 5525TIP3   OH238065   2.419   2.831  13.243 -0.1066 -0.1767 -0.0056
 5525TIP3    H138066   2.505   2.833  13.202  0.3339 -1.8279  0.7538
 5525TIP3    H238067   2.387   2.921  13.237  0.6047 -0.0173 -2.5128
 5526TIP3   OH238068   1.243   1.483   1.225  0.2032  0.9615 -0.3534
 5526TIP3    H138069   1.259   1.449   1.313  0.7244 -0.1424 -0.8508
 5526TIP3    H238070   1.196   1.413   1.181 -1.8457  2.2823 -0.3892
 5527TIP3   OH238071   2.401   4.637   2.126 -0.0469 -0.7239 -0.0090
 5527TIP3    H138072   2.407   4.559   2.181  1.9864 -1.6510 -1.4169
 5527TIP3    H238073   2.459   4.700   2.169 -0.4163 -0.5454  0.2373
 5528TIP3   OH238074   4.433   1.362  11.086 -0.5041  0.1280  0.0794
 5528TIP3    H138075   4.528   1.362  11.087 -0.4512 -0.9604 -1.5631
 5528TIP3    H238076   4.409   1.430  11.023 -0.8563  0.8144  0.9245
 5529TIP3   OH238077   0.969   3.059   0.861  0.1573  0.7049 -0.0735
 5529TIP3    H138078   1.056   3.065   0.821  0.7693  0.8254  1.2219
 5529TIP3    H238079   0.931   3.146   0.848  0.5050  0.8640 -0.0454
 5530TIP3   OH238080   6.601   6.384  11.440  0.2410  0.0469 -0.6039
 5530TIP3    H138081   6.628   6.365  11.350  1.2885 -0.6099 -0.1703
 5530TIP3    H238082   6.505   6.380  11.438  0.2656 -2.9187 -1.1069
 5531TIP3   OH238083   3.471   6.271   3.469  0.6606 -0.1579 -0.3165
 5531TIP3    H138084   3.403   6.203   3.472 -1.1912  1.5357 -1.3026
 5531TIP3    H238085   3.450   6.329   3.542  0.6960  0.6746 -0.9546
 5532TIP3   OH238086   6.428   5.457  13.125  0.6348 -0.0701  0.5041
 5532TIP3    H138087   6.467   5.373  13.150  0.9183 -0.9145 -2.4004
 5532TIP3    H238088   6.395   5.443  13.036 -3.4391  1.5982  1.5310
 5533TIP3   OH238089   1.443   6.293  14.962  0.1979  0.5868 -0.2158
 5533TIP3    H138090   1.446   6.323  15.053  1.8814  0.2775 -0.1286
 5533TIP3    H238091   1.353   6.309  14.934 -0.3244  0.7888  1.4648
 5534TIP3   OH238092   2.429   6.611   0.151 -0.0276  0.8406  0.0738
 5534TIP3    H138093   2.375   6.682   0.117  0.3244  0.1660 -2.0329
 5534TIP3    H238094   2.472   6.648   0.228  0.3126  2.9823 -1.0811
 5535TIP3   OH238095   6.426   2.517   5.610 -0.0167  0.6337 -0.6137
 5535TIP3    H138096   6.507   2.487   5.568  0.4600  1.1381 -0.0445
 5535TIP3    H238097   6.434   2.489   5.701 -0.9091 -0.1558 -0.7529
 5536TIP3   OH238098   0.202   3.863  11.589  0.2048 -0.2077 -0.5356
 5536TIP3    H138099   0.241   3.947  11.565  0.5005 -0.2278 -0.1494
 5536TIP3    H238100   0.128   3.853  11.530  0.5516  0.0221 -1.0156
 5537TIP3   OH238101   6.243   6.094   1.914 -0.4847 -0.2821  0.1140
 5537TIP3    H138102   6.161   6.050   1.894 -0.8062  0.3563 -0.0217
 5537TIP3    H238103   6.224   6.146   1.992 -0.8130  1.4155 -1.0427
 5538TIP3   OH238104   2.063   4.149  11.722 -0.2848 -0.2453 -0.1820
 5538TIP3    H138105   2.063   4.053  11.725  0.5600 -0.2704 -0.6453
 5538TIP3    H238106   2.078   4.170  11.630  0.5009  0.3255  0.0654
 5539TIP3   OH238107   4.947   4.732   1.753 -0.0429  0.9026 -0.2247
 5539TIP3    H138108   4.942   4.652   1.806  1.7039  0.5553 -0.5370
 5539TIP3    H238109   4.902   4.798   1.806 -0.5583 -0.0279  0.5314
 5540TIP3   OH238110   3.312   0.666  16.870 -0.2841  0.5535  0.4611
 5540TIP3    H138111   3.275   0.588  16.912  1.9381 -1.2752 -0.7517
 5540TIP3    H238112   3.242   0.700  16.815 -1.7546  0.2957  2.0884
 5541TIP3   OH238113   6.552   3.825   4.747 -0.2106  0.3489  0.4802
 5541TIP3    H138114   6.544   3.912   4.785 -2.6161  1.3738 -2.0451
 5541TIP3    H238115   6.464   3.804   4.715  0.7944 -2.0059 -1.0511
 5542TIP3   OH238116   3.156   6.804  15.436 -0.9728 -0.6506  0.1590
 5542TIP3    H138117   3.168   6.849  15.520 -0.4552 -0.3515 -0.0693
 5542TIP3    H238118   3.066   6.772  15.439 -1.6202  1.0515  0.0151
 5543TIP3   OH238119   4.229   1.441   0.651 -0.1687  0.0365  0.0500
 5543TIP3    H138120   4.323   1.432   0.638 -0.5361 -5.5628 -0.9210
 5543TIP3    H238121   4.195   1.463   0.564  0.1099  0.6936  0.1028
 5544TIP3   OH238122   3.935   5.656  13.072  0.3848 -0.1278  0.4420
 5544TIP3    H138123   3.893   5.718  13.131  0.0859 -0.2919  0.4033
 5544TIP3    H238124   3.948   5.706  12.991 -2.1985 -0.7909 -0.5035
 5545TIP3   OH238125   1.991   2.669  11.689  0.0376 -0.4294 -0.7730
 5545TIP3    H138126   2.011   2.757  11.722 -1.6976 -1.1117  2.4629
 5545TIP3    H238127   2.077   2.626  11.684  0.6069  0.3508  1.1761
 5546TIP3   OH238128   5.545   2.964   1.871  0.1784 -0.2274 -0.3785
 5546TIP3    H138129   5.461   2.964   1.826  0.0444 -0.4963 -0.1312
 5546TIP3    H238130   5.525   2.940   1.961  0.3339  1.1448  0.0457
 5547TIP3   OH238131   3.822   4.299   3.108  0.4130 -0.7086  0.0903
 5547TIP3    H138132   3.763   4.286   3.183  1.6242  0.1304  1.2433
 5547TIP3    H238133   3.880   4.223   3.111 -0.4488 -1.4410 -0.9367
 5548TIP3   OH238134   3.612   1.287  14.841 -0.3628 -0.8785 -0.2473
 5548TIP3    H138135   3.559   1.263  14.918 -1.7335  0.2874 -0.7768
 5548TIP3    H238136   3.697   1.311  14.878 -0.9517 -0.4596  0.9091
 5549TIP3   OH238137   0.599   5.942  14.271  0.3689 -0.6299 -0.2496
 5549TIP3    H138138   0.556   5.862  14.240 -1.7885 -0.5141  2.0862
 5549TIP3    H238139   0.641   5.916  14.353  0.8497  0.3231 -0.1796
 5550TIP3   OH238140   3.999   2.283  11.954  0.0087  0.2448  0.5291
 5550TIP3    H138141   3.928   2.342  11.927  0.5096  0.0976 -1.2692
 5550TIP3    H238142   4.057   2.338  12.005 -0.5243  0.8157  0.5340
 5551TIP3   OH238143   1.622   5.575   2.186 -0.3261 -0.4117  0.2545
 5551TIP3    H138144   1.669   5.659   2.180  0.5693 -0.7896  1.5844
 5551TIP3    H238145   1.545   5.588   2.131  1.3786  0.1675 -2.1797
 5552TIP3   OH238146   6.210   5.395   4.633 -0.4720 -0.1280  0.2497
 5552TIP3    H138147   6.243   5.422   4.718  0.7978 -0.2715 -0.1874
 5552TIP3    H238148   6.166   5.474   4.599 -0.5765  0.0672  0.8345
 5553TIP3   OH238149   1.238   6.137   3.570  0.5840  0.0164 -0.6626
 5553TIP3    H138150   1.221   6.136   3.664 -1.7026  0.2254 -1.0003
 5553TIP3    H238151   1.282   6.054   3.552 -1.5685 -1.4282  0.2388
 5554TIP3   OH238152   3.062   5.369  13.114  0.2680 -0.4442  0.0967
 5554TIP3    H138153   3.115   5.315  13.173  0.5543 -0.2918 -0.0185
 5554TIP3    H238154   3.125   5.426  13.071 -0.1060  0.5060  0.7654
 5555TIP3   OH238155   4.856   3.791  10.304 -0.1256 -0.0713 -1.0919
 5555TIP3    H138156   4.793   3.740  10.254  0.4664 -0.5329 -1.3881
 5555TIP3    H238157   4.879   3.734  10.378 -0.3417  0.2466 -0.7821
 5556TIP3   OH238158   4.194   1.978   4.854 -0.0075  0.3485 -0.0388
 5556TIP3    H138159   4.174   1.959   4.946  1.2140  0.0795  0.1861
 5556TIP3    H238160   4.122   1.938   4.805 -0.1988 -0.2788  0.7365
 5557TIP3   OH238161   6.758   1.737  10.606 -0.6037  0.2018  0.2618
 5557TIP3    H138162   6.678   1.788  10.606 -1.5430 -1.1995  1.3980
 5557TIP3    H238163   6.734   1.653  10.645  1.2740 -0.4929  0.0667
 5558TIP3   OH238164   2.305   6.485  11.938  0.3761 -0.0411  0.2880
 5558TIP3    H138165   2.262   6.422  11.881 -0.8945  0.5840  0.5250
 5558TIP3    H238166   2.234   6.525  11.989  1.1536  1.4305  0.2975
 5559TIP3   OH238167   0.835   0.501   2.900 -0.7622  0.3200 -0.1967
 5559TIP3    H138168   0.754   0.552   2.899 -0.2895  1.1083 -1.9978
 5559TIP3    H238169   0.848   0.476   2.809 -0.3651 -2.0906  0.4548
 5560TIP3   OH238170   5.206   5.187  15.566 -0.1881 -0.0615  0.6137
 5560TIP3    H138171   5.151   5.221  15.636  0.2943  2.3088 -0.0993
 5560TIP3    H238172   5.189   5.243  15.491 -0.0721 -2.0302 -0.9792
 5561TIP3   OH238173   1.132   5.244  14.911  0.1739  0.0017 -0.5690
 5561TIP3    H138174   1.053   5.192  14.926  1.0579 -1.4981 -0.9013
 5561TIP3    H238175   1.123   5.319  14.970  0.3901 -2.2298  2.5138
 5562TIP3   OH238176   5.306   6.609  11.089 -0.5247  0.3315  0.0809
 5562TIP3    H138177   5.372   6.540  11.091  0.4190  1.0973 -2.1214
 5562TIP3    H238178   5.235   6.573  11.036  0.8378  1.6771 -2.8298
 5563TIP3   OH238179   1.453   3.228   6.517  0.2047 -0.3003  0.1900
 5563TIP3    H138180   1.383   3.200   6.575 -0.7284  0.0103 -0.7688
 5563TIP3    H238181   1.432   3.188   6.433  0.1599  1.2830 -0.5837
 5564TIP3   OH238182   0.355   1.372  13.964 -0.3557 -0.2470 -0.2298
 5564TIP3    H138183   0.318   1.305  14.021  0.2983 -1.3109 -1.0162
 5564TIP3    H238184   0.420   1.325  13.911  1.9067  1.4439  0.8795
 5565TIP3   OH238185   3.882   0.553  12.147  0.6534  0.6412  0.2994
 5565TIP3    H138186   3.959   0.592  12.188 -0.0785  0.8894  1.4852
 5565TIP3    H238187   3.827   0.628  12.122  0.5433  0.4550 -0.0204
 5566TIP3   OH238188   5.289   1.954   2.066 -0.7356  0.4834  0.0024
 5566TIP3    H138189   5.381   1.949   2.038 -1.0293 -0.3664 -0.8706
 5566TIP3    H238190   5.291   1.929   2.159 -0.2971 -1.5154 -0.5090
 5567TIP3   OH238191   4.157   2.449  12.115  0.3960  0.0649 -0.4535
 5567TIP3    H138192   4.247   2.479  12.124  0.6554 -0.3392 -1.5573
 5567TIP3    H238193   4.143   2.391  12.190  1.6047 -1.1525 -1.1146
 5568TIP3   OH238194   5.684   4.958   5.503  0.2402  0.1120  0.2537
 5568TIP3    H138195   5.773   4.939   5.531  0.5190  1.4693  0.3525
 5568TIP3    H238196   5.692   5.034   5.446 -0.7161 -0.5367 -0.7899
 5569TIP3   OH238197   1.639   1.165  11.276 -0.4618  0.0738  0.2827
 5569TIP3    H138198   1.566   1.175  11.337  1.1707  1.7585  2.0527
 5569TIP3    H238199   1.687   1.247  11.281  2.6042 -1.5776  0.5963
 5570TIP3   OH238200   5.280   0.274  15.738  0.5084 -0.3295  0.0656
 5570TIP3    H138201   5.221   0.343  15.769  1.5920  0.9021 -0.4992
 5570TIP3    H238202   5.367   0.314  15.743  1.0529 -1.2801 -1.2932
 5571TIP3   OH238203   6.309   0.566  12.921  0.0901 -0.0223  0.2863
 5571TIP3    H138204   6.386   0.575  12.977 -0.0587 -0.3301  0.5425
 5571TIP3    H238205   6.259   0.494  12.960 -0.3604  0.2179  0.1623
 5572TIP3   OH238206   0.606   2.260  13.540 -0.2481 -0.2854 -0.3564
 5572TIP3    H138207   0.645   2.310  13.469 -2.0759  1.3092 -0.3036
 5572TIP3    H238208   0.554   2.193  13.495 -0.3081 -0.1453 -0.4986
 5573TIP3   OH238209   0.893   3.907  15.732 -0.2403 -0.8248  0.0842
 5573TIP3    H138210   0.946   3.947  15.801  0.7036  0.2323 -1.2234
 5573TIP3    H238211   0.933   3.821  15.718 -1.4728 -1.7980  1.9733
 5574TIP3   OH238212   3.591   1.203   1.864 -0.4748 -0.2367 -0.5621
 5574TIP3    H138213   3.615   1.285   1.908  0.2284 -1.3869  1.3475
 5574TIP3    H238214   3.512   1.224   1.815  1.1241  2.2467 -2.3264
 5575TIP3   OH238215   3.206   6.362  16.004  0.5361 -0.0725  0.3485
 5575TIP3    H138216   3.170   6.437  15.956  4.0042 -0.0253 -2.6940
 5575TIP3    H238217   3.269   6.401  16.065 -0.2850 -0.4178  1.4553
 5576TIP3   OH238218   0.861   4.979   0.735 -0.6125 -0.5819 -0.2028
 5576TIP3    H138219   0.797   4.968   0.664  0.8207 -0.1733 -1.6124
 5576TIP3    H238220   0.808   5.007   0.810 -2.3008 -1.9239 -0.8069
 5577TIP3   OH238221   6.611   6.383  15.075 -0.1729  0.1227  1.0362
 5577TIP3    H138222   6.667   6.318  15.033 -1.2277 -0.1103 -0.0861
 5577TIP3    H238223   6.671   6.446  15.112  0.8720 -1.2629  1.7853
 5578TIP3   OH238224   4.762   2.588   5.308 -0.2098  0.1023  0.0469
 5578TIP3    H138225   4.691   2.524   5.306 -0.1192 -0.0134  0.4156
 5578TIP3    H238226   4.727   2.665   5.264  0.2506 -0.7762 -1.9605
 5579TIP3   OH238227   3.197   5.817  15.496  0.5121  0.2718 -0.8037
 5579TIP3    H138228   3.227   5.897  15.540 -2.0666 -0.4522  2.6980
 5579TIP3    H238229   3.264   5.752  15.515  1.2716  0.8816 -1.3010
 5580TIP3   OH238230   6.417   4.895  15.108  0.2371  0.4508 -0.1412
 5580TIP3    H138231   6.419   4.890  15.012  0.1999  0.2416 -0.1315
 5580TIP3    H238232   6.324   4.884  15.130  0.4354 -1.1173  0.0026
 5581TIP3   OH238233   5.796   1.977   3.987 -0.2505 -0.6270  0.1885
 5581TIP3    H138234   5.747   1.975   3.905 -1.3255  1.0786  0.7385
 5581TIP3    H238235   5.761   1.903   4.038 -0.4933 -0.9113 -0.3814
 5582TIP3   OH238236   6.631   0.946  13.265  0.1393 -0.8345  0.2498
 5582TIP3    H138237   6.652   0.988  13.349  1.2034  0.4181 -0.5916
 5582TIP3    H238238   6.544   0.980  13.243  0.8022  0.6495 -0.2038
 5583TIP3   OH238239   5.375   3.038  13.846  0.2971 -0.6416  0.1575
 5583TIP3    H138240   5.447   3.100  13.835  0.6111 -1.1805 -0.9466
 5583TIP3    H238241   5.305   3.089  13.887  0.8643  0.2070  0.0891
 5584TIP3   OH238242   3.375   1.549  14.815 -0.1510 -0.0296  0.6326
 5584TIP3    H138243   3.280   1.563  14.812 -0.0447  0.5450 -0.5604
 5584TIP3    H238244   3.385   1.453  14.815 -0.7176 -0.0934  0.3417
 5585TIP3   OH238245   2.794   0.306   4.822 -0.5471  0.0071  0.4442
 5585TIP3    H138246   2.763   0.234   4.768 -0.8457 -0.4146  1.1631
 5585TIP3    H238247   2.784   0.383   4.768  0.1697 -0.5342 -0.4974
 5586TIP3   OH238248   2.203   5.315  14.224  0.3150 -0.0777 -0.0315
 5586TIP3    H138249   2.187   5.224  14.246  0.6350  0.1028  1.0155
 5586TIP3    H238250   2.123   5.344  14.179 -0.7063 -0.2954  1.5308
 5587TIP3   OH238251   2.895   3.426  13.807 -0.1366 -0.5944  0.4311
 5587TIP3    H138252   2.827   3.369  13.842 -0.2531 -0.7849 -0.1055
 5587TIP3    H238253   2.856   3.465  13.729  0.0757 -0.0689  0.5822
 5588TIP3   OH238254   0.387   3.367   5.885  0.3529 -0.5124 -0.3611
 5588TIP3    H138255   0.458   3.308   5.911 -0.7752 -1.5932  0.3434
 5588TIP3    H238256   0.369   3.418   5.964 -1.5049 -2.1950  0.3989
 5589TIP3   OH238257   3.419   2.388   0.729 -0.6312  0.2017 -0.0826
 5589TIP3    H138258   3.432   2.482   0.729  1.7022 -0.0589 -0.9377
 5589TIP3    H238259   3.366   2.371   0.807 -2.3815  2.3138 -0.7076
 5590TIP3   OH238260   6.792   4.943   1.126 -0.4948 -0.2402 -0.4418
 5590TIP3    H138261   6.862   5.001   1.096 -0.2111  0.0878  0.7923
 5590TIP3    H238262   6.728   5.002   1.167  0.3442 -0.8505  1.8848
 5591TIP3   OH238263   0.342   5.957   4.193 -0.0119 -0.1925 -0.3619
 5591TIP3    H138264   0.332   6.026   4.128  1.1486  1.6531  1.2787
 5591TIP3    H238265   0.252   5.926   4.209 -0.5878  1.0050 -1.0905
 5592TIP3   OH238266   1.748   0.782   0.205  0.6265 -0.0631  0.1536
 5592TIP3    H138267   1.804   0.846   0.249  0.2743  0.8227 -0.6385
 5592TIP3    H238268   1.717   0.725   0.275  1.3985  0.2908  0.8006
 5593TIP3   OH238269   2.026   5.559  13.508 -0.3260  0.2088  0.5160
 5593TIP3    H138270   1.975   5.479  13.495  0.2742 -0.1117  0.0961
 5593TIP3    H238271   2.057   5.554  13.598 -0.2276 -0.0710  0.4656
 5594TIP3   OH238272   5.456   3.481  15.751  0.2203  0.1020  0.5527
 5594TIP3    H138273   5.406   3.464  15.830 -0.1241 -0.6485  0.1801
 5594TIP3    H238274   5.401   3.542  15.701  0.7278  1.0965  1.1584
 5595TIP3   OH238275   3.568   1.378   2.803  0.2899  0.2860  0.4547
 5595TIP3    H138276   3.487   1.425   2.783  0.1805  0.0618  0.3622
 5595TIP3    H238277   3.575   1.383   2.898  0.1445  0.2706  0.4675
 5596TIP3   OH238278   5.717   4.341   5.741  0.1039  0.0181 -0.3221
 5596TIP3    H138279   5.635   4.350   5.789  0.6867  1.0949  0.5078
 5596TIP3    H238280   5.750   4.254   5.766  0.5628  0.6888  1.5279
 5597TIP3   OH238281   0.112   1.909  11.933  0.4920  0.2588 -0.2993
 5597TIP3    H138282   0.199   1.942  11.954  1.1606 -0.2409 -2.1183
 5597TIP3    H238283   0.123   1.814  11.929  0.3524  0.2854 -2.3997
 5598TIP3   OH238284   5.204   0.526  13.513 -0.1448 -0.0081 -0.2314
 5598TIP3    H138285   5.282   0.582  13.505 -0.2023 -0.1431 -2.0820
 5598TIP3    H238286   5.196   0.483  13.428  0.1580 -3.2577  1.2305
 5599TIP3   OH238287   4.658   4.472   5.264 -0.0202  0.0000 -0.3509
 5599TIP3    H138288   4.751   4.482   5.287 -0.2888  1.1974  0.3153
 5599TIP3    H238289   4.653   4.387   5.222  1.5383  0.2686 -1.1661
 5600TIP3   OH238290   4.062   3.269  16.572 -0.4249 -0.3369 -0.0622
 5600TIP3    H138291   4.058   3.281  16.477  0.9651 -0.7730 -0.1979
 5600TIP3    H238292   3.971   3.251  16.597 -0.8484 -0.0101 -1.2699
 5601TIP3   OH238293   1.203   3.427  16.785 -0.2499 -1.0941  0.0188
 5601TIP3    H138294   1.195   3.339  16.747 -2.5145 -1.4189  1.1002
 5601TIP3    H238295   1.242   3.480  16.715 -2.9529 -1.9774 -2.3545
 5602TIP3   OH238296   2.932   0.941   5.472  0.7319  0.5145 -0.1254
 5602TIP3    H138297   2.905   1.021   5.426 -0.7757  0.2439  0.2254
 5602TIP3    H238298   2.850   0.898   5.495  1.3874  0.5353  2.6190
 5603TIP3   OH238299   3.980   1.684   5.574 -0.1314  0.1480 -0.1301
 5603TIP3    H138300   3.984   1.721   5.662 -0.8384  0.9550 -0.4281
 5603TIP3    H238301   4.000   1.591   5.587  0.4863  0.3887  0.7820
 5604TIP3   OH238302   3.409   0.565  14.909  0.4821 -0.0515  0.4821
 5604TIP3    H138303   3.421   0.479  14.949 -1.9171  0.1062  1.7306
 5604TIP3    H238304   3.350   0.549  14.835 -0.2929  0.5607  0.9585
 5605TIP3   OH238305   3.494   1.361   5.375 -0.1376  0.1395  0.2464
 5605TIP3    H138306   3.585   1.389   5.380 -0.4197  1.0419  0.6335
 5605TIP3    H238307   3.493   1.291   5.310  1.1608 -1.2809  1.6707
 5606TIP3   OH238308   0.747   1.796   5.528 -0.3012 -0.3287  0.1803
 5606TIP3    H138309   0.778   1.843   5.606  0.2901  0.4545 -0.5130
 5606TIP3    H238310   0.652   1.809   5.530 -0.1923  0.5293  0.2496
 5607TIP3   OH238311   3.329   1.003   6.101 -0.7421 -0.0967 -0.8033
 5607TIP3    H138312   3.377   0.921   6.115 -0.5690  0.1461  0.1367
 5607TIP3    H238313   3.332   1.046   6.187 -1.5800  0.4903 -1.0651
 5608TIP3   OH238314   5.985   0.442  11.661  0.6517 -0.2966 -0.4429
 5608TIP3    H138315   5.988   0.536  11.646  0.5601 -0.0781  0.8113
 5608TIP3    H238316   5.901   0.415  11.626  0.8844 -0.0053 -1.2542
 5609TIP3   OH238317   1.194   0.878  16.760 -0.2828  0.0885 -0.0994
 5609TIP3    H138318   1.108   0.889  16.721 -2.3506 -2.4108  3.1251
 5609TIP3    H238319   1.233   0.804  16.713 -1.0330 -0.3768 -0.0039
 5610TIP3   OH238320   6.679   1.388   3.788  0.3699  0.4063 -0.4345
 5610TIP3    H138321   6.628   1.429   3.858  0.9926 -0.7718  0.7664
 5610TIP3    H238322   6.731   1.458   3.751  0.6223  0.9245  0.8446
 5611TIP3   OH238323   2.184   3.236  11.895  0.2248 -0.2216 -0.7292
 5611TIP3    H138324   2.258   3.213  11.839 -0.7864 -0.0152 -2.2154
 5611TIP3    H238325   2.191   3.177  11.970  2.1037  0.0703 -0.6294
 5612TIP3   OH238326   1.919   0.939   0.359 -0.3375 -0.2775 -0.4435
 5612TIP3    H138327   2.014   0.945   0.365 -0.4129  1.2669 -0.3174
 5612TIP3    H238328   1.888   1.024   0.392 -1.8271 -1.3339  1.0458
 5613TIP3   OH238329   4.160   2.867  11.462  0.1523 -0.0871 -0.1633
 5613TIP3    H138330   4.083   2.868  11.405  0.2790  1.8317 -0.3673
 5613TIP3    H238331   4.166   2.956  11.496  1.6664 -0.4790  0.7092
 5614TIP3   OH238332   6.783   1.255   0.065 -0.3424 -0.1050  0.1208
 5614TIP3    H138333   6.777   1.161   0.049 -0.4065  0.0436 -0.8004
 5614TIP3    H238334   6.875   1.269   0.087 -0.5989 -0.5582  1.5506
 5615TIP3   OH238335   4.069   0.238   1.458  0.5879  0.0750 -0.3414
 5615TIP3    H138336   4.094   0.213   1.369  1.2072 -1.2036  0.1655
 5615TIP3    H238337   4.145   0.285   1.492  0.6171 -0.0305 -0.2604
 5616TIP3   OH238338   6.177   0.992  11.537 -0.0034  0.2887 -0.5183
 5616TIP3    H138339   6.267   1.024  11.540  0.1159 -0.0980  0.7522
 5616TIP3    H238340   6.186   0.897  11.544 -0.5177  0.2864  0.3272
 5617TIP3   OH238341   1.385   0.866  11.731 -0.3845 -0.3165  0.0887
 5617TIP3    H138342   1.442   0.833  11.661  0.9979 -0.5196  1.2415
 5617TIP3    H238343   1.368   0.957  11.708  0.9907 -0.0476  0.0151
 5618TIP3   OH238344   1.644   6.150  15.274  0.7567  0.1335  0.3546
 5618TIP3    H138345   1.719   6.148  15.333  0.3214 -0.1385  0.9102
 5618TIP3    H238346   1.575   6.193  15.324 -0.0965 -1.4819  0.6553
 5619TIP3   OH238347   0.472   2.747   1.624  0.1933  0.3731  1.0621
 5619TIP3    H138348   0.522   2.665   1.617 -0.7557 -0.2559  1.3585
 5619TIP3    H238349   0.387   2.726   1.586  0.3237  1.5913  0.0323
 5620TIP3   OH238350   0.297   6.404  13.602  0.1176  0.6792 -0.1425
 5620TIP3    H138351   0.224   6.349  13.631 -0.6430  0.7122 -1.8753
 5620TIP3    H238352   0.297   6.478  13.663 -1.7328  1.0114 -0.4776
 5621TIP3   OH238353   1.265   5.033   2.378  0.5305 -0.3104  0.4140
 5621TIP3    H138354   1.240   4.943   2.399  0.7292 -0.3848  0.3364
 5621TIP3    H238355   1.205   5.087   2.429 -0.3373 -0.4709 -0.4144
 5622TIP3   OH238356   4.048   0.828   1.258  0.5260  0.1981 -0.8983
 5622TIP3    H138357   4.057   0.742   1.299  1.1637  0.3114 -0.7820
 5622TIP3    H238358   3.969   0.865   1.296  0.5019 -0.1481 -0.6054
 5623TIP3   OH238359   4.533   5.965  14.126  0.2485  0.5755 -0.7584
 5623TIP3    H138360   4.594   6.034  14.099  0.0056  2.2262  2.3719
 5623TIP3    H238361   4.587   5.886  14.131  1.3685  1.2996 -1.0916
 5624TIP3   OH238362   3.367   2.284  14.059  0.1539  0.0689 -0.1741
 5624TIP3    H138363   3.454   2.272  14.020 -1.1131 -0.6633 -2.9765
 5624TIP3    H238364   3.338   2.195  14.080 -0.7704  0.0906 -1.2951
 5625TIP3   OH238365   1.322   0.668  15.531  0.0106  0.1323 -0.5698
 5625TIP3    H138366   1.289   0.607  15.465 -0.8818  0.7138 -0.6765
 5625TIP3    H238367   1.314   0.754  15.490 -1.4537  0.5985  0.6125
 5626TIP3   OH238368   6.411   0.854   0.956 -0.0601 -0.4559 -0.0407
 5626TIP3    H138369   6.394   0.927   1.016 -0.8859  0.6113 -1.5049
 5626TIP3    H238370   6.413   0.777   1.012  1.1828  0.7063  1.6096
 5627TIP3   OH238371   6.816   0.933   1.068 -0.7598 -0.4411  0.5056
 5627TIP3    H138372   6.780   0.928   1.156  0.1586 -4.1597  0.8439
 5627TIP3    H238373   6.753   0.885   1.013 -0.6294  0.6247 -0.6357
 5628TIP3   OH238374   3.079   0.132   4.581 -0.6284 -0.1192 -0.0862
 5628TIP3    H138375   3.089   0.038   4.565  0.9547 -0.3374  1.7467
 5628TIP3    H238376   2.989   0.142   4.611 -0.4491 -1.2828  0.9171
 5629TIP3   OH238377   5.785   3.435  12.920  0.4923 -0.0320 -0.0415
 5629TIP3    H138378   5.778   3.479  12.835  0.4759 -0.2242 -0.1391
 5629TIP3    H238379   5.866   3.384  12.914 -0.3230 -1.3014 -0.5202
 5630TIP3   OH238380   0.253   4.423  14.721 -0.0678 -0.0400  0.0462
 5630TIP3    H138381   0.309   4.377  14.784  2.1359  2.9977  0.5519
 5630TIP3    H238382   0.206   4.487  14.774 -0.2726  0.7377 -1.0533
 5631TIP3   OH238383   4.683   2.016  14.372 -0.1620  0.0334 -0.5910
 5631TIP3    H138384   4.756   1.957  14.351 -0.2107 -0.0662 -0.4852
 5631TIP3    H238385   4.608   1.958  14.386  0.3029 -0.0903  1.8135
 5632TIP3   OH238386   3.751   3.378   6.588  0.1947 -0.6770 -0.1374
 5632TIP3    H138387   3.754   3.474   6.592  2.7043 -0.6968  0.1347
 5632TIP3    H238388   3.660   3.358   6.566 -0.4276  1.7506 -0.1094
 5633TIP3   OH238389   5.233   3.361  10.906 -0.1178 -0.4305  0.2062
 5633TIP3    H138390   5.309   3.305  10.915 -0.0918 -0.5949 -0.8986
 5633TIP3    H238391   5.246   3.431  10.970  0.1033 -1.3843  1.2282
 5634TIP3   OH238392   6.753   5.265   2.259  0.0438  0.1171 -1.1554
 5634TIP3    H138393   6.703   5.236   2.183 -3.2910 -0.1160  0.9473
 5634TIP3    H238394   6.756   5.188   2.317  3.1934  0.0449 -1.2442
 5635TIP3   OH238395   0.255   3.519  15.649  0.0715  0.0193 -0.2781
 5635TIP3    H138396   0.339   3.563  15.633  0.2115  0.1701  0.8008
 5635TIP3    H238397   0.270   3.465  15.726 -1.2958  1.4452  1.0793
 5636TIP3   OH238398   5.434   5.088  11.297 -0.3922  0.1766  0.0197
 5636TIP3    H138399   5.360   5.110  11.354 -0.3479 -0.8184  0.4939
 5636TIP3    H238400   5.400   5.097  11.208 -0.8506  0.5010  0.2237
 5637TIP3   OH238401   5.500   2.651   3.259 -0.2006 -0.2090 -0.2084
 5637TIP3    H138402   5.426   2.709   3.278  0.0723 -0.1418  0.6544
 5637TIP3    H238403   5.503   2.648   3.163 -0.6825  0.6024 -0.2596
 5638TIP3   OH238404   0.379   3.254   2.806 -0.5151  0.1151 -0.1737
 5638TIP3    H138405   0.369   3.246   2.711  1.5252 -0.5754 -0.3830
 5638TIP3    H238406   0.401   3.347   2.820 -0.8405  0.2233 -0.3767
 5639TIP3   OH238407   1.019   2.655   0.078  0.0935  0.1201 -0.7156
 5639TIP3    H138408   0.934   2.692   0.056 -0.9575 -1.6592  0.1010
 5639TIP3    H238409   1.043   2.604  -0.000 -1.2935 -2.1740  0.2523
 5640TIP3   OH238410   4.518   3.599  17.053 -0.5891  0.2112  0.1888
 5640TIP3    H138411   4.483   3.541  17.120 -1.2238 -1.2946 -1.3632
 5640TIP3    H238412   4.443   3.652  17.025  0.0874  2.2540  1.9408
 5641TIP3   OH238413   5.787   6.191  15.307 -0.7962  0.2393  0.0346
 5641TIP3    H138414   5.697   6.174  15.333 -1.1631  1.1465 -0.5793
 5641TIP3    H238415   5.782   6.207  15.212  0.3710 -2.1930 -0.5182
 5642TIP3   OH238416   1.401   1.392   0.358 -0.3879  0.2671 -0.1998
 5642TIP3    H138417   1.340   1.353   0.296 -0.4720  0.2917 -0.1315
 5642TIP3    H238418   1.455   1.318   0.388 -0.3230  0.2605 -0.3278
 5643TIP3   OH238419   2.212   3.881  15.407 -0.6257 -0.5808 -0.2728
 5643TIP3    H138420   2.295   3.917  15.376 -0.4878 -1.3387 -0.8149
 5643TIP3    H238421   2.188   3.936  15.481  0.6662 -0.7345  0.2838
 5644TIP3   OH238422   1.923   3.042   3.000  0.3469  1.0000  0.1502
 5644TIP3    H138423   1.836   3.053   2.962 -0.1961 -3.3308 -0.3629
 5644TIP3    H238424   1.981   3.035   2.924  0.7232  1.2626  0.4144
 5645TIP3   OH238425   1.558   3.734   4.696  0.1768 -0.2259 -0.4543
 5645TIP3    H138426   1.635   3.762   4.647 -0.8252 -0.6232 -2.3876
 5645TIP3    H238427   1.484   3.764   4.643 -0.9920 -0.5267  0.9425
 5646TIP3   OH238428   2.909   0.823   3.847 -0.3856  0.8944 -0.3969
 5646TIP3    H138429   2.835   0.827   3.908 -0.6225  3.4201 -0.7335
 5646TIP3    H238430   2.873   0.781   3.769 -0.8726  0.2366  0.1615
 5647TIP3   OH238431   3.430   0.682  13.911  0.4463 -0.5855 -0.1088
 5647TIP3    H138432   3.489   0.752  13.940 -0.6843 -0.5561  2.2797
 5647TIP3    H238433   3.365   0.726  13.857  1.2005 -0.2481 -0.7699
 5648TIP3   OH238434   2.870   0.486  16.907 -0.0155 -0.1236 -0.3171
 5648TIP3    H138435   2.917   0.410  16.871  2.9419  0.1792  2.3997
 5648TIP3    H238436   2.867   0.548  16.835  1.8543 -1.0582 -1.2864
 5649TIP3   OH238437   5.896   3.536  15.234  0.1767 -0.0778  0.5322
 5649TIP3    H138438   5.809   3.498  15.239  0.7360 -1.7505 -1.4816
 5649TIP3    H238439   5.919   3.555  15.325 -1.8188 -0.6145  1.1908
 5650TIP3   OH238440   2.924   5.678   2.801  0.1023  0.0795 -0.8123
 5650TIP3    H138441   2.920   5.617   2.874 -0.7399 -0.6340 -1.4322
 5650TIP3    H238442   3.009   5.721   2.810  0.5287 -0.8723 -0.1118
 5651TIP3   OH238443   0.335   3.213   0.707 -0.0019 -0.1235 -0.1615
 5651TIP3    H138444   0.417   3.261   0.709  0.0636 -0.2507  0.5835
 5651TIP3    H238445   0.361   3.121   0.705 -0.1217 -0.1697  0.2783
 5652TIP3   OH238446   2.020   3.465   5.468 -0.4396  0.0141  0.2727
 5652TIP3    H138447   1.994   3.544   5.420  2.0963  1.4313  1.0719
 5652TIP3    H238448   1.981   3.476   5.555  0.6925  0.9386  0.6975
 5653TIP3   OH238449   5.377   0.538   1.615  0.2201  0.3451  0.5181
 5653TIP3    H138450   5.465   0.515   1.645  0.7624  0.0167 -1.2128
 5653TIP3    H238451   5.342   0.594   1.685  1.0675 -1.0129  2.0990
 5654TIP3   OH238452   5.185   6.079  14.769  0.5267 -0.3952  0.0607
 5654TIP3    H138453   5.117   6.125  14.720  0.4163 -0.2676  0.3345
 5654TIP3    H238454   5.267   6.109  14.729  0.4239 -0.5838 -0.2998
 5655TIP3   OH238455   1.738   6.453  12.929  0.2252 -0.1639 -0.2390
 5655TIP3    H138456   1.683   6.517  12.974 -0.3222  1.5977 -3.1144
 5655TIP3    H238457   1.734   6.375  12.983 -1.3658  1.3499  2.0172
 5656TIP3   OH238458   4.595   5.648  12.372  0.1277 -0.1595  0.3673
 5656TIP3    H138459   4.623   5.739  12.383  0.1064 -0.1288  0.1584
 5656TIP3    H238460   4.606   5.630  12.279 -2.0407  0.3484 -0.0462
 5657TIP3   OH238461   1.919   4.144   5.929 -0.3366 -0.4150  0.3352
 5657TIP3    H138462   1.999   4.142   5.877 -0.4792 -1.2164  0.1394
 5657TIP3    H238463   1.924   4.066   5.985 -0.7912 -0.2543  0.6107
 5658TIP3   OH238464   0.313   2.733  12.312 -0.4963 -0.3367  0.2035
 5658TIP3    H138465   0.268   2.818  12.309  1.7116  0.9239 -1.5678
 5658TIP3    H238466   0.275   2.683  12.240 -0.1218  0.1472 -0.3414
 5659TIP3   OH238467   6.568   2.188  13.210  0.0566 -0.2321  0.1778
 5659TIP3    H138468   6.624   2.235  13.148  0.1130 -0.9089 -0.2983
 5659TIP3    H238469   6.480   2.220  13.193  0.1028 -0.2593 -0.1114
 5660TIP3   OH238470   2.485   5.003   0.452  0.2778 -0.1812  0.2821
 5660TIP3    H138471   2.515   4.959   0.531 -1.2474 -0.7511  0.5768
 5660TIP3    H238472   2.403   4.958   0.429  0.7552 -0.1337 -1.7084
 5661TIP3   OH238473   3.810   4.752   6.471  0.1923  0.7470  0.2993
 5661TIP3    H138474   3.881   4.793   6.520  0.8041  0.6037 -0.4483
 5661TIP3    H238475   3.741   4.818   6.470  0.2795  0.8559  1.1008
 5662TIP3   OH238476   0.298   5.749   0.072 -0.7098 -0.2196  0.0887
 5662TIP3    H138477   0.381   5.728   0.116 -0.2341 -0.8323 -1.0681
 5662TIP3    H238478   0.271   5.832   0.111  0.1118 -0.3380  0.9548
 5663TIP3   OH238479   4.651   5.552   1.783 -0.3121  0.1132  0.1020
 5663TIP3    H138480   4.560   5.528   1.801 -0.6761 -0.3129 -2.0236
 5663TIP3    H238481   4.698   5.469   1.777 -0.2318  0.2116 -0.8310
 5664TIP3   OH238482   3.760   2.937   4.520  0.5298 -0.4486 -0.4414
 5664TIP3    H138483   3.704   2.870   4.480  1.5493 -1.9831  0.6054
 5664TIP3    H238484   3.837   2.889   4.551  1.1130  1.1532  0.7315
 5665TIP3   OH238485   5.939   0.963  13.159 -0.6732  0.4665 -0.1547
 5665TIP3    H138486   5.939   1.057  13.145 -0.9873  0.6975  1.1953
 5665TIP3    H238487   5.858   0.946  13.208 -1.1530 -0.6605 -1.2840
 5666TIP3   OH238488   1.220   4.649   3.970 -0.1926  0.0387 -0.3750
 5666TIP3    H138489   1.162   4.724   3.956 -0.1319  0.3006  0.6621
 5666TIP3    H238490   1.247   4.622   3.882  1.4903  2.5636 -0.7173
 5667TIP3   OH238491   3.712   5.748   0.852  0.7751 -0.0755 -0.0978
 5667TIP3    H138492   3.625   5.781   0.873  1.0192  0.6396 -0.1804
 5667TIP3    H238493   3.768   5.776   0.924  1.1825  0.5418 -0.6415
 5668TIP3   OH238494   6.721   5.994   2.592 -0.3447  0.0324  0.2061
 5668TIP3    H138495   6.655   6.007   2.660  1.3466  0.6585  1.7824
 5668TIP3    H238496   6.761   5.910   2.614 -0.4233 -0.2287 -0.6051
 5669TIP3   OH238497   0.895   4.071  11.930 -0.5143  0.0121 -0.1621
 5669TIP3    H138498   0.897   4.080  12.025 -0.5215  1.4388 -0.2726
 5669TIP3    H238499   0.986   4.082  11.903 -0.5017 -0.4550 -0.3256
 5670TIP3   OH238500   1.603   1.335   0.888 -0.6075  0.5516 -0.0179
 5670TIP3    H138501   1.511   1.358   0.876 -0.5016  0.8526 -0.2669
 5670TIP3    H238502   1.602   1.268   0.957 -0.8406  2.0197  1.4673
 5671TIP3   OH238503   0.993   1.964   3.200  0.7006 -0.1085  0.5031
 5671TIP3    H138504   0.968   1.887   3.252  0.7255  0.6946  1.7702
 5671TIP3    H238505   0.921   2.026   3.214  0.4053 -0.0989 -0.9718
 5672TIP3   OH238506   0.182   6.344  15.107  0.0878 -0.0784  0.2264
 5672TIP3    H138507   0.156   6.428  15.145  2.0525  0.1931  1.0888
 5672TIP3    H238508   0.247   6.367  15.041 -0.6108 -0.8360 -0.7555
 5673TIP3   OH238509   2.686   3.700   4.580 -0.2997 -0.2140 -0.4274
 5673TIP3    H138510   2.719   3.634   4.640  0.7861  0.4446 -0.2634
 5673TIP3    H238511   2.630   3.756   4.634  0.5788  0.3078 -0.0219
 5674TIP3   OH238512   3.231   5.627  11.514 -0.5039  0.1449  0.3678
 5674TIP3    H138513   3.189   5.547  11.547 -0.6129 -0.0672 -0.2780
 5674TIP3    H238514   3.323   5.605  11.507 -0.5716 -0.0063 -0.0522
 5675TIP3   OH238515   2.434   4.391   3.452  0.0469 -0.5997 -0.4120
 5675TIP3    H138516   2.351   4.354   3.422  0.5448 -1.1280 -1.1689
 5675TIP3    H238517   2.498   4.360   3.388  0.7017  0.4386 -0.2729
 5676TIP3   OH238518   5.612   0.142   5.501  0.2660 -0.0438 -0.7385
 5676TIP3    H138519   5.577   0.082   5.567  0.4753  0.7763  0.1351
 5676TIP3    H238520   5.703   0.115   5.490  0.3025 -0.0192 -0.5010
 5677TIP3   OH238521   6.749   5.255  14.667 -0.1121 -0.1178  0.8746
 5677TIP3    H138522   6.715   5.199  14.737 -0.0395 -3.1944 -1.3974
 5677TIP3    H238523   6.671   5.283  14.618  0.0797 -1.3989 -0.2049
 5678TIP3   OH238524   1.933   0.656  11.658  0.0052  0.0263  0.4880
 5678TIP3    H138525   1.870   0.584  11.665  0.9507 -1.2873 -2.8007
 5678TIP3    H238526   1.881   0.732  11.636 -0.6567 -0.5518  0.0185
 5679TIP3   OH238527   3.243   0.457  13.154 -0.0544  0.4826 -0.0686
 5679TIP3    H138528   3.274   0.518  13.086  0.6350  1.8928  1.4287
 5679TIP3    H238529   3.258   0.504  13.236 -0.2876 -1.4112  1.1128
 5680TIP3   OH238530   3.641   5.814  12.955 -0.3176  0.1286 -1.0898
 5680TIP3    H138531   3.736   5.799  12.959 -0.0151  0.8462 -3.5299
 5680TIP3    H238532   3.603   5.728  12.974  0.7080  0.1607  1.4892
 5681TIP3   OH238533   3.079   2.239   5.705 -0.5382 -0.4205  1.1747
 5681TIP3    H138534   3.073   2.144   5.711  0.9963 -0.7502 -0.9658
 5681TIP3    H238535   3.021   2.262   5.632 -0.7098  0.2532  1.5201
 5682TIP3   OH238536   6.660   0.396   3.791 -0.2302  0.0118  0.0430
 5682TIP3    H138537   6.752   0.417   3.799 -0.5955  1.7207 -0.0251
 5682TIP3    H238538   6.653   0.351   3.707  0.3914  0.7914 -0.4393
 5683TIP3   OH238539   3.187   2.514  11.277 -0.3167 -0.3766  0.0820
 5683TIP3    H138540   3.146   2.557  11.352  2.7208  0.8725  1.1680
 5683TIP3    H238541   3.226   2.434  11.312 -1.1272 -1.1814 -0.7738
 5684TIP3   OH238542   6.383   3.827  12.364  0.4928  0.1670 -0.1075
 5684TIP3    H138543   6.409   3.800  12.276  0.8022  1.0005 -0.2790
 5684TIP3    H238544   6.371   3.922  12.357  2.8409  0.6342  1.3066
 5685TIP3   OH238545   3.985   6.211   4.547  0.4333 -0.3748  0.1489
 5685TIP3    H138546   3.967   6.266   4.470  3.1790  2.7863  1.5205
 5685TIP3    H238547   3.912   6.227   4.606 -0.3876 -0.7769 -0.7272
 5686TIP3   OH238548   3.682   2.613   3.359  0.0237  0.4975  0.0024
 5686TIP3    H138549   3.726   2.675   3.417  0.5796  1.4888 -1.4297
 5686TIP3    H238550   3.589   2.618   3.384  0.4001  0.0064  1.5837
 5687TIP3   OH238551   3.999   4.525  12.593  0.2722 -0.3578 -0.6177
 5687TIP3    H138552   3.998   4.563  12.506  0.4757 -1.4738 -1.1311
 5687TIP3    H238553   4.083   4.552  12.631  0.2143  0.0700 -0.7980
 5688TIP3   OH238554   2.510   4.634  14.482 -0.9341 -0.0764 -0.1971
 5688TIP3    H138555   2.584   4.692  14.499 -1.2030  0.9890 -2.2554
 5688TIP3    H238556   2.549   4.553  14.451 -0.5965 -0.1899  0.5133
 5689TIP3   OH238557   2.640   5.351   4.024  0.1519  0.1304 -0.2659
 5689TIP3    H138558   2.644   5.308   4.110 -0.3824  1.6039  0.5178
 5689TIP3    H238559   2.714   5.412   4.025 -1.4625  2.1675  0.3035
 5690TIP3   OH238560   5.855   3.148   3.534  0.7090  0.5029  0.3834
 5690TIP3    H138561   5.799   3.179   3.462  2.3386  0.9556 -0.7496
 5690TIP3    H238562   5.881   3.227   3.580  1.1891  0.3952  0.3008
 5691TIP3   OH238563   3.483   5.993   6.095  0.7615 -0.1847 -0.2054
 5691TIP3    H138564   3.412   5.943   6.136  1.7385 -1.3866  0.0645
 5691TIP3    H238565   3.492   6.071   6.151  0.3357 -0.5312  0.3612
 5692TIP3   OH238566   0.857   4.023   0.550 -0.2102  0.9579  0.0318
 5692TIP3    H138567   0.895   3.947   0.595 -0.8327  0.9878  0.6233
 5692TIP3    H238568   0.908   4.031   0.469 -0.3618 -0.3056 -0.2158
 5693TIP3   OH238569   6.642   3.336   2.841 -1.0435  0.6835  0.6732
 5693TIP3    H138570   6.591   3.393   2.898  0.9352  1.6053  1.6515
 5693TIP3    H238571   6.725   3.324   2.887  0.1092  0.2869 -1.3515
 5694TIP3   OH238572   4.255   3.829   0.850 -0.1289  0.2137 -0.2742
 5694TIP3    H138573   4.322   3.786   0.903 -0.3589 -2.5542 -1.9728
 5694TIP3    H238574   4.304   3.879   0.785  0.2917 -0.6242 -0.6174
 5695TIP3   OH238575   6.325   2.509   2.566 -0.2943  0.4038 -0.1947
 5695TIP3    H138576   6.374   2.436   2.601  0.3396  0.3294 -1.1878
 5695TIP3    H238577   6.311   2.568   2.640  0.4921 -0.0181  0.2905
 5696TIP3   OH238578   3.243   5.461   5.227  0.6060  0.0960  0.0397
 5696TIP3    H138579   3.315   5.408   5.194  0.6403  0.8444 -1.1550
 5696TIP3    H238580   3.178   5.398   5.257 -0.8537 -0.8677 -4.4335
 5697TIP3   OH238581   0.063   6.191   5.081  0.1114 -0.0853 -0.4840
 5697TIP3    H138582   0.154   6.160   5.086  1.0144  2.5233  2.6841
 5697TIP3    H238583   0.011   6.117   5.113  1.7375 -0.0671  2.6295
 5698TIP3   OH238584   5.800   3.217   3.977 -0.6061  0.1872  0.4546
 5698TIP3    H138585   5.775   3.284   3.913 -0.5315 -0.3763 -0.1732
 5698TIP3    H238586   5.769   3.135   3.939 -0.9652 -0.1080  1.3614
 5699TIP3   OH238587   6.162   1.239   4.783 -0.6722 -0.1321  0.3488
 5699TIP3    H138588   6.243   1.189   4.784  0.5472  1.7718  0.1757
 5699TIP3    H238589   6.112   1.203   4.857  0.9405 -0.3624  1.3853
 5700TIP3   OH238590   4.374   3.689   0.561  1.1118  0.2710  0.4224
 5700TIP3    H138591   4.454   3.741   0.563  0.9228  0.7231 -1.5819
 5700TIP3    H238592   4.304   3.754   0.550  0.7388 -0.2928 -0.6131
 5701TIP3   OH238593   2.492   1.503  15.243 -0.0029  0.3751  0.3970
 5701TIP3    H138594   2.445   1.469  15.167 -0.1005  1.2409  0.0615
 5701TIP3    H238595   2.575   1.455  15.243  0.2860  0.8389 -0.6717
 5702TIP3   OH238596   4.995   2.044   4.687 -0.0970  0.3622 -0.3531
 5702TIP3    H138597   4.912   2.071   4.725 -1.2009 -3.0238  0.0239
 5702TIP3    H238598   5.029   1.979   4.748  3.4041  2.2889 -0.0147
 5703TIP3   OH238599   3.333   0.459  14.171 -0.7257 -0.1988  0.4767
 5703TIP3    H138600   3.342   0.450  14.076 -2.6242 -0.9160  0.3067
 5703TIP3    H238601   3.244   0.494  14.182  0.2888  2.1108  1.9149
 5704TIP3   OH238602   3.498   5.035  15.213  0.6926 -0.8735  0.5177
 5704TIP3    H138603   3.478   4.988  15.132 -0.3077 -0.2261  0.3727
 5704TIP3    H238604   3.464   4.980  15.282 -0.5166 -0.3779  0.3455
 5705TIP3   OH238605   6.114   2.331  14.828 -0.1227  0.4566  0.4028
 5705TIP3    H138606   6.144   2.391  14.760 -1.3842  1.1443  0.4074
 5705TIP3    H238607   6.194   2.296  14.867  0.6488  1.7428  0.0411
 5706TIP3   OH238608   0.504   4.720   2.203  0.0221 -0.1005  0.0299
 5706TIP3    H138609   0.418   4.707   2.163  0.5818  1.1868 -1.7335
 5706TIP3    H238610   0.493   4.798   2.258  0.2895  0.6750 -0.9962
 5707TIP3   OH238611   0.749   0.078   3.078  0.2642  0.6343  0.3301
 5707TIP3    H138612   0.694   0.010   3.039  1.2666  0.6557 -1.1695
 5707TIP3    H238613   0.728   0.074   3.172  0.0712 -1.5170  0.2424
 5708TIP3   OH238614   5.204   1.712   5.901  0.1171  0.0582  0.4071
 5708TIP3    H138615   5.188   1.800   5.865  0.3833 -0.3491 -0.7475
 5708TIP3    H238616   5.227   1.659   5.825  1.2366 -0.7200  1.2617
 5709TIP3   OH238617   0.046   1.537   0.944  0.2152  0.3127 -0.4698
 5709TIP3    H138618   0.098   1.480   1.000  0.2860 -0.3172 -1.1715
 5709TIP3    H238619  -0.021   1.480   0.906 -2.6863  1.5095  2.3567
 5710TIP3   OH238620   2.144   5.391   3.846 -0.4578  0.2419  0.2700
 5710TIP3    H138621   2.198   5.400   3.768 -1.1002  2.2055 -0.0047
 5710TIP3    H238622   2.069   5.339   3.818 -0.1575  0.0141 -0.1199
 5711TIP3   OH238623   4.663   1.961  14.000  0.3372  0.2901  0.4414
 5711TIP3    H138624   4.706   2.037  13.961 -0.7486 -0.1839 -1.8117
 5711TIP3    H238625   4.735   1.910  14.038  1.3865  1.1133 -0.3652
 5712TIP3   OH238626   3.427   1.246   1.116  0.3799 -0.1338 -0.4208
 5712TIP3    H138627   3.499   1.303   1.087 -1.6083  3.3837  0.9258
 5712TIP3    H238628   3.458   1.212   1.201  0.9964  0.2136 -0.4950
 5713TIP3   OH238629   2.332   4.428  12.368 -0.3590  0.2960 -0.2067
 5713TIP3    H138630   2.415   4.476  12.376 -0.3818  0.2817  0.1438
 5713TIP3    H238631   2.302   4.419  12.459  0.1228 -1.2086 -0.1702
 5714TIP3   OH238632   4.944   5.804   3.447 -0.3758  0.1228  0.2234
 5714TIP3    H138633   4.861   5.845   3.472  0.2226  0.9110  1.0330
 5714TIP3    H238634   4.922   5.746   3.375 -1.7112 -0.0537  0.7386
 5715TIP3   OH238635   6.739   5.262   4.442  0.4876 -0.4270 -0.7081
 5715TIP3    H138636   6.661   5.216   4.413 -0.6127  1.3542 -0.7248
 5715TIP3    H238637   6.761   5.319   4.368  0.2135  1.0098  0.2798
 5716TIP3   OH238638   0.963   1.110   3.986 -0.3234  0.1063  0.4471
 5716TIP3    H138639   0.875   1.110   3.947 -0.0530  0.5711 -0.1803
 5716TIP3    H238640   0.986   1.203   3.992 -0.2373  0.0323  1.4583
 5717TIP3   OH238641   1.332   2.800  14.799  0.5177  0.8201  0.4340
 5717TIP3    H138642   1.346   2.708  14.822  1.0697  0.8102  0.0556
 5717TIP3    H238643   1.245   2.802  14.759  0.8589  0.3212 -0.3349
 5718TIP3   OH238644   0.335   4.144  11.927 -0.5044  0.1535  0.6858
 5718TIP3    H138645   0.353   4.235  11.951 -0.8595  0.5845 -0.6200
 5718TIP3    H238646   0.299   4.149  11.838 -2.1747 -1.0991  1.2310
 5719TIP3   OH238647   6.505   4.996  13.668 -0.1138 -0.1173 -0.0280
 5719TIP3    H138648   6.537   5.064  13.609 -0.9966  0.2101 -0.1404
 5719TIP3    H238649   6.566   4.922  13.654 -0.2988 -0.0489 -1.3494
 5720TIP3   OH238650   3.445   0.068  15.225  0.6852  0.0545 -0.8724
 5720TIP3    H138651   3.513   0.027  15.279 -1.2864 -0.9563  1.0401
 5720TIP3    H238652   3.429   0.153  15.268  0.7727  0.3082 -1.3418
 5721TIP3   OH238653   4.793   2.097   0.967 -0.2821 -0.0715  0.2987
 5721TIP3    H138654   4.864   2.151   0.934 -0.8710  1.2218  1.0504
 5721TIP3    H238655   4.825   2.062   1.050  0.3930 -1.5691 -0.5545
 5722TIP3   OH238656   4.787   2.865  11.745 -0.2212 -0.1015 -0.4445
 5722TIP3    H138657   4.811   2.789  11.692 -1.8664 -1.0410  0.0912
 5722TIP3    H238658   4.787   2.832  11.835 -0.5565  0.6527 -0.1653
 5723TIP3   OH238659   6.734   5.646  11.655  0.3194  0.4326 -0.1538
 5723TIP3    H138660   6.759   5.554  11.651  1.2117  0.7027 -2.0265
 5723TIP3    H238661   6.708   5.660  11.746  2.0379 -1.1978  0.6597
 5724TIP3   OH238662   0.532   2.183  17.072 -0.2864 -0.6420 -0.1682
 5724TIP3    H138663   0.573   2.116  17.126  1.4581 -1.1399 -1.9958
 5724TIP3    H238664   0.442   2.152  17.060  0.4486 -2.6225 -0.8611
 5725TIP3   OH238665   3.719   2.985  16.127  0.0610  0.0264 -0.1134
 5725TIP3    H138666   3.664   2.981  16.049  1.2122 -1.0509 -0.9121
 5725TIP3    H238667   3.765   2.901  16.129  1.6245  0.8494  0.5352
 5726TIP3   OH238668   6.766   3.637   0.170  0.0576  0.1694 -0.0812
 5726TIP3    H138669   6.846   3.685   0.150  0.1078  1.9096  3.4117
 5726TIP3    H238670   6.698   3.704   0.173 -1.0471 -0.8944 -0.5785
 5727TIP3   OH238671   4.546   2.327   3.793  0.2649  0.4639 -0.1335
 5727TIP3    H138672   4.618   2.385   3.816 -0.5466  1.0510  1.0358
 5727TIP3    H238673   4.500   2.373   3.722  0.5889  0.4575 -0.3460
 5728TIP3   OH238674   2.446   6.640  15.936 -0.6355  0.1085 -0.3852
 5728TIP3    H138675   2.517   6.577  15.920  0.2095  1.1058 -0.6206
 5728TIP3    H238676   2.434   6.684  15.852 -1.6720 -0.1561 -0.4003
 5729TIP3   OH238677   2.979   0.409  13.060  0.1665  0.4174 -0.4133
 5729TIP3    H138678   2.891   0.398  13.098  0.2067 -1.4287 -0.7885
 5729TIP3    H238679   3.038   0.384  13.131  0.4346  1.8681 -0.0910
 5730TIP3   OH238680   3.757   4.470  11.446  0.0094 -0.1074  0.3424
 5730TIP3    H138681   3.671   4.430  11.460  0.9406 -1.7307  1.7015
 5730TIP3    H238682   3.740   4.564  11.448 -1.7309 -0.4004  0.6462
 5731TIP3   OH238683   2.088   4.820   6.148  0.4913 -0.4664 -0.3216
 5731TIP3    H138684   2.105   4.867   6.067 -1.5304  0.8218 -0.0709
 5731TIP3    H238685   2.026   4.876   6.196  1.0364 -1.5498  1.7690
 5732TIP3   OH238686   3.799   3.249  15.360  0.1366  0.6114  0.3043
 5732TIP3    H138687   3.780   3.262  15.453 -0.1951  1.4930  0.1249
 5732TIP3    H238688   3.731   3.298  15.314 -0.8701 -1.3916 -0.4483
 5733TIP3   OH238689   3.307   0.802  11.884 -0.5597 -0.0071 -0.6791
 5733TIP3    H138690   3.280   0.732  11.825 -0.5324  0.3093 -1.0675
 5733TIP3    H238691   3.224   0.834  11.922 -0.4426 -1.5398  0.9939
 5734TIP3   OH238692   3.677   4.712  11.571 -0.8351 -0.0152 -0.1462
 5734TIP3    H138693   3.766   4.749  11.574 -0.2799 -1.2703 -0.3297
 5734TIP3    H238694   3.620   4.784  11.598  0.3246  0.5790  0.8187
 5735TIP3   OH238695   5.390   0.227   2.502 -0.4245  0.2807 -0.3315
 5735TIP3    H138696   5.470   0.201   2.549 -0.0237  2.7905  0.5552
 5735TIP3    H238697   5.416   0.305   2.453 -2.0841  0.5417 -0.8571
 5736TIP3   OH238698   5.872   3.966  11.546 -0.2171  0.2315 -0.2701
 5736TIP3    H138699   5.843   3.905  11.478 -0.0972  2.1148 -2.1297
 5736TIP3    H238700   5.817   4.043  11.533  0.4699  0.9890  1.1836
 5737TIP3   OH238701   2.324   0.555   2.773 -0.2416  0.2985  0.5622
 5737TIP3    H138702   2.315   0.470   2.815 -0.2964  0.1974  0.3486
 5737TIP3    H238703   2.258   0.610   2.816 -0.7550  0.0142  0.1567
 5738TIP3   OH238704   1.877   2.071  15.463  0.3365  0.2024  0.3374
 5738TIP3    H138705   1.925   2.153  15.467 -0.5847  0.7194  1.1064
 5738TIP3    H238706   1.891   2.039  15.373  1.5627  0.6514  0.3617
 5739TIP3   OH238707   1.174   0.016  16.199  0.2519  0.3157 -0.3402
 5739TIP3    H138708   1.113   0.076  16.156 -0.6588  0.6111  1.2953
 5739TIP3    H238709   1.122  -0.064  16.213  0.4053  0.3545  0.5069
 5740TIP3   OH238710   3.357   2.866  11.834  0.1857 -0.0729 -0.1895
 5740TIP3    H138711   3.432   2.814  11.804 -0.8695 -1.4821 -0.4256
 5740TIP3    H238712   3.396   2.950  11.860  1.7433 -0.4809 -1.0696
 5741TIP3   OH238713   5.093   0.264   5.959  0.0795 -0.1568 -0.5426
 5741TIP3    H138714   5.086   0.241   6.051  0.1105  0.5909 -0.3487
 5741TIP3    H238715   5.168   0.323   5.954 -1.3808  1.7826 -0.6338
 5742TIP3   OH238716   5.092   3.264  15.405 -0.1766  0.0880  0.2831
 5742TIP3    H138717   5.155   3.290  15.338  1.3846 -0.1988  1.5952
 5742TIP3    H238718   5.063   3.177  15.378  1.0456 -0.3653  0.3869
 5743TIP3   OH238719   2.032   2.023  13.945  0.0764  0.1090  0.7923
 5743TIP3    H138720   2.075   2.004  13.861 -0.1146  0.7791  0.5391
 5743TIP3    H238721   1.951   2.069  13.921 -0.0752  0.1316  1.3336
 5744TIP3   OH238722   2.272   0.815  10.271  0.1105  0.0558 -0.0597
 5744TIP3    H138723   2.298   0.905  10.250 -2.0371  0.2985 -2.1009
 5744TIP3    H238724   2.179   0.821  10.292  0.0445 -1.6403  0.2734
 5745TIP3   OH238725   3.741   4.555   1.042  0.0099  0.3596  0.0713
 5745TIP3    H138726   3.733   4.539   1.136 -0.7234  1.1004  0.1488
 5745TIP3    H238727   3.800   4.630   1.035 -1.0327  1.2090  0.0386
 5746TIP3   OH238728   5.096   2.455  11.511  0.2978 -0.2815  0.6432
 5746TIP3    H138729   5.053   2.388  11.565  1.0792 -0.0604  1.5701
 5746TIP3    H238730   5.110   2.528  11.570 -0.9936  0.9391 -0.4893
 5747TIP3   OH238731   4.453   5.773  16.923 -0.5364  0.1875 -0.3009
 5747TIP3    H138732   4.366   5.812  16.934  0.3645  1.8645  1.4389
 5747TIP3    H238733   4.502   5.837  16.872  0.2101  0.1124  0.3166
 5748TIP3   OH238734   3.681   4.386  16.977  0.3224 -0.2258 -0.2534
 5748TIP3    H138735   3.703   4.335  17.055  2.1655  0.8071 -0.0402
 5748TIP3    H238736   3.637   4.464  17.011 -0.0961 -0.4170 -0.3563
 5749TIP3   OH238737   3.921   5.889   5.440 -0.3900 -0.0014  0.6814
 5749TIP3    H138738   3.861   5.834   5.389  1.1367 -0.7936 -0.3452
 5749TIP3    H238739   3.926   5.971   5.392 -1.5188  0.5330  1.4157
 5750TIP3   OH238740   2.556   4.622   5.575 -0.4419  0.4359  0.3246
 5750TIP3    H138741   2.596   4.549   5.623 -0.5423  1.4455  2.0155
 5750TIP3    H238742   2.475   4.585   5.540  0.0929 -0.5870  0.1018
 5751TIP3   OH238743   5.733   2.713  16.118  0.0976 -0.0623  0.4211
 5751TIP3    H138744   5.650   2.696  16.074  0.7172 -0.3754 -0.6464
 5751TIP3    H238745   5.726   2.805  16.147 -0.7816 -0.2157  0.7463
 5752TIP3   OH238746   4.260   4.698  10.495  0.0158 -0.0034 -0.2530
 5752TIP3    H138747   4.334   4.638  10.501 -1.1401 -1.4145  0.8074
 5752TIP3    H238748   4.299   4.783  10.476  1.7895 -0.9228 -0.9667
 5753TIP3   OH238749   2.352   0.952  13.187 -0.0099  0.3413 -0.3388
 5753TIP3    H138750   2.285   0.895  13.225  1.2898 -0.0715  1.4628
 5753TIP3    H238751   2.414   0.892  13.146  1.3985  0.3401  1.6183
 5754TIP3   OH238752   6.717   3.636  14.198 -0.5932 -0.2962  0.0439
 5754TIP3    H138753   6.726   3.612  14.290 -1.9610  1.0403  0.5869
 5754TIP3    H238754   6.766   3.717  14.189  0.5975 -1.0823 -0.7430
 5755TIP3   OH238755   3.722   1.942  11.656  0.1746 -0.0081 -0.0165
 5755TIP3    H138756   3.667   1.866  11.674 -0.3824 -0.1686 -2.0873
 5755TIP3    H238757   3.810   1.914  11.679 -0.3252 -0.4050  1.5494
 5756TIP3   OH238758   5.450   4.112  13.829  0.4421  0.0875  0.1692
 5756TIP3    H138759   5.436   4.138  13.738 -0.6639 -1.2484 -0.0827
 5756TIP3    H238760   5.513   4.040  13.824 -0.5469 -0.8165  0.3086
 5757TIP3   OH238761   4.830   3.200  16.587  0.3095 -0.3517 -0.1685
 5757TIP3    H138762   4.828   3.215  16.682  0.4518 -1.3727  0.0001
 5757TIP3    H238763   4.743   3.166  16.567  0.6684 -1.2618 -0.2063
 5758TIP3   OH238764   0.538   0.196   4.051 -0.1218 -0.4618  0.6266
 5758TIP3    H138765   0.493   0.181   3.967 -0.6787  0.6390  0.7061
 5758TIP3    H238766   0.494   0.273   4.088  0.8020 -0.3161  1.4554
 5759TIP3   OH238767   5.862   1.791  16.249 -0.4537 -0.0146 -0.0063
 5759TIP3    H138768   5.937   1.815  16.303  0.3044  0.0328 -1.0520
 5759TIP3    H238769   5.901   1.750  16.171 -1.3505  2.2222 -1.7450
 5760TIP3   OH238770   4.711   5.831  11.315 -0.3956 -0.1017  0.2026
 5760TIP3    H138771   4.646   5.785  11.261 -1.0817  1.0467  0.0092
 5760TIP3    H238772   4.766   5.877  11.251 -0.0818 -0.1698  0.4220
 5761TIP3   OH238773   4.536   1.574   3.727  0.0101  0.1859  0.2002
 5761TIP3    H138774   4.630   1.581   3.747  0.2254 -0.8507 -0.3567
 5761TIP3    H238775   4.514   1.659   3.689  1.6611 -0.6991 -3.1753
 5762TIP3   OH238776   6.066   4.002  15.732 -0.1894  0.7633 -0.7723
 5762TIP3    H138777   5.985   3.952  15.744  0.4996 -0.1300  0.2917
 5762TIP3    H238778   6.042   4.071  15.670 -2.2317  1.5783  0.8021
 5763TIP3   OH238779   0.392   4.474  17.180  0.0335  0.2007 -0.2491
 5763TIP3    H138780   0.332   4.526  17.126 -0.4407  0.6560  0.6921
 5763TIP3    H238781   0.470   4.465  17.126  0.1252  1.8792 -0.4566
 5764TIP3   OH238782   6.621   4.326  14.937  0.5150 -0.1396  0.2140
 5764TIP3    H138783   6.574   4.405  14.910  1.4160  0.1380 -0.5895
 5764TIP3    H238784   6.668   4.353  15.016  3.6882  1.3125 -1.9319
 5765TIP3   OH238785   3.708   5.842   3.926 -0.2109 -0.2834  0.1734
 5765TIP3    H138786   3.710   5.917   3.986  0.8930  1.5992 -2.0890
 5765TIP3    H238787   3.742   5.876   3.844 -0.3113 -3.1415 -1.1517
 5766TIP3   OH238788   5.390   0.078  13.118 -0.2351  0.3634 -0.1376
 5766TIP3    H138789   5.362   0.119  13.200  0.2062  0.4434 -0.0231
 5766TIP3    H238790   5.309   0.046  13.078 -0.4828  0.5573  0.2024
 5767TIP3   OH238791   6.046   0.170   3.943 -0.6119  0.1449  0.6320
 5767TIP3    H138792   6.005   0.255   3.926  0.2348  0.8425  1.8946
 5767TIP3    H238793   5.972   0.110   3.953 -1.2344  0.7837 -0.0143
 5768TIP3   OH238794   1.295   4.907   4.529  0.0257 -0.1231 -0.1410
 5768TIP3    H138795   1.290   4.968   4.602 -0.3513  0.3412 -0.5420
 5768TIP3    H238796   1.233   4.942   4.465 -0.0590 -0.8295 -0.4536
 5769TIP3   OH238797   0.172   5.613   1.631 -0.5225 -0.4054 -0.0395
 5769TIP3    H138798   0.119   5.567   1.696 -1.0509  1.2631  0.7696
 5769TIP3    H238799   0.125   5.601   1.549 -2.0799  0.8433  0.6201
 5770TIP3   OH238800   3.280   4.085  14.045 -0.3265 -0.0003 -0.0554
 5770TIP3    H138801   3.327   4.091  14.128 -0.4844 -2.5787  0.3000
 5770TIP3    H238802   3.199   4.040  14.066  0.1873 -1.8828 -1.7616
 5771TIP3   OH238803   4.623   5.632  11.840 -0.2301  0.4158  0.3420
 5771TIP3    H138804   4.699   5.615  11.784 -1.1475  1.7769 -1.4273
 5771TIP3    H238805   4.548   5.607  11.786 -1.1036  0.5308  1.4740
 5772TIP3   OH238806   3.925   3.197   5.603  0.2837  0.2139  0.0196
 5772TIP3    H138807   3.892   3.129   5.545 -0.8754  1.7063 -1.1645
 5772TIP3    H238808   3.919   3.159   5.691 -1.5423 -0.7638 -0.4828
 5773TIP3   OH238809   3.759   4.090  13.559  0.2058 -0.8403 -0.9986
 5773TIP3    H138810   3.740   4.057  13.470  0.0113  0.0891 -1.3103
 5773TIP3    H238811   3.831   4.151  13.547 -1.0494  0.7347 -0.8168
 5774TIP3   OH238812   3.987   3.506  15.378  0.7468 -0.8062  0.1462
 5774TIP3    H138813   3.977   3.491  15.284  1.7196 -1.2127  0.0911
 5774TIP3    H238814   3.977   3.420  15.418 -0.8066 -0.4724  0.5501
 5775TIP3   OH238815   2.768   1.710  15.835 -0.3436  0.0693  1.2574
 5775TIP3    H138816   2.765   1.672  15.747  0.6642 -0.8133  1.5880
 5775TIP3    H238817   2.860   1.728  15.850 -0.6822  1.7132  1.5249
 5776TIP3   OH238818   3.344   2.897  13.943 -0.7832  0.0418 -0.2625
 5776TIP3    H138819   3.319   2.944  14.023 -0.4145  1.5904 -1.0306
 5776TIP3    H238820   3.438   2.884  13.951 -0.5905  0.9935 -0.8269
 5777TIP3   OH238821   4.740   5.399   5.928 -0.1905  0.0048 -0.3568
 5777TIP3    H138822   4.819   5.352   5.903 -0.5771 -0.7505 -0.1987
 5777TIP3    H238823   4.679   5.330   5.955 -0.7744  0.6014 -0.1299
 5778TIP3   OH238824   3.545   0.324  15.023 -0.6324  0.0711 -0.3703
 5778TIP3    H138825   3.626   0.376  15.017 -0.9192  0.5793  0.1261
 5778TIP3    H238826   3.531   0.313  15.117 -0.7867 -0.5870 -0.4660
 5779TIP3   OH238827   6.219   1.663   6.457  0.0527 -0.2411  0.2251
 5779TIP3    H138828   6.141   1.620   6.423  0.2638 -0.1055 -0.4373
 5779TIP3    H238829   6.202   1.757   6.446 -1.1052 -0.0141  3.1588
 5780TIP3   OH238830   4.740   0.373   5.824  0.1225 -0.1369 -0.3270
 5780TIP3    H138831   4.773   0.322   5.898  0.3822  0.6086  0.0775
 5780TIP3    H238832   4.669   0.426   5.860  0.6472  0.6827 -0.4622
 5781TIP3   OH238833   4.463   1.604   2.014 -0.2679 -0.5038 -0.7529
 5781TIP3    H138834   4.501   1.609   2.102 -1.2668  0.3725 -0.3596
 5781TIP3    H238835   4.528   1.554   1.963  1.0901  0.3630  0.0688
 5782TIP3   OH238836   6.109   2.741  13.831 -0.3466 -0.5700 -0.5056
 5782TIP3    H138837   6.172   2.710  13.766  0.3564 -2.8217  1.1172
 5782TIP3    H238838   6.157   2.808  13.880 -0.1103 -0.4565 -0.8875
 5783TIP3   OH238839   3.511   3.306   5.292 -0.6973 -0.5897  0.6356
 5783TIP3    H138840   3.433   3.251   5.291 -0.5977 -0.7392  1.0215
 5783TIP3    H238841   3.528   3.323   5.384 -0.3792 -0.4057  0.5471
 5784TIP3   OH238842   0.634   3.498   6.142 -0.2871 -0.0227 -0.2754
 5784TIP3    H138843   0.539   3.508   6.151 -0.2283 -1.1756  2.1784
 5784TIP3    H238844   0.671   3.566   6.198  0.4448  1.4727 -2.4326
 5785TIP3   OH238845   6.805   1.649   2.749  0.0817 -0.2873 -0.4927
 5785TIP3    H138846   6.741   1.607   2.806  0.1414 -0.1622 -0.3327
 5785TIP3    H238847   6.874   1.583   2.738  1.7100  0.7578  2.2470
 5786TIP3   OH238848   1.321   5.500  14.140  0.5546 -0.0709  0.6243
 5786TIP3    H138849   1.318   5.440  14.214 -0.3174 -0.7624  0.0494
 5786TIP3    H238850   1.407   5.486  14.100  0.0395 -1.5871 -0.0168
 5787TIP3   OH238851   5.788   3.277   2.430 -0.0796 -0.0555  0.2487
 5787TIP3    H138852   5.795   3.232   2.514  2.1561 -0.1358  0.0905
 5787TIP3    H238853   5.876   3.271   2.393  0.1027  3.5452 -0.2386
 5788TIP3   OH238854   4.263   2.655  16.190  0.3056  0.0910 -0.2081
 5788TIP3    H138855   4.235   2.660  16.098 -0.2958  0.0937 -0.0302
 5788TIP3    H238856   4.319   2.731  16.202  0.1674  0.2421 -0.5009
 5789TIP3   OH238857   2.559   3.328   3.509  0.1414  0.1587 -0.4173
 5789TIP3    H138858   2.550   3.313   3.603  0.0586  2.0857 -0.0691
 5789TIP3    H238859   2.469   3.330   3.477  0.0555  1.4230 -0.1607
 5790TIP3   OH238860   1.599   5.516  17.265  0.7471 -0.1802  0.3876
 5790TIP3    H138861   1.598   5.530  17.170  2.3470 -2.8239 -0.1148
 5790TIP3    H238862   1.675   5.566  17.296  0.2675  0.6247  0.2890
 5791TIP3   OH238863   2.520   3.166  12.040  0.2149 -0.0086  0.4779
 5791TIP3    H138864   2.481   3.196  11.959 -0.7799 -0.2018  0.8766
 5791TIP3    H238865   2.546   3.075  12.023 -0.4298 -0.2069  0.5110
 5792TIP3   OH238866   2.773   4.272  16.736  0.2277  0.4095  0.0920
 5792TIP3    H138867   2.830   4.275  16.659  0.5976 -0.4482  0.3084
 5792TIP3    H238868   2.830   4.296  16.808  0.2065  0.0018  0.2499
 5793TIP3   OH238869   2.362   4.367  15.046  0.6383 -0.0095  0.3484
 5793TIP3    H138870   2.301   4.296  15.063  2.2564 -1.5789 -0.0765
 5793TIP3    H238871   2.332   4.406  14.964  0.3070 -0.8881  0.0414
 5794TIP3   OH238872   2.746   3.255  16.111 -0.0039 -0.4903  0.1617
 5794TIP3    H138873   2.753   3.324  16.177 -1.7124  0.6901 -0.8068
 5794TIP3    H238874   2.836   3.234  16.088  0.5820  0.3028  1.6055
 5795TIP3   OH238875   0.538   2.851   1.301 -0.8143 -0.5503 -0.1131
 5795TIP3    H138876   0.540   2.866   1.207  0.0249  1.2696  0.1625
 5795TIP3    H238877   0.451   2.880   1.328 -0.6864 -0.0932 -0.1864
 5796TIP3   OH238878   0.201   1.688   3.123 -0.6033  0.7667 -0.5923
 5796TIP3    H138879   0.225   1.774   3.157  1.9306 -0.5893  1.4212
 5796TIP3    H238880   0.284   1.643   3.109 -1.8081 -2.3715  1.2623
 5797TIP3   OH238881   3.422   6.663  14.604  0.7537  0.0942 -0.2796
 5797TIP3    H138882   3.475   6.690  14.679  0.9634 -0.6960 -0.1399
 5797TIP3    H238883   3.426   6.568  14.603 -0.9422 -0.0249 -0.0630
 5798TIP3   OH238884   0.684   2.833   2.920  0.3784  0.4036 -0.4900
 5798TIP3    H138885   0.757   2.888   2.892 -1.1470  1.3339 -3.0005
 5798TIP3    H238886   0.610   2.893   2.926 -0.1402 -0.3565  2.7654
 5799TIP3   OH238887   0.198   5.911  11.826  0.0026  0.2191  0.2631
 5799TIP3    H138888   0.143   5.892  11.750 -0.4792  1.7092  0.2186
 5799TIP3    H238889   0.203   6.006  11.829  0.1793  0.1853  1.9807
 5800TIP3   OH238890   1.672   3.154   3.857  0.8388 -0.0955  0.3134
 5800TIP3    H138891   1.699   3.068   3.824  0.1024 -0.1223 -0.2197
 5800TIP3    H238892   1.704   3.216   3.793 -2.3310 -0.2743 -1.6423
 5801TIP3   OH238893   3.203   4.952  14.749 -0.6229  0.6352 -0.4344
 5801TIP3    H138894   3.120   4.907  14.765 -0.7256  1.0214  0.1358
 5801TIP3    H238895   3.268   4.901  14.797 -0.7895  1.2712  0.4813
 5802TIP3   OH238896   3.422   4.072  16.471  0.3103 -0.0303  0.6885
 5802TIP3    H138897   3.367   4.019  16.529 -0.0019 -0.1081  0.3279
 5802TIP3    H238898   3.438   4.153  16.520 -1.1127  0.4942  0.3284
 5803TIP3   OH238899   1.143   2.807   0.275 -0.0642  0.1526 -0.4979
 5803TIP3    H138900   1.235   2.795   0.249  0.1043  0.3834 -0.0167
 5803TIP3    H238901   1.093   2.780   0.198  0.3541 -1.5677 -0.2214
 5804TIP3   OH238902   1.760   5.557  12.669 -0.3051 -0.0169 -0.4573
 5804TIP3    H138903   1.784   5.638  12.624 -0.8462 -0.5213 -1.6832
 5804TIP3    H238904   1.666   5.547  12.653 -0.1598 -1.1134 -0.6998
 5805TIP3   OH238905   1.708   6.339  12.040  0.2665  0.0542 -0.3152
 5805TIP3    H138906   1.624   6.298  12.061 -0.3072  1.6611  0.6989
 5805TIP3    H238907   1.687   6.432  12.028  1.3242  0.0213 -3.5610
 5806TIP3   OH238908   2.978   6.761  17.082 -0.3669 -0.5585 -0.1648
 5806TIP3    H138909   2.931   6.681  17.105 -0.3992 -2.0875 -4.6086
 5806TIP3    H238910   3.066   6.732  17.059  0.6923  1.2706  1.2388
 5807TIP3   OH238911   0.740   6.762   5.907 -0.2717 -0.1881  0.3990
 5807TIP3    H138912   0.694   6.844   5.924  0.5123 -0.1333  2.7362
 5807TIP3    H238913   0.828   6.789   5.879  0.8667 -0.0368  3.6633
 5808TIP3   OH238914   4.517   2.232   4.606  0.2619 -0.0682  0.6265
 5808TIP3    H138915   4.483   2.143   4.612 -0.6488 -0.0211 -2.3973
 5808TIP3    H238916   4.445   2.287   4.636  0.6300 -0.2826  1.9663
 5809TIP3   OH238917   3.766   2.963   1.494 -0.1716 -0.4483 -0.0205
 5809TIP3    H138918   3.825   2.910   1.440  1.1341 -0.5543  1.4082
 5809TIP3    H238919   3.779   2.929   1.583 -1.1856  0.6296  0.5659
 5810TIP3   OH238920   1.424   0.771   1.733 -0.0184 -0.3136  0.4628
 5810TIP3    H138921   1.429   0.676   1.739  2.8869 -0.2562  0.1214
 5810TIP3    H238922   1.452   0.791   1.644 -1.1123  0.8880  0.3476
 5811TIP3   OH238923   2.659   1.505  14.386  0.1183  0.6311 -0.1868
 5811TIP3    H138924   2.568   1.497  14.358  0.2562 -0.1415 -0.4573
 5811TIP3    H238925   2.709   1.468  14.313  0.7021  1.7704 -0.3847
 5812TIP3   OH238926   6.566   4.991   6.537  0.3043  0.1547  0.3211
 5812TIP3    H138927   6.621   4.921   6.571  0.0704 -0.4585 -0.5167
 5812TIP3    H238928   6.627   5.054   6.498  0.4813  0.1262  0.5545
 5813TIP3   OH238929   6.811   2.169   5.114 -0.2572  0.2233  0.0836
 5813TIP3    H138930   6.896   2.204   5.140 -0.6940 -0.4685  2.7870
 5813TIP3    H238931   6.818   2.075   5.130 -2.2219  0.4178  3.0185
 5814TIP3   OH238932   0.906   6.751   6.198 -0.0485 -0.0322  0.0724
 5814TIP3    H138933   0.915   6.728   6.105  0.7027  0.4811  0.0104
 5814TIP3    H238934   0.811   6.756   6.212 -0.2100 -1.5241 -0.3072
 5815TIP3   OH238935   3.226   0.177   5.819 -0.1247 -0.4356  0.1301
 5815TIP3    H138936   3.268   0.250   5.774 -0.2889  0.2979  1.1363
 5815TIP3    H238937   3.170   0.137   5.753  1.3851 -0.8376 -0.9640
 5816TIP3   OH238938   2.705   4.010  15.765 -0.8245  0.5194  0.3359
 5816TIP3    H138939   2.743   4.072  15.702  0.0469  0.9678  1.2905
 5816TIP3    H238940   2.729   3.924  15.730  1.2678  0.7764  0.9787
 5817TIP3   OH238941   1.903   3.804  13.734 -0.4630 -0.1009  0.0475
 5817TIP3    H138942   1.840   3.819  13.804 -1.0093  2.4159 -0.8726
 5817TIP3    H238943   1.915   3.890  13.694  2.2458 -0.8326 -0.9386
 5818TIP3   OH238944   5.523   3.493   3.563 -0.1248  0.0809  0.3744
 5818TIP3    H138945   5.510   3.525   3.653 -0.0329  1.6495 -0.1362
 5818TIP3    H238946   5.435   3.491   3.525 -0.1446 -0.4154  0.4468
 5819TIP3   OH238947   5.979   1.034  11.255 -0.0168 -0.0649  0.0211
 5819TIP3    H138948   6.069   1.004  11.270 -0.0833 -0.4713 -0.3597
 5819TIP3    H238949   5.933   0.956  11.222 -0.1637  0.4940 -1.1418
 5820TIP3   OH238950   0.152   3.379  15.432  0.4360  0.2051 -0.3492
 5820TIP3    H138951   0.159   3.289  15.462 -1.8537  0.3449  0.7955
 5820TIP3    H238952   0.208   3.429  15.492  0.1389 -0.2078  0.2740
 5821TIP3   OH238953   1.577   1.358  16.889  0.0932 -0.9303 -0.0068
 5821TIP3    H138954   1.585   1.264  16.906 -0.4313 -1.0703 -0.4968
 5821TIP3    H238955   1.617   1.369  16.802  0.5100 -0.6336  0.2199
 5822TIP3   OH238956   0.525   6.432  15.531  0.2903  0.7801  0.0466
 5822TIP3    H138957   0.514   6.497  15.461  1.8214  0.3564 -0.6471
 5822TIP3    H238958   0.617   6.442  15.558  1.3198 -2.5080 -1.6358
 5823TIP3   OH238959   4.605   6.745   5.257 -0.1174  0.6329  0.8179
 5823TIP3    H138960   4.511   6.745   5.238  0.0503  1.0969 -0.1085
 5823TIP3    H238961   4.623   6.834   5.287  0.3011  1.0570 -0.6142
 5824TIP3   OH238962   6.337   2.424   2.120 -0.0603 -0.6045  0.8382
 5824TIP3    H138963   6.291   2.346   2.092  2.9605 -1.8231 -1.3206
 5824TIP3    H238964   6.328   2.485   2.046  0.8183 -0.4463  0.8506
 5825TIP3   OH238965   1.294   3.424  12.733 -0.1569  0.3699  0.2023
 5825TIP3    H138966   1.274   3.332  12.750 -1.1698  0.2713 -1.2626
 5825TIP3    H238967   1.275   3.435  12.640 -0.9999  2.2836  0.5527
 5826TIP3   OH238968   1.130   4.722  11.153  0.4639 -0.1234  0.2380
 5826TIP3    H138969   1.080   4.782  11.208  2.4639  1.1633  0.7568
 5826TIP3    H238970   1.126   4.762  11.066  0.3090 -0.2015  0.2089
 5827TIP3   OH238971   3.431   0.780   4.310  0.6082 -0.6276  0.3544
 5827TIP3    H138972   3.400   0.817   4.392 -2.6694 -1.6958 -0.2785
 5827TIP3    H238973   3.460   0.855   4.258 -1.0998  0.5262  1.0000
 5828TIP3   OH238974   6.139   0.026   1.222  0.5099 -0.9669  0.1040
 5828TIP3    H138975   6.048   0.044   1.247  0.3176 -0.2640 -1.0297
 5828TIP3    H238976   6.165   0.101   1.168  1.4843 -1.5519 -0.2736
 5829TIP3   OH238977   4.924   5.870   5.447  0.2037  0.2091 -0.0373
 5829TIP3    H138978   4.854   5.919   5.403  0.2941 -0.7455 -1.2990
 5829TIP3    H238979   4.878   5.802   5.496  0.2317 -0.8514 -1.4158
 5830TIP3   OH238980   3.992   6.506  14.860 -0.2066  0.4667  0.0236
 5830TIP3    H138981   4.088   6.502  14.863 -0.0488  3.1377  1.7943
 5830TIP3    H238982   3.973   6.588  14.814 -1.4713  1.8378  2.7754
 5831TIP3   OH238983   2.602   2.069   5.028 -0.6249 -0.2492 -0.0398
 5831TIP3    H138984   2.600   2.114   4.943 -0.4897 -2.2026 -1.1387
 5831TIP3    H238985   2.531   2.005   5.022  1.1012 -2.2947  0.1820
 5832TIP3   OH238986   6.620   5.707  16.056 -0.0507  0.0866 -0.2841
 5832TIP3    H138987   6.645   5.651  16.129 -0.3005 -0.4019 -0.5694
 5832TIP3    H238988   6.525   5.697  16.050 -0.0454  0.2155 -0.6005
 5833TIP3   OH238989   0.130   1.313   2.874 -0.1103  0.4082  0.2494
 5833TIP3    H138990   0.199   1.364   2.831  0.6166  0.2279  1.1706
 5833TIP3    H238991   0.094   1.373   2.939 -1.6431  0.8988 -0.9822
 5834TIP3   OH238992   1.229   1.541  16.994  0.0820 -0.9668  0.6939
 5834TIP3    H138993   1.228   1.577  16.905  0.1057 -2.9729 -0.1742
 5834TIP3    H238994   1.321   1.522  17.011  0.3631  1.2226  1.9940
 5835TIP3   OH238995   1.902   0.738  16.093  0.4820 -0.4137  0.4399
 5835TIP3    H138996   1.909   0.817  16.039  0.2296  0.3143  1.4553
 5835TIP3    H238997   1.988   0.727  16.133  1.1270 -1.7876 -1.1963
 5836TIP3   OH238998   6.782   0.143  14.377  0.4396 -0.7788  0.4680
 5836TIP3    H138999   6.859   0.168  14.326  1.2390 -2.8243  0.5456
 5836TIP3    H239000   6.777   0.208  14.446  1.1440  0.3055 -0.4648
 5837TIP3   OH239001   3.977   5.839  12.869  0.3536 -0.2182  0.3482
 5837TIP3    H139002   3.939   5.925  12.852 -0.3163 -0.9390 -2.1708
 5837TIP3    H239003   4.071   5.854  12.876  0.0509  1.0090  2.4066
 5838TIP3   OH239004   0.098   4.442  13.060  0.1267  0.0368 -0.5586
 5838TIP3    H139005   0.114   4.350  13.037 -0.6356 -0.4158  0.6166
 5838TIP3    H239006   0.124   4.491  12.982  0.3310 -1.1922 -1.2938
 5839TIP3   OH239007   4.319   0.127  16.213 -0.6829 -0.2775  0.4188
 5839TIP3    H139008   4.319   0.110  16.119  0.7591 -1.4157  0.5980
 5839TIP3    H239009   4.365   0.052  16.252 -2.1141 -0.3334  2.1400
 5840TIP3   OH239010   1.365   0.769  16.053 -1.1003  0.3257  0.2207
 5840TIP3    H139011   1.444   0.717  16.064 -2.0654 -1.2247  0.0995
 5840TIP3    H239012   1.371   0.837  16.121  0.7781  0.8603 -0.4278
 5841TIP3   OH239013   0.181   2.472   1.753  0.2414 -0.4512  0.2638
 5841TIP3    H139014   0.218   2.409   1.815  0.1316  0.1826  0.9980
 5841TIP3    H239015   0.104   2.507   1.799  1.1244  1.2704  0.4869
 5842TIP3   OH239016   3.847   2.043   1.994  0.0416  0.3505 -0.2404
 5842TIP3    H139017   3.817   2.133   1.981  0.7376  0.4430 -1.3531
 5842TIP3    H239018   3.942   2.050   2.002  0.2752 -0.4048 -1.9119
 5843TIP3   OH239019   3.579   4.818   2.953  0.2972  0.0735  0.0222
 5843TIP3    H139020   3.490   4.821   2.920 -0.1043  1.4727  1.1041
 5843TIP3    H239021   3.626   4.759   2.894 -1.3276 -0.6667 -0.5651
 5844TIP3   OH239022   0.113   5.029  12.046  0.3162 -0.5633  0.3345
 5844TIP3    H139023   0.178   4.964  12.019 -0.4312 -1.9412  1.6725
 5844TIP3    H239024   0.164   5.097  12.090  1.1122 -0.2091 -1.0860
 5845TIP3   OH239025   1.789   0.596   3.196 -0.1655 -0.0822  0.1510
 5845TIP3    H139026   1.870   0.574   3.240 -0.5443 -2.3720 -0.1919
 5845TIP3    H239027   1.721   0.581   3.262 -0.5299 -1.2139 -0.4466
 5846TIP3   OH239028   3.529   3.616   3.877 -0.3692 -0.2484  0.1636
 5846TIP3    H139029   3.561   3.663   3.800  1.0060 -0.3003  0.6793
 5846TIP3    H239030   3.434   3.630   3.876 -0.0982  1.8806 -0.1233
 5847TIP3   OH239031   1.641   2.711  12.472 -0.3707 -0.0097 -0.1807
 5847TIP3    H139032   1.602   2.696  12.386 -0.3911  0.8699 -0.3294
 5847TIP3    H239033   1.643   2.624  12.513  1.6501 -0.8576 -1.8913
 5848TIP3   OH239034   2.071   6.448  12.603 -0.4343 -0.1697 -0.6124
 5848TIP3    H139035   2.106   6.499  12.530 -0.5397  1.1736  0.2223
 5848TIP3    H239036   2.107   6.491  12.681 -2.2723 -0.0015  0.2020
 5849TIP3   OH239037   5.768   5.758   0.054 -0.1685 -1.0606  0.0644
 5849TIP3    H139038   5.857   5.789   0.069  0.0376 -1.0632 -1.0303
 5849TIP3    H239039   5.778   5.679   0.001 -0.8350 -0.4225 -1.0711
 5850TIP3   OH239040   5.868   5.765   5.540  0.2882  0.0964 -0.5463
 5850TIP3    H139041   5.895   5.702   5.607  0.6260  0.2847 -0.5007
 5850TIP3    H239042   5.773   5.765   5.543  0.2816 -0.6100 -0.7296
 5851TIP3   OH239043   4.814   4.766  10.457 -0.3500  0.0835 -0.3439
 5851TIP3    H139044   4.810   4.697  10.523 -1.2919  0.1275 -0.3487
 5851TIP3    H239045   4.840   4.721  10.377  0.3995 -0.0368 -0.0410
 5852TIP3   OH239046   3.134   6.781   5.944  0.0850 -0.0196 -0.4154
 5852TIP3    H139047   3.188   6.859   5.935  0.4911 -0.0701  1.1564
 5852TIP3    H239048   3.058   6.797   5.889  0.2544  1.4105 -0.2630
 5853TIP3   OH239049   3.605   4.184  16.205 -0.2695  0.2469  1.1304
 5853TIP3    H139050   3.609   4.164  16.299 -2.0008  0.6833  1.3421
 5853TIP3    H239051   3.683   4.236  16.188 -0.1817  0.5806  2.4521
 5854TIP3   OH239052   1.369   0.719  10.659 -0.0021  0.4436 -0.1893
 5854TIP3    H139053   1.392   0.811  10.648  3.2858 -0.3226 -0.8149
 5854TIP3    H239054   1.448   0.671  10.633 -1.2753 -2.5398  0.9554
 5855TIP3   OH239055   4.986   3.317  15.833 -0.4396 -0.3066  0.2299
 5855TIP3    H139056   4.911   3.259  15.820 -0.6785 -0.2094  1.0851
 5855TIP3    H239057   4.972   3.389  15.772 -1.1168 -0.2285  0.4676
 5856TIP3   OH239058   0.751   5.007  16.570 -0.8735  0.5883  0.4117
 5856TIP3    H139059   0.835   5.053  16.569 -0.4845  0.0979  3.3949
 5856TIP3    H239060   0.763   4.935  16.632 -2.8339 -0.9108 -0.8252
 5857TIP3   OH239061   6.089   0.765   6.707  0.3537 -0.0426  0.2702
 5857TIP3    H139062   6.065   0.675   6.726 -2.3007  0.8609  1.7850
 5857TIP3    H239063   6.185   0.766   6.711  0.5205 -2.9438 -0.8604
 5858TIP3   OH239064   5.519   0.788   4.265  0.3157  0.3641  0.8266
 5858TIP3    H139065   5.493   0.704   4.228  0.7199  0.9990 -1.0397
 5858TIP3    H239066   5.529   0.772   4.358 -1.2769 -1.2309  0.7721
 5859TIP3   OH239067   0.795   2.038   5.398 -0.0637  0.1350  0.3983
 5859TIP3    H139068   0.752   1.952   5.404 -0.2996  0.2798  0.7589
 5859TIP3    H239069   0.888   2.017   5.390 -0.1825 -0.1773 -0.2815
 5860TIP3   OH239070   2.172   2.778   0.980  0.2973 -0.8200 -0.0801
 5860TIP3    H139071   2.163   2.683   0.986  0.2205 -0.7462  1.6677
 5860TIP3    H239072   2.198   2.805   1.069  0.0680  0.8180 -0.4719
 5861TIP3   OH239073   4.754   0.911   2.101 -0.1425  0.7638  0.4733
 5861TIP3    H139074   4.699   0.833   2.105 -1.3074  1.5781  0.5671
 5861TIP3    H239075   4.698   0.983   2.131  1.2368  1.4818  1.4833
 5862TIP3   OH239076   4.568   1.353  14.732  0.0169  0.3229  0.0412
 5862TIP3    H139077   4.547   1.259  14.732 -0.8444  0.5024 -0.5717
 5862TIP3    H239078   4.656   1.357  14.769  0.1600 -0.7525 -0.1237
 5863TIP3   OH239079   2.570   1.088  13.228  0.5916  0.4718 -0.2400
 5863TIP3    H139080   2.484   1.051  13.206  1.7143 -0.7797 -2.9278
 5863TIP3    H239081   2.563   1.109  13.321 -2.0448 -1.1832  0.0585
 5864TIP3   OH239082   5.686   0.044   1.966 -0.2491  0.5971  0.4359
 5864TIP3    H139083   5.680   0.121   2.022  0.4373  2.3376 -1.7117
 5864TIP3    H239084   5.777   0.016   1.971 -0.5218 -0.1783  1.2977
 5865TIP3   OH239085   0.650   0.080   3.322 -0.9045 -0.1283  0.6087
 5865TIP3    H139086   0.724   0.053   3.377  0.3153 -0.7625 -1.2395
 5865TIP3    H239087   0.638   0.173   3.342  1.8630  0.5749 -0.5994
 5866TIP3   OH239088   6.342   6.072   1.631 -0.5297  0.1062  0.0615
 5866TIP3    H139089   6.371   5.983   1.612 -0.0383  0.3259 -0.2286
 5866TIP3    H239090   6.295   6.064   1.715 -1.8377 -0.6897 -0.7020
 5867TIP3   OH239091   0.994   5.233  16.362  0.6535 -0.5828  0.0495
 5867TIP3    H139092   1.080   5.274  16.347  1.2655 -0.6170  2.8901
 5867TIP3    H239093   0.948   5.295  16.420 -1.7197 -0.0780 -2.1870
 5868TIP3   OH239094   6.643   4.022   1.427 -0.2342 -0.2540  0.4507
 5868TIP3    H139095   6.604   4.096   1.381 -0.1305 -0.3449  0.2168
 5868TIP3    H239096   6.649   4.051   1.519  3.4442  1.6349 -0.1720
 5869TIP3   OH239097   6.561   6.712   2.084 -0.1547 -0.2356 -0.7998
 5869TIP3    H139098   6.501   6.716   2.158  0.4179  0.7030 -0.3699
 5869TIP3    H239099   6.546   6.625   2.045  0.9798 -1.6230  1.6319
 5870TIP3   OH239100   6.761   4.028   0.811  0.5727  0.2040 -0.3225
 5870TIP3    H139101   6.776   4.096   0.876 -1.4511  1.1869 -0.8031
 5870TIP3    H239102   6.790   3.947   0.853 -0.5447  0.8354  1.7615
 5871TIP3   OH239103   5.106   1.019   3.987  0.2617  0.4307 -0.7871
 5871TIP3    H139104   5.191   0.978   4.002  0.6663  0.8884 -1.7425
 5871TIP3    H239105   5.102   1.090   4.051 -0.5003 -1.1185  0.9654
 5872TIP3   OH239106   1.542   1.991  14.262  0.0961 -0.8183  0.5003
 5872TIP3    H139107   1.470   1.956  14.210  0.8034 -0.1998 -0.9549
 5872TIP3    H239108   1.593   2.043  14.200  1.5731 -0.9126  1.5858
 5873TIP3   OH239109   4.194   1.742  11.730 -0.0514  0.5262 -0.4410
 5873TIP3    H139110   4.231   1.695  11.804 -1.1097  0.6466  0.1849
 5873TIP3    H239111   4.229   1.697  11.653  0.5600  0.0108  0.1249
 5874TIP3   OH239112   1.337   0.189   0.495 -0.6028  0.1541 -0.1085
 5874TIP3    H139113   1.382   0.270   0.519 -0.1796 -0.0378 -0.2354
 5874TIP3    H239114   1.285   0.167   0.573 -1.5656  1.1108 -0.4681
 5875TIP3   OH239115   5.419   2.354  17.027 -0.9463  0.4010 -0.1935
 5875TIP3    H139116   5.404   2.276  17.081 -0.5678 -0.5171 -1.3505
 5875TIP3    H239117   5.350   2.415  17.052  0.1224  0.6553  2.4263
 5876TIP3   OH239118   2.158   6.662  14.352 -0.6436  0.1423  0.0554
 5876TIP3    H139119   2.129   6.613  14.429  1.0848 -0.0259  0.6370
 5876TIP3    H239120   2.197   6.597  14.295  0.6003  0.6319  0.3060
 5877TIP3   OH239121   5.568   3.663   6.118  0.2282  0.0373 -0.6343
 5877TIP3    H139122   5.589   3.723   6.190  0.4420  1.0663 -1.5138
 5877TIP3    H239123   5.547   3.580   6.161 -2.4812  1.3308  0.8272
 5878TIP3   OH239124   1.864   6.241   3.341  0.1508 -0.0876  0.2347
 5878TIP3    H139125   1.892   6.293   3.265 -2.6416  0.3856 -0.6010
 5878TIP3    H239126   1.830   6.160   3.303  2.4811 -1.7172  1.3737
 5879TIP3   OH239127   0.769   5.160  11.007 -0.3124  0.0447 -0.4682
 5879TIP3    H139128   0.835   5.175  10.938 -2.2537 -0.4745 -2.5484
 5879TIP3    H239129   0.712   5.237  11.003 -0.7939 -0.2694  0.1863
 5880TIP3   OH239130   2.807   2.611  10.327  0.0263 -0.8151 -0.3241
 5880TIP3    H139131   2.793   2.701  10.299  0.7584 -0.7613 -0.5364
 5880TIP3    H239132   2.723   2.584  10.363 -0.3177 -0.1840 -0.6360
 5881TIP3   OH239133   2.477   4.511  14.128 -0.3388 -0.7885  0.2028
 5881TIP3    H139134   2.527   4.483  14.052 -0.9166  1.1963 -0.9739
 5881TIP3    H239135   2.434   4.591  14.100  0.3408  0.6681  2.9880
 5882TIP3   OH239136   0.013   2.771  15.073  0.0037  0.2152  0.4544
 5882TIP3    H139137   0.018   2.845  15.133 -1.1562  0.9734 -0.3456
 5882TIP3    H239138   0.040   2.695  15.126 -1.1926  0.8199  1.9922
 5883TIP3   OH239139   5.836   3.913   3.821 -0.4988 -0.0413  0.2151
 5883TIP3    H139140   5.923   3.953   3.822 -0.8233  0.6869 -0.0915
 5883TIP3    H239141   5.801   3.926   3.909  0.0977 -1.2522  0.6563
 5884TIP3   OH239142   0.465   4.903  11.723  0.3424  0.1055 -0.1872
 5884TIP3    H139143   0.522   4.826  11.727 -0.6976 -0.6394  1.3933
 5884TIP3    H239144   0.410   4.889  11.646  2.5941  1.1446 -2.1370
 5885TIP3   OH239145   5.916   0.064   6.686 -0.1027  0.0362  0.0057
 5885TIP3    H139146   5.829   0.068   6.644 -0.2718  2.2393  0.4087
 5885TIP3    H239147   5.922  -0.025   6.721 -2.0384 -0.3025 -0.3806
 5886TIP3   OH239148   2.600   3.293   4.662  0.1117 -0.2235 -0.4570
 5886TIP3    H139149   2.688   3.331   4.663  1.3561 -2.7787 -1.6349
 5886TIP3    H239150   2.606   3.218   4.722 -0.6528 -1.5594 -1.9758
 5887TIP3   OH239151   3.470   1.749  11.540  0.0455  0.2419  0.3120
 5887TIP3    H139152   3.436   1.751  11.450  0.1952  1.2778  0.2673
 5887TIP3    H239153   3.448   1.835  11.576 -0.2518 -0.2630  1.3639
 5888TIP3   OH239154   6.598   6.283   2.572  0.0367 -0.1399 -0.6674
 5888TIP3    H139155   6.585   6.233   2.491  0.2856 -0.4735 -0.5039
 5888TIP3    H239156   6.681   6.250   2.607  0.2880  0.5154 -0.6486
 5889TIP3   OH239157   2.203   3.634  14.714 -0.1848 -0.1409 -0.8626
 5889TIP3    H139158   2.299   3.637  14.716 -0.2041  0.6563  0.9990
 5889TIP3    H239159   2.182   3.541  14.714  0.6587 -0.5127  2.9737
 5890TIP3   OH239160   6.229   3.661   0.788 -0.0152  0.5054  0.9552
 5890TIP3    H139161   6.176   3.741   0.786 -0.0811  0.5155  2.1727
 5890TIP3    H239162   6.193   3.607   0.718 -0.0367  1.4914  0.1812
 5891TIP3   OH239163   5.785   3.627  16.196 -0.3449  0.1777 -0.1856
 5891TIP3    H139164   5.702   3.673  16.178  0.8605  2.9262  0.6746
 5891TIP3    H239165   5.827   3.620  16.110 -0.4704  0.9497 -0.3231
 5892TIP3   OH239166   1.940   6.279   1.360 -0.0796 -0.1216 -0.4005
 5892TIP3    H139167   1.848   6.292   1.383  0.3688 -0.1060  1.6212
 5892TIP3    H239168   1.988   6.341   1.415  1.2888 -1.9121  0.5576
 5893TIP3   OH239169   5.922   3.296   1.434 -0.3948 -0.2550 -0.7649
 5893TIP3    H139170   5.983   3.360   1.469 -0.7804 -1.1723  1.7883
 5893TIP3    H239171   5.972   3.248   1.368  0.1871  1.9435 -1.9989
 5894TIP3   OH239172   1.009   2.060   0.748  0.6360  0.2098 -0.5383
 5894TIP3    H139173   0.929   2.084   0.794  1.3529 -0.5204  1.1577
 5894TIP3    H239174   1.042   2.142   0.712  0.7348  1.0714  1.3957
 5895TIP3   OH239175   4.031   4.483  16.446 -0.4798 -0.2420  0.6777
 5895TIP3    H139176   4.005   4.575  16.454 -1.2903 -0.2910 -0.9598
 5895TIP3    H239177   4.126   4.484  16.447 -0.4469  0.7903 -0.5413
 5896TIP3   OH239178   4.498   4.577  10.451 -0.1858 -0.0371 -0.5208
 5896TIP3    H139179   4.544   4.553  10.532  0.1900 -1.9098 -1.2352
 5896TIP3    H239180   4.529   4.665  10.432  2.1201 -0.7218 -0.2433
 5897TIP3   OH239181   2.725   1.682   2.915  0.3297  0.4493 -0.4257
 5897TIP3    H139182   2.707   1.775   2.900  1.3148  0.5889 -0.8325
 5897TIP3    H239183   2.819   1.673   2.900  0.6600 -0.1928  1.7689
 5898TIP3   OH239184   5.493   2.633   2.131 -0.0778 -0.1769 -0.1103
 5898TIP3    H139185   5.466   2.569   2.196 -2.1474 -0.5756 -1.2828
 5898TIP3    H239186   5.509   2.581   2.052 -0.2432  0.5876 -0.6499
 5899TIP3   OH239187   1.094   5.971   5.806 -0.5042  0.3749 -0.2033
 5899TIP3    H139188   1.185   6.000   5.814 -0.8643  1.3957  0.3349
 5899TIP3    H239189   1.100   5.885   5.763  0.7066  0.4167 -0.1518
 5900TIP3   OH239190   1.769   3.606  12.030  0.2239  0.6625  0.7223
 5900TIP3    H139191   1.734   3.520  12.053 -1.7104  0.2739 -2.8752
 5900TIP3    H239192   1.863   3.592  12.021 -0.2027 -1.7147 -1.5359
 5901TIP3   OH239193   1.173   5.377  16.107 -0.6843  0.4576 -0.3258
 5901TIP3    H139194   1.263   5.400  16.085 -0.8314 -0.1133 -1.5816
 5901TIP3    H239195   1.147   5.315  16.040 -0.9156 -2.0250  1.9025
 5902TIP3   OH239196   4.364   0.019   6.129  0.0520  0.2910 -0.3566
 5902TIP3    H139197   4.429  -0.044   6.098 -0.5869 -0.0689 -1.0183
 5902TIP3    H239198   4.308   0.035   6.053  0.6571  2.2699 -0.4170
 5903TIP3   OH239199   2.555   2.085  12.301 -0.2938  0.5217  0.5045
 5903TIP3    H139200   2.561   2.148  12.229 -1.1775  0.9505  0.7931
 5903TIP3    H239201   2.588   2.133  12.377  1.7768 -0.3119  0.1891
 5904TIP3   OH239202   5.512   2.897   5.613 -0.1585  0.4548 -0.1568
 5904TIP3    H139203   5.492   2.990   5.599  1.6467  0.8506 -0.3910
 5904TIP3    H239204   5.429   2.852   5.597 -1.3014  2.0860  0.8341
 5905TIP3   OH239205   3.577   4.610  12.723  0.3998 -0.0456 -0.3404
 5905TIP3    H139206   3.530   4.558  12.788  1.1408  2.0439  2.0375
 5905TIP3    H239207   3.668   4.605  12.750  0.8433  0.2818 -1.6970
 5906TIP3   OH239208   4.291   4.879   4.947  0.5236  0.2350  0.9046
 5906TIP3    H139209   4.331   4.963   4.968  0.2579  0.6688 -0.2510
 5906TIP3    H239210   4.222   4.868   5.012 -0.1072  1.4001  0.4646
 5907TIP3   OH239211   1.018   6.054  15.949  0.2552  0.5285  0.1391
 5907TIP3    H139212   0.985   5.980  16.000  2.7902  0.4620  1.8830
 5907TIP3    H239213   1.011   6.025  15.858 -2.1354 -0.3602  0.5350
 5908TIP3   OH239214   4.779   0.048  16.323 -0.3021  0.4875 -0.0596
 5908TIP3    H139215   4.812   0.136  16.342  0.4574 -0.0137  1.0406
 5908TIP3    H239216   4.858  -0.005  16.311 -0.7544 -0.0081 -0.9637
 5909TIP3   OH239217   4.125   5.800   5.593 -0.1954 -0.0002 -0.6427
 5909TIP3    H139218   4.059   5.844   5.540 -0.3023  1.4508  0.6230
 5909TIP3    H239219   4.077   5.730   5.638 -1.0381  1.3342  0.6278
 5910TIP3   OH239220   1.668   0.432   1.908 -0.4016 -0.0066  0.5470
 5910TIP3    H139221   1.738   0.465   1.852 -1.6658  2.0779  0.0794
 5910TIP3    H239222   1.712   0.373   1.969  1.3992 -0.4137 -1.0445
 5911TIP3   OH239223   3.851   6.621   0.963 -0.0087  0.5739 -0.3513
 5911TIP3    H139224   3.934   6.591   0.925 -1.5855 -4.3550 -0.6347
 5911TIP3    H239225   3.797   6.647   0.889  0.0908  0.2470 -0.5384
 5912TIP3   OH239226   5.667   1.651   4.842 -0.1889 -0.0943 -0.1602
 5912TIP3    H139227   5.720   1.729   4.826  1.2575 -1.0653 -0.2448
 5912TIP3    H239228   5.644   1.619   4.755 -0.5859  0.1020 -0.1285
 5913TIP3   OH239229   0.538   1.693  11.449 -0.5708  0.1958 -0.0516
 5913TIP3    H139230   0.572   1.779  11.426  0.6621 -0.2484  0.0484
 5913TIP3    H239231   0.447   1.694  11.419 -0.0830  0.9405 -1.5684
 5914TIP3   OH239232   0.125   4.600  11.465  0.7970 -0.3312  0.3636
 5914TIP3    H139233   0.102   4.549  11.388  1.6622 -0.7607  0.3797
 5914TIP3    H239234   0.041   4.629  11.501  0.3890 -0.0208 -0.7984
 5915TIP3   OH239235   1.072   3.303   3.977  0.0723 -0.3422  0.1764
 5915TIP3    H139236   1.022   3.383   3.960 -1.3147 -1.3178 -0.4758
 5915TIP3    H239237   1.141   3.304   3.911  0.4075  0.5731  0.5184
 5916TIP3   OH239238   3.574   0.519   0.601  0.0932 -0.1003  0.0322
 5916TIP3    H139239   3.649   0.548   0.652 -0.5583 -1.0875  1.6311
 5916TIP3    H239240   3.499   0.530   0.660 -0.7790 -0.7185 -0.9197
 5917TIP3   OH239241   4.898   4.219  17.234  0.4397  0.1419 -0.5280
 5917TIP3    H139242   4.824   4.265  17.275  0.7090 -0.5153  0.7693
 5917TIP3    H239243   4.973   4.277  17.247  0.3375  0.3742 -0.9736
 5918TIP3   OH239244   2.378   1.635   0.172 -0.3587 -0.1794 -0.0232
 5918TIP3    H139245   2.381   1.659   0.079 -0.8440 -1.3325 -0.3623
 5918TIP3    H239246   2.392   1.540   0.172  0.2313 -0.1137  1.1381
 5919TIP3   OH239247   4.455   4.693  14.013  0.4236 -0.1718  0.4969
 5919TIP3    H139248   4.410   4.747  14.078  0.7502  0.6906  0.0198
 5919TIP3    H239249   4.548   4.711  14.027  0.4848  0.2664 -0.4082
 5920TIP3   OH239250   1.267   6.323  16.249 -0.2265 -0.3314  0.4715
 5920TIP3    H139251   1.350   6.344  16.206 -0.0901 -0.8880  0.4596
 5920TIP3    H239252   1.222   6.407  16.254  0.2783 -0.0442  0.3558
 5921TIP3   OH239253   3.183   5.494  15.523 -0.0950 -0.3142  0.3857
 5921TIP3    H139254   3.252   5.544  15.566  0.2425 -0.5804  0.1655
 5921TIP3    H239255   3.224   5.464  15.442 -0.1447 -1.3316  0.7323
 5922TIP3   OH239256   4.059   6.000   3.123 -0.3097 -0.4524  0.5891
 5922TIP3    H139257   4.089   5.959   3.042 -1.3026  0.6600 -0.3717
 5922TIP3    H239258   4.088   5.940   3.192  0.8027 -1.2789 -0.5486
 5923TIP3   OH239259   3.891   2.102   2.770  0.5443 -0.2047 -0.7842
 5923TIP3    H139260   3.941   2.066   2.844  0.2243  0.6175 -0.1436
 5923TIP3    H239261   3.803   2.117   2.805 -0.2738 -1.8945 -1.9805
 5924TIP3   OH239262   2.588   3.833  11.368  0.4010 -0.5645 -0.3923
 5924TIP3    H139263   2.630   3.903  11.318 -0.8425 -0.2409 -1.0395
 5924TIP3    H239264   2.494   3.844  11.349 -0.1819 -0.1720  2.3181
 5925TIP3   OH239265   0.632   4.098   2.740  0.0065  0.3708 -0.6308
 5925TIP3    H139266   0.644   4.167   2.806 -0.4602 -0.9606  0.9135
 5925TIP3    H239267   0.720   4.075   2.712  0.4101 -0.6459  1.2972
 5926TIP3   OH239268   5.461   1.814  12.605  0.2892 -0.0262  0.5843
 5926TIP3    H139269   5.513   1.888  12.636  1.1163 -1.0623  1.7370
 5926TIP3    H239270   5.525   1.756  12.564 -0.2528 -0.4272  0.3044
 5927TIP3   OH239271   5.623   5.659   5.686 -0.1072 -0.2846  0.6746
 5927TIP3    H139272   5.601   5.734   5.741  0.4826 -0.9392  1.8395
 5927TIP3    H239273   5.563   5.665   5.612  0.4032  1.7250  0.3738
 5928TIP3   OH239274   5.339   5.172  17.251 -0.0059  0.1916 -0.1060
 5928TIP3    H139275   5.417   5.129  17.217 -0.1640 -0.0765 -0.1313
 5928TIP3    H239276   5.332   5.253  17.200 -1.0804 -0.8982 -1.7637
 5929TIP3   OH239277   1.488   0.975  15.728 -0.3079  0.1504  0.3882
 5929TIP3    H139278   1.405   0.950  15.770  0.0812  0.9891  1.7246
 5929TIP3    H239279   1.538   0.893  15.724 -0.7913 -0.1603  0.5354
 5930TIP3   OH239280   1.828   0.746   3.596 -0.6059 -0.2251  0.0238
 5930TIP3    H139281   1.795   0.657   3.586 -2.1359  0.1726  1.1653
 5930TIP3    H239282   1.782   0.797   3.529 -0.4446 -0.1110 -0.0030
 5931TIP3   OH239283   2.658   4.548  14.781  0.0048  0.0445  0.0503
 5931TIP3    H139284   2.633   4.625  14.729  0.5901 -1.1140 -2.0473
 5931TIP3    H239285   2.596   4.480  14.756  0.4770 -0.6335  0.6679
 5932TIP3   OH239286   4.496   3.032  13.159 -0.2703  0.4049  0.2622
 5932TIP3    H139287   4.481   2.961  13.222  0.2159 -0.2536 -0.3446
 5932TIP3    H239288   4.556   3.091  13.203 -1.6479  1.1200  1.2650
 5933TIP3   OH239289   2.677   2.618  16.904  0.0496  0.0035 -0.1527
 5933TIP3    H139290   2.589   2.615  16.866  0.8251  0.1553 -2.0627
 5933TIP3    H239291   2.723   2.685  16.853  0.3965  2.2855  2.8838
 5934TIP3   OH239292   2.272   1.057   3.766  0.6856 -0.4353  0.4655
 5934TIP3    H139293   2.264   1.016   3.680 -0.2949 -0.6460  0.6404
 5934TIP3    H239294   2.352   1.021   3.804  1.9642  0.7765 -0.9386
 5935TIP3   OH239295   4.560   5.752  11.089  0.0489  0.4878 -0.0693
 5935TIP3    H139296   4.556   5.825  11.027 -0.9718  1.2277  0.8406
 5935TIP3    H239297   4.469   5.730  11.107  0.3319 -1.4194 -0.7663
 5936TIP3   OH239298   0.826   0.269   5.817  0.7039 -0.4776  0.5133
 5936TIP3    H139299   0.824   0.365   5.811 -0.4252 -0.5526 -0.7200
 5936TIP3    H239300   0.781   0.250   5.899  1.2309  0.0398  0.9405
 5937TIP3   OH239301   3.693   3.475  14.070 -0.0484  0.2454 -0.5781
 5937TIP3    H139302   3.615   3.452  14.019 -0.2815 -0.9793  0.2850
 5937TIP3    H239303   3.708   3.568  14.052 -0.1574 -0.1245 -2.8122
 5938TIP3   OH239304   2.051   2.236   5.593 -0.1548 -0.5995  0.0128
 5938TIP3    H139305   2.081   2.315   5.549 -1.5730  0.3369  0.6691
 5938TIP3    H239306   2.114   2.223   5.665 -1.3098  1.4553  1.5002
 5939TIP3   OH239307   3.162   5.561  17.268  0.0978 -0.3082  0.3805
 5939TIP3    H139308   3.178   5.655  17.278 -0.1158 -0.4265  2.1505
 5939TIP3    H239309   3.245   5.526  17.234  0.0778  0.5400 -0.5961
 5940TIP3   OH239310   0.308   2.038   0.088  0.6551 -0.9905  0.4040
 5940TIP3    H139311   0.257   2.036   0.169  2.4442 -1.6778  1.6021
 5940TIP3    H239312   0.348   1.951   0.083  2.0001 -0.3707 -0.2251
 5941TIP3   OH239313   1.363   5.493  15.287  0.2134 -0.1367  0.4354
 5941TIP3    H139314   1.398   5.451  15.208  0.4833  1.9179 -0.6041
 5941TIP3    H239315   1.437   5.541  15.324 -0.0627 -0.5946  1.6234
 5942TIP3   OH239316   3.991   5.637  16.242  0.0367  0.1286 -0.1187
 5942TIP3    H139317   3.948   5.575  16.301 -0.3347  1.1266  0.6823
 5942TIP3    H239318   3.926   5.654  16.173 -0.3092  0.5494  0.3144
 5943TIP3   OH239319   5.137   5.362  11.940 -0.6593  0.5966 -0.2610
 5943TIP3    H139320   5.174   5.435  11.989  1.0793 -0.6271  0.3664
 5943TIP3    H239321   5.120   5.295  12.006  1.2138 -0.8735 -1.1605
 5944TIP3   OH239322   5.250   3.601   2.743  0.6398  0.1338  0.4061
 5944TIP3    H139323   5.202   3.565   2.668  1.5321 -0.2244 -0.0037
 5944TIP3    H239324   5.187   3.600   2.815  0.0701 -0.4391 -0.0942
 5945TIP3   OH239325   0.099   4.465  14.075  0.1462 -0.1862  0.0309
 5945TIP3    H139326   0.126   4.537  14.017  1.3712 -2.3138 -2.1925
 5945TIP3    H239327   0.058   4.401  14.017  2.1411 -2.8174  1.3111
 5946TIP3   OH239328   0.264   3.754   3.655  0.0075  0.6220  0.2574
 5946TIP3    H139329   0.339   3.729   3.602 -1.5115  0.8311 -2.1255
 5946TIP3    H239330   0.263   3.691   3.727  0.2513 -1.8430 -1.7833
 5947TIP3   OH239331   2.848   0.656  16.346 -0.2608  0.0115 -0.1439
 5947TIP3    H139332   2.778   0.590  16.350 -1.2537  1.0696  1.0291
 5947TIP3    H239333   2.926   0.607  16.323 -1.5257 -1.0949 -2.3839
 5948TIP3   OH239334   3.083   2.448  16.171 -0.2569 -0.1094  0.5593
 5948TIP3    H139335   3.174   2.442  16.200 -0.2471  2.5982  1.3509
 5948TIP3    H239336   3.083   2.404  16.086  1.6731 -0.5898  0.7512
 5949TIP3   OH239337   5.722   6.182   4.995  0.9271 -0.0910 -0.8502
 5949TIP3    H139338   5.643   6.149   4.953 -0.9594  2.3716  0.5668
 5949TIP3    H239339   5.769   6.229   4.926  0.7014 -0.7485 -1.4620
 5950TIP3   OH239340   0.937   5.277  13.394  0.6092  0.3561 -0.7805
 5950TIP3    H139341   0.959   5.353  13.447  0.9681  0.0051 -0.4124
 5950TIP3    H239342   0.913   5.312  13.309  1.4925  0.8346 -0.8428
 5951TIP3   OH239343   3.976   0.464  15.474 -0.0637 -0.0465  0.1530
 5951TIP3    H139344   3.951   0.374  15.456  1.1193 -0.1730 -1.0167
 5951TIP3    H239345   3.894   0.507  15.498 -0.5279 -1.5754  1.4799
 5952TIP3   OH239346   0.328   4.757   0.121  0.1429 -0.1435 -0.4443
 5952TIP3    H139347   0.238   4.723   0.119 -0.7193  2.0214 -2.6374
 5952TIP3    H239348   0.366   4.730   0.038  1.3940 -0.5636  0.2342
 5953TIP3   OH239349   0.125   5.600  11.316  0.0093 -0.1446 -0.0415
 5953TIP3    H139350   0.138   5.529  11.252 -1.0451  0.8239 -1.3880
 5953TIP3    H239351   0.202   5.655  11.307  0.4355 -0.6596  0.4068
 5954TIP3   OH239352   1.279   0.555  15.012  0.2508  0.2356 -0.6906
 5954TIP3    H139353   1.277   0.461  15.030 -0.1286  0.3791  0.0612
 5954TIP3    H239354   1.219   0.566  14.939  1.3227 -0.2771 -1.6760
 5955TIP3   OH239355   1.159   1.764   4.512 -0.1284  0.5341 -0.0721
 5955TIP3    H139356   1.200   1.719   4.586  1.4612  1.0371 -0.5896
 5955TIP3    H239357   1.065   1.758   4.529  0.1562 -0.2801  1.4312
 5956TIP3   OH239358   2.765   2.705  11.761 -0.2304 -0.1967  0.2579
 5956TIP3    H139359   2.852   2.676  11.788  0.2651 -0.2923 -1.3148
 5956TIP3    H239360   2.778   2.794  11.729 -0.6409 -0.3269 -0.2873
 5957TIP3   OH239361   2.649   5.882  15.741  0.4004  0.2222 -0.0333
 5957TIP3    H139362   2.671   5.813  15.803 -1.4384  0.8339  1.3833
 5957TIP3    H239363   2.733   5.905  15.701  2.0135  0.8204  3.3153
 5958TIP3   OH239364   2.442   4.825  14.995 -0.5636  0.1516  0.1664
 5958TIP3    H139365   2.467   4.853  14.908 -0.6108 -0.1130  0.0641
 5958TIP3    H239366   2.360   4.777  14.982  0.6831 -2.0943 -0.0241
 5959TIP3   OH239367   6.484   1.769  14.179  0.0104  0.9791  0.0442
 5959TIP3    H139368   6.541   1.723  14.117  0.5537  3.4350 -1.4249
 5959TIP3    H239369   6.538   1.842  14.211 -1.4223  1.7831  0.7126
 5960TIP3   OH239370   3.914   2.207   6.017  0.3161  0.0793  0.0853
 5960TIP3    H139371   3.921   2.111   6.015 -2.2404 -0.1584 -1.2198
 5960TIP3    H239372   3.996   2.238   5.978  0.4545 -1.6593 -1.1296
 5961TIP3   OH239373   3.205   3.598   2.328 -0.8640 -0.7315  0.4260
 5961TIP3    H139374   3.123   3.553   2.310 -0.9230 -0.4715  0.0272
 5961TIP3    H239375   3.228   3.641   2.245 -0.2142 -0.9784  0.4732
 5962TIP3   OH239376   2.003   0.195  13.225  0.8695 -0.2161 -0.6651
 5962TIP3    H139377   1.986   0.186  13.319  1.1702 -0.5278 -0.6398
 5962TIP3    H239378   1.919   0.223  13.188  0.4485 -1.1841 -0.4644
 5963TIP3   OH239379   0.636   4.188  12.024 -0.1485  0.1953 -0.6046
 5963TIP3    H139380   0.703   4.120  12.026  0.9565  1.2615 -0.4385
 5963TIP3    H239381   0.558   4.144  11.989  0.3277 -1.3235  0.1687
 5964TIP3   OH239382   3.606   6.206  14.554 -0.4646 -0.7630  0.0416
 5964TIP3    H139383   3.615   6.154  14.634 -1.8082  0.5087  1.0682
 5964TIP3    H239384   3.527   6.171  14.512  0.2884 -1.4855 -0.7902
 5965TIP3   OH239385   0.937   6.792  12.251  0.1833 -0.0266 -0.1837
 5965TIP3    H139386   0.876   6.837  12.309 -2.2846 -3.2085 -0.0782
 5965TIP3    H239387   0.908   6.815  12.163 -1.8070 -2.0809 -0.1509
 5966TIP3   OH239388   6.486   6.653   1.788 -0.6260 -0.0739  0.2395
 5966TIP3    H139389   6.563   6.609   1.824  1.1653  1.4998 -1.4076
 5966TIP3    H239390   6.446   6.589   1.729 -0.1365 -0.6485  0.5240
 5967TIP3   OH239391   5.739   0.858  11.441  0.3733  0.0012 -0.0752
 5967TIP3    H139392   5.813   0.917  11.452  0.4559 -0.0983 -0.0970
 5967TIP3    H239393   5.690   0.866  11.523 -0.6282  1.4963 -0.7622
 5968TIP3   OH239394   0.387   3.357   4.471 -0.2647  0.0008 -0.0586
 5968TIP3    H139395   0.362   3.266   4.455 -0.7102 -0.0920  1.0869
 5968TIP3    H239396   0.324   3.408   4.422 -0.5265 -0.2952 -0.0331
 5969TIP3   OH239397   2.501   3.583   4.925 -0.1257 -0.2246 -0.0492
 5969TIP3    H139398   2.506   3.488   4.937 -0.6174 -0.2065  0.3529
 5969TIP3    H239399   2.560   3.618   4.992 -1.1150 -0.2019  0.8289
 5970TIP3   OH239400   4.629   4.211   3.837  0.1443 -0.4594  0.5066
 5970TIP3    H139401   4.547   4.259   3.829  0.0356 -0.8728 -1.4729
 5970TIP3    H239402   4.654   4.221   3.929 -1.1691  1.2066  0.7406
 5971TIP3   OH239403   3.064   0.555  11.939 -0.2894 -0.4043  0.1981
 5971TIP3    H139404   3.088   0.631  11.886  0.1419 -0.0283  0.9167
 5971TIP3    H239405   3.145   0.505  11.947 -1.0053 -2.0388 -1.9702
 5972TIP3   OH239406   0.891   6.795  15.605 -0.0464  0.1977 -0.0934
 5972TIP3    H139407   0.859   6.856  15.539 -0.3689  0.2203  0.0782
 5972TIP3    H239408   0.914   6.716  15.556  0.4972  0.5002 -0.3329
 5973TIP3   OH239409   3.433   2.479   1.350  0.3427 -0.6784  0.1829
 5973TIP3    H139410   3.363   2.523   1.397  1.1354  0.0612  0.7013
 5973TIP3    H239411   3.406   2.484   1.258  0.2108  0.5348  0.2686
 5974TIP3   OH239412   4.924   0.009   4.210  0.2416 -0.3810 -0.1160
 5974TIP3    H139413   5.016   0.018   4.238  0.8984 -1.0729 -1.9358
 5974TIP3    H239414   4.927   0.020   4.115 -1.6269 -0.1189 -0.1713
 5975TIP3   OH239415   4.615   2.844  14.574 -0.0421 -0.4702 -0.2378
 5975TIP3    H139416   4.543   2.907  14.575 -0.2103 -0.6625  1.3117
 5975TIP3    H239417   4.639   2.833  14.666 -0.5680 -3.3292 -0.3573
 5976TIP3   OH239418   2.476   2.680  15.433 -0.0494  0.2319  0.1883
 5976TIP3    H139419   2.546   2.622  15.402  0.1453 -0.4690  1.8490
 5976TIP3    H239420   2.520   2.738  15.496 -0.6040  1.0726 -0.1722
 5977TIP3   OH239421   1.864   6.603   2.085 -0.1589  0.0654 -0.1650
 5977TIP3    H139422   1.915   6.525   2.103  0.8481  0.5299 -0.8719
 5977TIP3    H239423   1.906   6.642   2.008  1.1651  2.7902  1.7478
 5978TIP3   OH239424   1.786   6.218  15.503  0.9561 -0.0869  0.7907
 5978TIP3    H139425   1.869   6.246  15.466  1.1874  0.2215  1.5249
 5978TIP3    H239426   1.734   6.298  15.509  0.1563 -0.4628 -0.7680
 5979TIP3   OH239427   3.217   3.955  13.639  0.0423 -0.3452 -0.4461
 5979TIP3    H139428   3.128   3.970  13.670 -0.1663 -0.9624 -0.7299
 5979TIP3    H239429   3.266   4.033  13.667 -0.7047  0.2454 -0.7658
 5980TIP3   OH239430   3.248   0.750   1.668 -0.5096  0.0479  0.1152
 5980TIP3    H139431   3.197   0.806   1.610 -2.4512 -0.8054  0.9330
 5980TIP3    H239432   3.243   0.792   1.753 -1.5418 -1.0500  0.6222
 5981TIP3   OH239433   6.582   0.911   5.122  0.1971 -0.7923 -0.1226
 5981TIP3    H139434   6.604   0.918   5.029  0.9609 -1.7510 -0.0241
 5981TIP3    H239435   6.486   0.913   5.124  0.1599 -1.2159 -0.9703
 5982TIP3   OH239436   5.202   4.618  13.333  0.0072 -0.1464  0.2908
 5982TIP3    H139437   5.251   4.690  13.372 -0.3791  0.1156  0.2983
 5982TIP3    H239438   5.268   4.564  13.290  0.3900 -0.2129  0.9491
 5983TIP3   OH239439   4.647   3.210  13.280 -0.4428 -0.1404 -0.1856
 5983TIP3    H139440   4.668   3.278  13.344 -0.6740 -0.8317  0.6488
 5983TIP3    H239441   4.616   3.258  13.204 -1.3140  0.6781  0.6468
 5984TIP3   OH239442   5.738   3.127  10.833 -0.2513 -0.1693  0.2315
 5984TIP3    H139443   5.700   3.161  10.752 -1.1268 -1.2006  0.1890
 5984TIP3    H239444   5.814   3.076  10.805  0.0490  0.3096  0.1573
 5985TIP3   OH239445   3.851   5.094  14.745 -0.0839 -0.4322 -0.4133
 5985TIP3    H139446   3.883   5.121  14.831 -0.2134  2.1617 -1.0940
 5985TIP3    H239447   3.756   5.103  14.751 -0.0160  1.4466 -1.2512
 5986TIP3   OH239448   0.582   4.082   1.780  0.2482 -0.1622 -0.0533
 5986TIP3    H139449   0.645   4.082   1.708 -0.7564  0.7257 -0.9763
 5986TIP3    H239450   0.509   4.029   1.747 -0.7769  1.3013 -0.2499
 5987TIP3   OH239451   2.033   2.606   4.738  0.4804  0.2948  0.4734
 5987TIP3    H139452   1.947   2.647   4.724  1.6928  2.7398 -0.4195
 5987TIP3    H239453   2.042   2.604   4.834 -0.7768 -0.5539  0.6069
 5988TIP3   OH239454   0.768   0.708  10.994 -0.8029 -0.1062  0.2255
 5988TIP3    H139455   0.732   0.788  10.956  0.0150  0.4794  0.6573
 5988TIP3    H239456   0.838   0.682  10.933  0.4153  0.7562  1.2200
 5989TIP3   OH239457   4.031   5.681   4.652 -0.3146 -0.3828 -0.7767
 5989TIP3    H139458   4.075   5.669   4.737  1.1249  0.5599 -1.3485
 5989TIP3    H239459   4.097   5.653   4.588 -0.3553  1.5004 -1.6930
 5990TIP3   OH239460   2.622   4.871   5.095  0.0752  0.4979 -0.2540
 5990TIP3    H139461   2.665   4.814   5.032  0.4194 -0.3529  0.7188
 5990TIP3    H239462   2.544   4.904   5.049 -0.5948 -1.4358 -0.5755
 5991TIP3   OH239463   3.980   4.533   6.024 -0.5619  0.6417  0.0590
 5991TIP3    H139464   3.918   4.475   6.070 -0.4082  0.4617  0.0404
 5991TIP3    H239465   3.973   4.616   6.071  0.9219 -0.0435  1.5868
 5992TIP3   OH239466   5.292   5.531   4.683 -0.1236  0.0919 -0.1631
 5992TIP3    H139467   5.236   5.462   4.719  0.1583 -0.2157 -0.3129
 5992TIP3    H239468   5.235   5.576   4.620 -0.3747  0.1343  0.0943
 5993TIP3   OH239469   0.498   4.638  15.652  1.1259 -0.0905  0.1212
 5993TIP3    H139470   0.457   4.586  15.722  0.6536 -1.9990 -1.4863
 5993TIP3    H239471   0.541   4.710  15.698  0.6365 -1.1360  2.3570
 5994TIP3   OH239472   2.613   3.798   3.203  0.0190  0.4158  0.0814
 5994TIP3    H139473   2.643   3.765   3.118 -1.0405  0.7385 -0.4245
 5994TIP3    H239474   2.556   3.871   3.183 -0.6059  0.2234  1.0521
 5995TIP3   OH239475   6.312   6.505   1.610 -0.0919 -0.6215  0.3562
 5995TIP3    H139476   6.336   6.434   1.552  2.8480  0.6499 -0.1654
 5995TIP3    H239477   6.256   6.562   1.557 -2.1132 -2.2263  0.6527
 5996TIP3   OH239478   6.530   1.593   4.880  0.4155 -1.0418  0.2334
 5996TIP3    H139479   6.575   1.527   4.828  2.0757  0.0213  0.2135
 5996TIP3    H239480   6.597   1.661   4.895 -1.3152  0.8624 -0.1651
 5997TIP3   OH239481   1.755   3.276  12.670 -0.3357 -0.0100 -0.2984
 5997TIP3    H139482   1.836   3.231  12.693 -0.6892 -0.1559  0.6956
 5997TIP3    H239483   1.755   3.356  12.723 -0.5115  0.3337 -0.8100
 5998TIP3   OH239484   5.303   2.706   0.550 -0.1902  0.3367  0.1061
 5998TIP3    H139485   5.337   2.735   0.635 -1.2264  0.3942  0.5178
 5998TIP3    H239486   5.247   2.631   0.571  2.1140 -1.8310 -0.8972
 5999TIP3   OH239487   5.252   2.409   6.718  0.2822 -0.2152  0.4579
 5999TIP3    H139488   5.160   2.411   6.747  0.3864  0.7995  0.7579
 5999TIP3    H239489   5.260   2.486   6.662  0.9286 -0.3800  0.3204
 6000TIP3   OH239490   0.234   5.572  14.734 -0.1476 -0.2786  0.0557
 6000TIP3    H139491   0.139   5.558  14.741 -0.0884 -2.0313 -1.7883
 6000TIP3    H239492   0.243   5.643  14.671 -0.2402 -0.7299 -0.4747
 6001TIP3   OH239493   5.420   4.429  10.638 -0.2329  0.4048  0.1297
 6001TIP3    H139494   5.386   4.340  10.626 -0.4876  0.4018  0.8661
 6001TIP3    H239495   5.375   4.481  10.571  1.3953 -0.3792 -1.6816
 6002TIP3   OH239496   0.415   4.978   5.464  0.3196 -0.1669 -0.0346
 6002TIP3    H139497   0.478   5.048   5.454  0.3727 -0.0755  0.9242
 6002TIP3    H239498   0.396   4.974   5.557 -0.4929 -0.7175 -0.2055
 6003TIP3   OH239499   0.190   1.292   5.608 -0.2283 -0.1444  0.3516
 6003TIP3    H139500   0.270   1.278   5.660  0.5735 -1.0698 -1.0715
 6003TIP3    H239501   0.221   1.338   5.530 -1.3415  0.7848  0.4345
 6004TIP3   OH239502   0.555   3.978  12.297  0.0737  0.3363 -0.3099
 6004TIP3    H139503   0.583   3.888  12.316  0.9069  0.4346 -1.0150
 6004TIP3    H239504   0.468   3.968  12.260 -0.2988 -0.0911  0.6365
 6005TIP3   OH239505   3.689   0.433   2.353 -0.6334 -0.3132 -0.3309
 6005TIP3    H139506   3.714   0.472   2.269 -0.7145  0.2798 -0.0865
 6005TIP3    H239507   3.769   0.392   2.386 -0.0406  1.2320  0.2599
 6006TIP3   OH239508   2.223   2.441   2.672  0.0536 -0.8906  0.3819
 6006TIP3    H139509   2.192   2.429   2.761 -3.0119 -1.2581 -0.6378
 6006TIP3    H239510   2.149   2.418   2.616  0.2841  3.3963 -2.2011
 6007TIP3   OH239511   5.654   0.044   2.972 -0.4992  0.2505 -0.0646
 6007TIP3    H139512   5.709   0.051   2.894 -0.2735  3.4620  0.2357
 6007TIP3    H239513   5.711   0.005   3.039 -0.0735 -0.6819 -0.9434
 6008TIP3   OH239514   4.322   3.230  13.080 -0.7763 -0.2206  0.1230
 6008TIP3    H139515   4.379   3.164  13.119 -0.2466  0.4120  0.4256
 6008TIP3    H239516   4.336   3.309  13.132 -0.7705  0.3741 -0.7462
 6009TIP3   OH239517   3.487   5.050   5.645  0.0565  0.0359  0.2336
 6009TIP3    H139518   3.398   5.054   5.610  0.2999  0.6202 -0.3198
 6009TIP3    H239519   3.482   5.097   5.728  0.2231  1.5702 -0.6017
 6010TIP3   OH239520   5.162   3.388   5.903 -0.2918  0.3113  0.3047
 6010TIP3    H139521   5.137   3.352   5.988 -2.5515 -0.3550 -0.5785
 6010TIP3    H239522   5.233   3.449   5.923  1.4264 -2.1201  2.2771
 6011TIP3   OH239523   4.962   5.073  13.998  0.5417 -0.4292  0.0591
 6011TIP3    H139524   4.898   5.093  13.930 -1.5201 -2.0315  1.3843
 6011TIP3    H239525   5.047   5.079  13.954 -0.5463  0.6826 -2.0649
 6012TIP3   OH239526   2.298   2.402  12.683 -0.2030 -0.0051 -0.3448
 6012TIP3    H139527   2.270   2.412  12.592 -0.4889 -1.5196 -0.4570
 6012TIP3    H239528   2.221   2.425  12.735 -0.1805  0.4210 -0.4965
 6013TIP3   OH239529   3.361   2.635  13.491 -0.1864  0.3737 -0.6533
 6013TIP3    H139530   3.396   2.700  13.552 -1.5911  0.6159 -0.0608
 6013TIP3    H239531   3.289   2.681  13.447  0.9499  0.2841 -2.7035
 6014TIP3   OH239532   3.515   5.640   6.811 -0.3224  0.1800 -0.1662
 6014TIP3    H139533   3.557   5.664   6.893  0.0634  1.8612 -0.8224
 6014TIP3    H239534   3.518   5.544   6.810 -1.7772  0.0117  2.4937
 6015TIP3   OH239535   3.538   0.761  15.028 -0.1374 -0.1544  0.2805
 6015TIP3    H139536   3.599   0.807  14.970  1.0018 -2.1431 -0.1834
 6015TIP3    H239537   3.482   0.712  14.968 -1.6501  0.9363  0.7508
 6016TIP3   OH239538   5.459   5.350  16.597  0.6467  0.2558  0.7791
 6016TIP3    H139539   5.500   5.382  16.517  0.2326  1.1658  0.9069
 6016TIP3    H239540   5.531   5.320  16.652  1.0053  0.4232  0.3998
 6017TIP3   OH239541   4.015   6.245  13.254 -0.0304 -0.0355  0.4761
 6017TIP3    H139542   3.955   6.231  13.327 -0.0246  0.3655  0.5590
 6017TIP3    H239543   3.976   6.316  13.204 -0.0882 -0.3743  0.0253
 6018TIP3   OH239544   0.883   4.473   5.669 -0.9128 -0.2493 -0.1633
 6018TIP3    H139545   0.897   4.472   5.574 -0.8296 -1.0057 -0.1517
 6018TIP3    H239546   0.788   4.477   5.679 -0.8819  1.0271 -0.2638
 6019TIP3   OH239547   3.940   1.928  15.790 -0.0949  0.3938 -0.6717
 6019TIP3    H139548   4.035   1.932  15.801 -0.2062  0.9261  0.1496
 6019TIP3    H239549   3.904   1.953  15.875 -0.9628 -1.7486 -0.3327
 6020TIP3   OH239550   5.444   1.672  12.851 -0.5267 -0.3691 -0.1908
 6020TIP3    H139551   5.436   1.691  12.757 -1.8829  1.8622  0.3040
 6020TIP3    H239552   5.354   1.672  12.884 -0.1818 -2.4546  0.9445
 6021TIP3   OH239553   3.911   4.947   0.090  0.4353 -0.6992 -0.3697
 6021TIP3    H139554   3.945   4.940   0.001 -0.0384 -1.4467 -0.4981
 6021TIP3    H239555   3.822   4.912   0.085  0.0330  0.1975  0.1871
 6022TIP3   OH239556   0.731   0.973  16.444 -0.2104 -0.6237  0.0521
 6022TIP3    H139557   0.678   0.894  16.440 -0.6707 -0.2765 -1.0451
 6022TIP3    H239558   0.681   1.039  16.396  0.6987  0.0227 -0.0503
 6023TIP3   OH239559   4.639   1.201   0.155  0.9333 -0.0546 -0.1796
 6023TIP3    H139560   4.690   1.271   0.195  2.2103 -0.1427 -1.5410
 6023TIP3    H239561   4.689   1.178   0.076  0.3252 -2.1913 -0.0014
 6024TIP3   OH239562   3.674   4.895   2.390 -0.8298 -0.1195 -0.3263
 6024TIP3    H139563   3.584   4.877   2.418 -0.6930  0.9867  0.9474
 6024TIP3    H239564   3.679   4.860   2.302 -2.1346 -1.3455  0.0435
 6025TIP3   OH239565   2.043   1.413  16.971 -0.2468 -0.2866  0.4877
 6025TIP3    H139566   1.967   1.458  16.934 -0.5811  1.1536  2.7472
 6025TIP3    H239567   2.114   1.430  16.908 -0.8085  1.8953  0.3669
 6026TIP3   OH239568   1.510   5.063  15.203  0.2152  0.0275  0.3073
 6026TIP3    H139569   1.535   5.051  15.294 -1.1748  0.8104  0.8226
 6026TIP3    H239570   1.436   5.003  15.190  1.4694 -1.3526 -0.8236
 6027TIP3   OH239571   2.385   0.080   6.309  0.0087 -0.5952  0.4153
 6027TIP3    H139572   2.322   0.049   6.375 -0.0117 -1.2808  0.0745
 6027TIP3    H239573   2.408   0.002   6.259 -0.5274  0.0491 -0.8647
 6028TIP3   OH239574   4.019   0.884   4.127  0.0625 -0.4142  0.3714
 6028TIP3    H139575   4.109   0.906   4.150 -0.1714 -1.4598  2.4886
 6028TIP3    H239576   4.014   0.789   4.135 -1.2820 -0.3529  0.4877
 6029TIP3   OH239577   6.090   3.462  14.537  0.2561 -0.1265 -0.0804
 6029TIP3    H139578   6.086   3.550  14.500 -0.7369  0.2872  0.9328
 6029TIP3    H239579   6.160   3.418  14.489 -0.3977  0.6439 -1.8197
 6030TIP3   OH239580   3.047   2.175   2.885  0.4982  0.2554  0.2454
 6030TIP3    H139581   3.016   2.233   2.955  0.7223  2.3715 -1.2849
 6030TIP3    H239582   3.096   2.106   2.930 -2.6406 -0.7847  2.4464
 6031TIP3   OH239583   2.537   1.371   2.765  0.2996  0.3476 -0.3797
 6031TIP3    H139584   2.523   1.277   2.776 -1.8115  0.3824 -1.9970
 6031TIP3    H239585   2.472   1.412   2.821  0.6273  0.8280 -0.3465
 6032TIP3   OH239586   3.274   1.950  16.288  0.3045 -0.2424 -0.0431
 6032TIP3    H139587   3.268   1.978  16.196 -1.8503  0.2742  0.2063
 6032TIP3    H239588   3.265   1.854  16.283 -4.0055 -0.0113 -0.2263
 6033TIP3   OH239589   1.165   0.761   0.722 -0.7067 -0.0519 -0.0363
 6033TIP3    H139590   1.074   0.740   0.701 -0.6039  0.2279 -0.7715
 6033TIP3    H239591   1.211   0.677   0.716 -0.2760  0.2856 -3.0880
 6034TIP3   OH239592   3.531   4.331  11.474 -0.2348 -0.0142 -0.4436
 6034TIP3    H139593   3.457   4.390  11.491 -0.7358  0.0689 -2.6392
 6034TIP3    H239594   3.537   4.277  11.553 -0.5987  2.0629  1.1075
 6035TIP3   OH239595   3.760   5.406  15.950 -0.1102  0.2443  0.2281
 6035TIP3    H139596   3.740   5.489  15.994 -1.8983 -0.2774  0.4697
 6035TIP3    H239597   3.816   5.359  16.012 -2.7763 -0.5863  2.2019
 6036TIP3   OH239598   6.310   1.834  16.586  0.3046 -0.3396  0.5394
 6036TIP3    H139599   6.318   1.917  16.632 -0.0995  0.1671 -0.2705
 6036TIP3    H239600   6.339   1.853  16.497  0.5768 -1.1640  0.4399
 6037TIP3   OH239601   5.127   5.463  15.226 -0.6359  0.5108 -0.2726
 6037TIP3    H139602   5.074   5.470  15.305 -2.1375 -0.1191 -1.2039
 6037TIP3    H239603   5.166   5.376  15.230  0.4227  0.9988  0.4449
 6038TIP3   OH239604   1.853   0.986   5.250 -0.2677  0.1287  0.0170
 6038TIP3    H139605   1.906   1.063   5.227 -0.1097 -0.3793 -1.4897
 6038TIP3    H239606   1.773   0.996   5.198  0.6174 -1.6824 -1.8548
 6039TIP3   OH239607   3.007   2.309   3.120 -0.0742 -0.3182 -0.3730
 6039TIP3    H139608   3.074   2.255   3.161  0.0573  0.6017  0.6300
 6039TIP3    H239609   2.925   2.263   3.139 -0.0178  0.0950  0.9362
 6040TIP3   OH239610   6.057   6.072   0.484  0.0356 -0.1050 -0.3395
 6040TIP3    H139611   5.995   6.005   0.511 -0.6111  0.2276 -0.9570
 6040TIP3    H239612   6.137   6.024   0.462 -0.1538 -0.5836  0.0078
 6041TIP3   OH239613   0.221   4.540  13.776 -0.2964  0.5477  0.3781
 6041TIP3    H139614   0.296   4.513  13.723 -0.0354  1.3032  0.3410
 6041TIP3    H239615   0.206   4.632  13.750 -2.4400 -0.1242 -1.0460
 6042TIP3   OH239616   3.990   0.844   1.965 -0.1666 -0.3739 -0.2093
 6042TIP3    H139617   3.999   0.898   2.044 -0.0534  0.0719 -0.5217
 6042TIP3    H239618   4.072   0.860   1.917 -0.9257  0.6498 -1.2089
 6043TIP3   OH239619   3.466   0.966  13.686  0.6855  0.2341  0.4725
 6043TIP3    H139620   3.519   0.920  13.751 -0.0092  0.1964  1.0293
 6043TIP3    H239621   3.407   0.899  13.651  0.8927  0.3071 -0.0326
 6044TIP3   OH239622   1.282   5.207  16.377  0.1443  0.6850  0.2122
 6044TIP3    H139623   1.302   5.200  16.284 -0.4355 -2.2309  0.1993
 6044TIP3    H239624   1.347   5.151  16.420 -1.7029 -0.9202  1.1216
 6045TIP3   OH239625   6.431   3.952   1.892 -0.0524 -0.1462  0.6090
 6045TIP3    H139626   6.390   3.884   1.839  1.7106  1.0553 -2.5810
 6045TIP3    H239627   6.494   3.905   1.947 -0.5206 -1.2697  0.1976
 6046TIP3   OH239628   5.885   2.012   0.405  0.1042 -0.0718  1.0288
 6046TIP3    H139629   5.811   1.951   0.398  0.8800 -0.9266  0.0149
 6046TIP3    H239630   5.951   1.976   0.347  0.7485  1.5374  0.7259
 6047TIP3   OH239631   4.099   1.566  16.434  0.5724 -0.2948 -0.1912
 6047TIP3    H139632   4.007   1.544  16.446  1.1416 -2.4177  0.7417
 6047TIP3    H239633   4.129   1.508  16.363  1.1892  0.4103 -0.5292
 6048TIP3   OH239634   6.638   4.805  15.250 -0.2986  0.4502  0.8975
 6048TIP3    H139635   6.610   4.715  15.266  0.7896 -0.3762 -1.4525
 6048TIP3    H239636   6.559   4.851  15.224 -0.5669 -0.2794  0.3928
 6049TIP3   OH239637   1.147   5.896  12.259 -0.7419  0.2079  0.3213
 6049TIP3    H139638   1.114   5.979  12.224  0.6020  0.5440 -0.2252
 6049TIP3    H239639   1.227   5.879  12.209 -0.2567 -0.7154  1.3654
 6050TIP3   OH239640   3.656   2.549  14.840  0.4697  0.7411  0.0050
 6050TIP3    H139641   3.635   2.467  14.884  2.1033  0.6861  0.7532
 6050TIP3    H239642   3.689   2.606  14.909 -2.7227  2.9016 -0.0486
 6051TIP3   OH239643   2.349   3.969  10.731  0.0619 -0.0937 -0.3251
 6051TIP3    H139644   2.362   3.879  10.702 -0.7980 -0.2111 -0.3630
 6051TIP3    H239645   2.426   3.988  10.784 -1.1877 -1.9467  2.3723
 6052TIP3   OH239646   6.014   2.527  12.720  0.1309 -0.2899  0.0427
 6052TIP3    H139647   5.954   2.571  12.659  2.5713  0.6075 -1.8789
 6052TIP3    H239648   5.995   2.434  12.708  0.7001 -0.1740 -2.4187
 6053TIP3   OH239649   2.587   2.829   5.064  0.3181  0.1626 -0.0621
 6053TIP3    H139650   2.550   2.760   5.119  0.0958 -0.1156 -0.5552
 6053TIP3    H239651   2.651   2.873   5.121  1.5330 -1.3786 -0.1560
 6054TIP3   OH239652   0.494   0.321  15.986  0.2659 -0.1765 -0.3568
 6054TIP3    H139653   0.419   0.263  15.974 -0.7399  0.7304  1.3386
 6054TIP3    H239654   0.565   0.262  16.014  0.0294 -0.9265 -1.2645
 6055TIP3   OH239655   0.355   4.413   0.171  0.0210 -0.3920 -0.1253
 6055TIP3    H139656   0.450   4.407   0.182  0.0712  0.1427 -0.2560
 6055TIP3    H239657   0.343   4.426   0.077 -0.1754 -0.3025 -0.0880
 6056TIP3   OH239658   3.282   6.533   5.144  1.1242 -0.5289 -0.2980
 6056TIP3    H139659   3.281   6.461   5.082  0.0055  0.6536 -1.7260
 6056TIP3    H239660   3.332   6.602   5.100  1.8553 -0.2673  0.8796
 6057TIP3   OH239661   0.068   0.656  17.121  0.2930  0.3121  0.2445
 6057TIP3    H139662   0.059   0.735  17.067  1.7121  1.5006  1.6550
 6057TIP3    H239663   0.161   0.637  17.121 -0.0912 -1.8664 -0.6635
 6058TIP3   OH239664   2.678   2.282   6.048  0.2185 -0.4712  0.6353
 6058TIP3    H139665   2.641   2.348   5.989  0.1077  0.0565  1.2769
 6058TIP3    H239666   2.656   2.314   6.136  1.2550 -0.7101  0.9942
 6059TIP3   OH239667   6.461   0.391   1.755 -0.0401 -0.6768 -0.0559
 6059TIP3    H139668   6.394   0.335   1.793 -0.5372  1.4608  2.4818
 6059TIP3    H239669   6.414   0.444   1.691 -0.6304  0.1624  1.0447
 6060TIP3   OH239670   1.152   4.521   1.582  0.3119 -0.3973 -0.3922
 6060TIP3    H139671   1.195   4.454   1.635  0.2462 -0.8132 -0.8652
 6060TIP3    H239672   1.104   4.574   1.645 -0.7005 -1.5768 -0.1465
 6061TIP3   OH239673   2.399   1.023  15.073  0.0716  0.4391  0.0418
 6061TIP3    H139674   2.444   1.035  15.157  0.3840 -0.3988  0.0079
 6061TIP3    H239675   2.447   1.079  15.011  0.2842  0.5150  0.2732
 6062TIP3   OH239676   5.397   5.922  15.937 -0.1711 -0.0630 -0.2454
 6062TIP3    H139677   5.352   5.961  16.011 -2.8138 -1.9232 -0.7292
 6062TIP3    H239678   5.378   5.979  15.863  0.6260  0.6107  0.0526
 6063TIP3   OH239679   5.766   6.685   4.408  1.0884  0.1588  0.8059
 6063TIP3    H139680   5.853   6.664   4.373  0.9156  0.0845  0.4095
 6063TIP3    H239681   5.706   6.634   4.353  0.6705  1.5581 -0.0727
 6064TIP3   OH239682   6.264   4.541   1.245  0.2781  0.2411  0.3757
 6064TIP3    H139683   6.338   4.593   1.275 -1.5060  2.4999  1.1623
 6064TIP3    H239684   6.222   4.510   1.325 -0.5905  0.4723  0.0248
 6065TIP3   OH239685   0.190   6.287   0.514  0.2049 -0.1074 -0.2486
 6065TIP3    H139686   0.236   6.237   0.446  1.0837 -0.4648  0.5833
 6065TIP3    H239687   0.155   6.363   0.468 -1.8268 -1.8158 -1.7119
 6066TIP3   OH239688   1.576   4.570  11.330 -0.7568  0.1734 -0.4045
 6066TIP3    H139689   1.490   4.591  11.364 -0.2262  0.8271  0.5755
 6066TIP3    H239690   1.571   4.477  11.308 -1.4449  0.0031  0.4439
 6067TIP3   OH239691   1.321   5.508  16.962  0.0467 -0.2639 -0.5947
 6067TIP3    H139692   1.306   5.441  17.028 -1.4933  0.4773 -0.1201
 6067TIP3    H239693   1.410   5.493  16.931  0.2744 -1.5532  0.5873
 6068TIP3   OH239694   3.178   5.836   0.893 -0.8260  0.9429 -0.3186
 6068TIP3    H139695   3.146   5.859   0.981 -0.7625  0.9430 -0.2955
 6068TIP3    H239696   3.100   5.842   0.837 -0.8745  0.9029 -0.2550
 6069TIP3   OH239697   4.958   3.760   6.247 -0.0346 -0.6923 -0.4920
 6069TIP3    H139698   4.929   3.745   6.337  0.9510 -1.2257 -0.2362
 6069TIP3    H239699   5.036   3.704   6.238  0.6928  0.4011 -1.2300
 6070TIP3   OH239700   2.487   3.533   2.951 -0.4240 -0.0362 -0.2514
 6070TIP3    H139701   2.434   3.467   2.906 -0.6690  0.2215 -0.3500
 6070TIP3    H239702   2.465   3.615   2.907  1.8182 -0.2175 -1.8891
 6071TIP3   OH239703   1.746   4.786   4.295 -0.0361 -0.0420  0.1688
 6071TIP3    H139704   1.681   4.834   4.245 -0.5081  0.6748  1.4281
 6071TIP3    H239705   1.799   4.854   4.337 -1.0520 -0.5350  2.4304
 6072TIP3   OH239706   2.976   6.407  12.580  0.3430 -0.0921  0.1415
 6072TIP3    H139707   3.071   6.419  12.571  0.2378 -0.1791 -1.3337
 6072TIP3    H239708   2.966   6.354  12.659  1.6786 -1.7654 -0.7490
 6073TIP3   OH239709   3.676   0.422   5.855 -0.4365  0.7080 -0.6928
 6073TIP3    H139710   3.684   0.471   5.937 -1.2259 -0.6969  0.2441
 6073TIP3    H239711   3.660   0.490   5.789  2.1537  2.0842 -0.0788
 6074TIP3   OH239712   3.537   4.276  15.681  0.1280  0.2470 -0.3089
 6074TIP3    H139713   3.624   4.312  15.663 -0.6332  2.1223 -0.4739
 6074TIP3    H239714   3.481   4.353  15.695 -1.3327 -0.9262  0.6809
 6075TIP3   OH239715   6.513   4.741  12.624  0.3152 -0.0674  0.7153
 6075TIP3    H139716   6.447   4.673  12.614  0.0517  0.2832 -0.0389
 6075TIP3    H239717   6.567   4.712  12.697 -0.0474 -0.8719  0.6722
 6076TIP3   OH239718   0.489   0.046  16.457 -0.1875  0.2287  0.0185
 6076TIP3    H139719   0.531   0.067  16.540 -0.4670 -0.6747  0.3980
 6076TIP3    H239720   0.561   0.017  16.400 -0.0860  0.2057  0.1583
 6077TIP3   OH239721   5.165   1.373   5.282  0.5133 -0.3061 -0.2149
 6077TIP3    H139722   5.106   1.327   5.222 -1.5773  1.4874  0.3475
 6077TIP3    H239723   5.225   1.306   5.313 -0.0563 -1.8377 -2.2404
 6078TIP3   OH239724   1.176   5.398  13.615 -0.4225 -0.2347  0.3806
 6078TIP3    H139725   1.102   5.450  13.584 -1.1880 -1.3360  0.3268
 6078TIP3    H239726   1.227   5.459  13.669 -1.3235  0.5563  0.3639
 6079TIP3   OH239727   2.951   3.569  15.333 -0.6271  0.0172 -0.8246
 6079TIP3    H139728   2.954   3.655  15.291 -1.1989  0.8410  0.7155
 6079TIP3    H239729   2.858   3.549  15.340 -0.5480 -0.1450 -0.0864
 6080TIP3   OH239730   5.244   6.265   0.556  0.1445  0.0688 -0.0200
 6080TIP3    H139731   5.313   6.272   0.489 -0.7876  0.1268 -0.9972
 6080TIP3    H239732   5.274   6.195   0.614  1.1130  0.2192 -0.3176
 6081TIP3   OH239733   4.537   0.936  14.429 -0.6951 -1.0015 -0.1043
 6081TIP3    H139734   4.626   0.968  14.410 -1.0436  0.5382  0.6606
 6081TIP3    H239735   4.491   0.946  14.346 -0.8086  0.6777  0.1190
 6082TIP3   OH239736   1.011   5.729   4.828 -0.0214  0.2043  0.3276
 6082TIP3    H139737   1.090   5.780   4.842  0.9231 -1.3459  0.9235
 6082TIP3    H239738   0.964   5.775   4.759  2.4333  0.0358 -1.5706
 6083TIP3   OH239739   4.318   5.709   2.619 -0.1348  0.3742 -0.1177
 6083TIP3    H139740   4.315   5.787   2.563 -1.6087  0.4328  0.0197
 6083TIP3    H239741   4.267   5.644   2.572  1.3255 -0.6404 -0.3740
 6084TIP3   OH239742   1.086   6.567   1.991  0.2313 -0.3189  0.2987
 6084TIP3    H139743   1.089   6.545   2.084 -1.1866  0.2234  0.5060
 6084TIP3    H239744   1.104   6.485   1.946 -1.0423 -1.0506  1.0561
 6085TIP3   OH239745   0.280   4.370   6.268 -0.0902  0.3728  0.6380
 6085TIP3    H139746   0.367   4.359   6.307  0.0586  1.6817  0.7113
 6085TIP3    H239747   0.233   4.290   6.290  0.5383  0.3787  2.0703
 6086TIP3   OH239748   4.063   2.669  12.397 -0.0262 -0.0326  0.3397
 6086TIP3    H139749   4.150   2.636  12.417  1.0310  1.5901 -1.2954
 6086TIP3    H239750   4.015   2.663  12.480  1.3033 -1.8155  1.0548
 6087TIP3   OH239751   3.583   0.639   2.501 -0.1509  0.2264  0.0160
 6087TIP3    H139752   3.634   0.633   2.582  0.5222 -1.3354 -0.4858
 6087TIP3    H239753   3.624   0.576   2.442 -0.0749  1.9492 -1.8865
 6088TIP3   OH239754   5.505   4.890  15.874  0.0252  0.6563  0.3883
 6088TIP3    H139755   5.448   4.819  15.902  0.3653  0.4016  0.4335
 6088TIP3    H239756   5.458   4.929  15.800  0.3359 -0.2913 -0.3249
 6089TIP3   OH239757   2.269   5.435  16.510  0.2961 -0.7940  0.4953
 6089TIP3    H139758   2.295   5.456  16.599 -0.5198  0.2862  0.4955
 6089TIP3    H239759   2.325   5.491  16.455 -0.1867 -0.4016  0.3972
 6090TIP3   OH239760   4.708   0.967   3.730  0.5123  0.1473  0.7644
 6090TIP3    H139761   4.691   1.058   3.704 -0.5271 -0.1257  0.4458
 6090TIP3    H239762   4.802   0.965   3.751  1.0524  0.8046 -1.3164
 6091TIP3   OH239763   3.170   6.608   1.360 -0.3478 -0.7643 -0.1791
 6091TIP3    H139764   3.266   6.614   1.359 -0.4508  1.7188 -1.0709
 6091TIP3    H239765   3.151   6.521   1.325  1.5636 -0.9154 -0.9587
 6092TIP3   OH239766   0.482   5.410   2.624  0.1081 -0.2885  0.1723
 6092TIP3    H139767   0.527   5.363   2.554  0.0734 -0.5752  0.3389
 6092TIP3    H239768   0.536   5.487   2.640  0.5889 -0.6744  0.4305
 6093TIP3   OH239769   3.471   0.937  15.721 -0.7780  0.6796  0.2463
 6093TIP3    H139770   3.480   1.024  15.759 -0.6759  1.2923 -1.1309
 6093TIP3    H239771   3.399   0.945  15.659 -2.3015 -0.8280  1.7202
 6094TIP3   OH239772   5.457   0.064   0.468  0.1200  0.1005 -0.1190
 6094TIP3    H139773   5.475   0.141   0.414  1.6965 -0.0672  0.1284
 6094TIP3    H239774   5.524   0.066   0.536  0.0471 -1.3567  0.0305
 6095TIP3   OH239775   5.127   2.501  13.026  0.3045  0.4346  0.2783
 6095TIP3    H139776   5.120   2.425  13.084  1.0579  0.6999  0.7209
 6095TIP3    H239777   5.059   2.561  13.058  0.7355  0.5931  0.9110
 6096TIP3   OH239778   4.452   6.651   0.414 -0.1204  0.0812 -0.2452
 6096TIP3    H139779   4.430   6.743   0.408 -1.2224 -0.1949 -0.7385
 6096TIP3    H239780   4.384   6.607   0.362  0.2797 -1.0109  0.1325
 6097TIP3   OH239781   5.221   5.928  13.449  0.6068 -0.1684 -0.0919
 6097TIP3    H139782   5.131   5.954  13.470  0.0136 -3.1941  1.7129
 6097TIP3    H239783   5.259   6.005  13.407 -2.5919  1.4571 -0.3043
 6098TIP3   OH239784   3.776   4.357  15.585  0.1231 -0.2090 -0.1577
 6098TIP3    H139785   3.861   4.390  15.616 -0.6456 -0.5166  2.4560
 6098TIP3    H239786   3.744   4.427  15.528  1.1334  0.9412  0.6145
 6099TIP3   OH239787   0.964   5.337  13.105 -0.5100 -0.2927  0.2865
 6099TIP3    H139788   1.017   5.275  13.054 -0.5668 -0.9519  1.0028
 6099TIP3    H239789   1.014   5.418  13.105 -1.0598  0.0952 -1.8071
 6100TIP3   OH239790   1.379   3.042   1.068  0.3161 -0.4818  0.6559
 6100TIP3    H139791   1.453   3.033   1.008  0.9479  0.4811  1.2618
 6100TIP3    H239792   1.406   3.111   1.129 -1.9971  1.6091 -0.4799
 6101TIP3   OH239793   2.475   0.618   6.078 -0.3663 -0.1725 -0.1897
 6101TIP3    H139794   2.489   0.572   6.161 -0.6084 -1.3756 -0.7938
 6101TIP3    H239795   2.400   0.574   6.038 -0.4832  0.6283 -0.8896
 6102TIP3   OH239796   4.312   2.251   1.218  0.9992 -0.1178 -0.4814
 6102TIP3    H139797   4.345   2.195   1.288  1.1011  0.6864  0.1260
 6102TIP3    H239798   4.387   2.261   1.158  1.3612  0.3511  0.0366
 6103TIP3   OH239799   3.452   6.708   5.002 -0.3596 -0.0383  0.1650
 6103TIP3    H139800   3.376   6.734   4.950 -0.3375  1.2000  0.7212
 6103TIP3    H239801   3.527   6.745   4.956 -0.2703  0.3611  0.6212
 6104TIP3   OH239802   5.926   3.870  13.323  0.2226  0.5985  0.0872
 6104TIP3    H139803   5.884   3.947  13.285 -0.9909  0.8469  1.8080
 6104TIP3    H239804   6.011   3.901  13.353  1.1397  0.4324 -2.1480
 6105TIP3   OH239805   3.013   1.179  16.865  0.0410  0.8658 -0.6101
 6105TIP3    H139806   2.937   1.182  16.806  0.4517  0.7776 -1.1438
 6105TIP3    H239807   3.083   1.140  16.813 -0.6611 -3.1490  1.1448
 6106TIP3   OH239808   2.615   2.700  13.062  0.0574  0.1254  0.3747
 6106TIP3    H139809   2.688   2.638  13.055 -1.5396 -1.6334 -3.2676
 6106TIP3    H239810   2.543   2.648  13.100 -1.0017 -0.0549 -1.7517
 6107TIP3   OH239811   6.472   6.725  13.308  0.0313  0.7466 -0.7137
 6107TIP3    H139812   6.548   6.666  13.314  0.0665  0.8221 -0.4208
 6107TIP3    H239813   6.475   6.758  13.218 -0.6744 -0.6265 -1.2763
 6108TIP3   OH239814   2.161   3.234  13.027  0.3638 -0.0363  0.3774
 6108TIP3    H139815   2.221   3.244  12.953  1.1577 -0.8519  0.8883
 6108TIP3    H239816   2.126   3.146  13.017 -0.2952  0.2186  0.4226
 6109TIP3   OH239817   6.646   4.160   2.077 -0.2796 -0.6325 -0.0955
 6109TIP3    H139818   6.729   4.114   2.086  0.2231  0.0026 -1.2161
 6109TIP3    H239819   6.588   4.118   2.140  1.1964 -0.3334  1.5280
 6110TIP3   OH239820   4.735   2.695  13.930 -0.1135 -0.5948 -0.5176
 6110TIP3    H139821   4.743   2.731  14.018  0.3609  1.6711 -1.4120
 6110TIP3    H239822   4.821   2.657  13.912  0.4168  0.5750 -0.6144
 6111TIP3   OH239823   1.496   6.576  13.898  0.4995 -0.2504 -0.3135
 6111TIP3    H139824   1.453   6.515  13.959  2.3981 -2.5541 -1.1081
 6111TIP3    H239825   1.585   6.584  13.932  1.2065 -0.5291 -2.0104
 6112TIP3   OH239826   3.573   6.623  13.973 -0.3098  0.2336 -0.4177
 6112TIP3    H139827   3.538   6.539  13.944 -0.4242  0.2348 -0.2842
 6112TIP3    H239828   3.590   6.671  13.892  0.1804 -0.0872 -0.5085
 6113TIP3   OH239829   4.018   1.015   3.732  0.1994  0.5486  0.1183
 6113TIP3    H139830   3.927   0.993   3.753 -0.2275  1.1041 -1.0689
 6113TIP3    H239831   4.049   0.941   3.679  1.0869 -0.5704  2.0871
 6114TIP3   OH239832   5.922   0.432   4.860  0.7534 -0.3098 -0.0726
 6114TIP3    H139833   5.925   0.443   4.955 -0.3916  1.1589 -0.1865
 6114TIP3    H239834   6.002   0.383   4.839  0.3901 -1.8056  1.7660
 6115TIP3   OH239835   1.866   0.351   5.301 -0.2544  0.0682 -0.0370
 6115TIP3    H139836   1.960   0.333   5.295 -0.7431 -2.5412 -1.9621
 6115TIP3    H239837   1.837   0.301   5.378  0.2885  3.4867  2.6180
 6116TIP3   OH239838   3.437   1.783   3.798 -0.0973 -0.0231 -0.4579
 6116TIP3    H139839   3.516   1.803   3.748 -0.3542  0.8201 -0.5461
 6116TIP3    H239840   3.463   1.713   3.858  0.4805 -0.3514 -1.0801
 6117TIP3   OH239841   0.771   5.886   3.045 -0.1562 -0.3629 -0.1144
 6117TIP3    H139842   0.778   5.933   2.962  0.4080  3.7303  2.0020
 6117TIP3    H239843   0.696   5.828   3.033 -0.8632  0.9650 -3.1046
 6118TIP3   OH239844   2.189   1.420  15.340  0.1006  0.0389  0.0099
 6118TIP3    H139845   2.213   1.506  15.374 -0.3761 -0.4343  1.6270
 6118TIP3    H239846   2.171   1.435  15.247 -1.5719  2.0336  0.5770
 6119TIP3   OH239847   2.564   3.682  16.334  0.1953  0.2444  0.6667
 6119TIP3    H139848   2.475   3.709  16.310  0.2864  0.2139  0.2821
 6119TIP3    H239849   2.613   3.763  16.343  0.6483  0.2409 -1.1811
 6120TIP3   OH239850   4.899   0.342  16.178  0.4727  0.2216 -0.1689
 6120TIP3    H139851   4.865   0.431  16.169 -0.2507 -0.1996 -2.3380
 6120TIP3    H239852   4.878   0.316  16.268 -0.0586  1.9301  0.2284
 6121TIP3   OH239853   6.397   4.277  12.503  0.1052  0.6609  0.4567
 6121TIP3    H139854   6.340   4.354  12.499 -0.2367  0.3940  0.1779
 6121TIP3    H239855   6.479   4.306  12.464 -0.3960  0.5574 -0.7287
 6122TIP3   OH239856   0.565   1.350  11.788 -0.1041 -0.3998 -0.0972
 6122TIP3    H139857   0.518   1.412  11.844  0.6428 -0.0731  0.1938
 6122TIP3    H239858   0.499   1.315  11.729 -0.9234 -0.7814  1.0117
 6123TIP3   OH239859   4.760   1.299   5.363 -0.8883 -0.1001  0.0462
 6123TIP3    H139860   4.720   1.369   5.311 -1.5772 -2.3201 -2.5980
 6123TIP3    H239861   4.795   1.238   5.299 -0.2119 -2.1589  2.2522
 6124TIP3   OH239862   0.916   1.242   3.318 -0.4276  0.6805  0.2176
 6124TIP3    H139863   0.946   1.164   3.272  1.0291  0.1467  1.9722
 6124TIP3    H239864   0.821   1.238   3.311 -0.4837 -1.9927  1.3708
 6125TIP3   OH239865   6.560   5.268  12.644  0.4040  0.1771  0.9611
 6125TIP3    H139866   6.655   5.280  12.634  0.1452  0.3573 -2.2312
 6125TIP3    H239867   6.523   5.299  12.561 -2.4261 -0.3734  1.9161
 6126TIP3   OH239868   2.582   5.410   0.044 -0.6493 -0.0113 -0.6509
 6126TIP3    H139869   2.580   5.349   0.117 -0.2941 -0.3945 -0.9582
 6126TIP3    H239870   2.674   5.432   0.033 -0.4556 -1.3744 -2.1385
 6127TIP3   OH239871   1.868   2.962  13.355 -0.1948  0.0430  0.6833
 6127TIP3    H139872   1.920   3.039  13.380 -0.6756 -0.2408  2.7508
 6127TIP3    H239873   1.777   2.990  13.361 -0.3521 -0.0855 -0.7597
 6128TIP3   OH239874   4.096   0.783   0.285 -0.6604  0.0525  0.1181
 6128TIP3    H139875   4.134   0.817   0.367 -0.3094  0.3643 -0.1664
 6128TIP3    H239876   4.046   0.857   0.250 -1.8943 -0.4810  0.6946
 6129TIP3   OH239877   1.589   1.105  16.991  0.0338  0.3005 -0.3804
 6129TIP3    H139878   1.520   1.041  16.973 -0.7101  1.6773 -2.8606
 6129TIP3    H239879   1.670   1.057  16.978 -0.5150 -0.2316 -2.1336
 6130TIP3   OH239880   0.532   0.560  14.237 -1.0203  0.0087 -0.0699
 6130TIP3    H139881   0.593   0.531  14.169 -0.8480 -0.7616  0.4041
 6130TIP3    H239882   0.538   0.494  14.305 -0.7765  1.0732  0.9676
 6131TIP3   OH239883   2.306   4.362   3.192 -0.1756 -0.4675  0.3173
 6131TIP3    H139884   2.387   4.311   3.192 -0.4037 -0.8321  0.2364
 6131TIP3    H239885   2.270   4.350   3.104  0.1170  0.3971  0.0639
 6132TIP3   OH239886   6.318   2.668  11.578 -0.3559 -0.3598 -0.6972
 6132TIP3    H139887   6.272   2.752  11.575 -0.4094 -0.3560  0.1064
 6132TIP3    H239888   6.407   2.691  11.603  0.0714 -0.3843 -2.0898
 6133TIP3   OH239889   4.380   1.160   4.821  0.4666 -0.1085 -0.1538
 6133TIP3    H139890   4.452   1.137   4.764  0.7633 -0.0498  0.1947
 6133TIP3    H239891   4.376   1.256   4.817 -0.0349 -0.1415 -0.7071
 6134TIP3   OH239892   2.168   1.708   0.592 -0.0200 -0.2256 -0.1221
 6134TIP3    H139893   2.120   1.658   0.656 -0.9389  0.4601 -0.2553
 6134TIP3    H239894   2.101   1.755   0.542  0.7641  0.6895 -0.3637
 6135TIP3   OH239895   1.697   4.177  14.405  0.2053  0.6210  0.2973
 6135TIP3    H139896   1.667   4.098  14.451  0.4122  1.3491  1.7481
 6135TIP3    H239897   1.785   4.192  14.439  1.1309  0.1376 -1.7797
 6136TIP3   OH239898   4.583   3.391   4.569 -1.0194 -0.5601 -0.3500
 6136TIP3    H139899   4.493   3.407   4.540 -1.5376 -1.9329  0.4077
 6136TIP3    H239900   4.608   3.471   4.615 -1.0740  0.6568 -2.3354
 6137TIP3   OH239901   0.954   0.578  15.344  0.2818  0.4776  0.1640
 6137TIP3    H139902   1.003   0.643  15.294  0.4476  0.1820 -0.0655
 6137TIP3    H239903   0.995   0.494  15.321 -0.1098  0.2630  0.2331
 6138TIP3   OH239904   6.531   0.761   4.161  0.2456 -0.0868 -0.1615
 6138TIP3    H139905   6.548   0.683   4.106 -0.2670 -2.1754  2.4395
 6138TIP3    H239906   6.444   0.746   4.196  0.7028  0.9683  1.4892
 6139TIP3   OH239907   0.053   3.834   2.879  0.0941 -0.3360  0.5639
 6139TIP3    H139908   0.018   3.875   2.958  0.0218  2.2704 -0.7059
 6139TIP3    H239909   0.145   3.817   2.899  0.4915  1.7564  0.7485
 6140TIP3   OH239910   1.250   0.001   6.741 -0.4772  0.1354 -0.2180
 6140TIP3    H139911   1.342  -0.004   6.715 -0.7203 -0.5775 -0.9982
 6140TIP3    H239912   1.221   0.086   6.707 -0.6139 -0.4930 -1.7825
 6141TIP3   OH239913   5.005   5.633   0.067 -0.1321  0.0380  0.3164
 6141TIP3    H139914   5.041   5.556   0.111  0.3020 -0.0711 -0.2295
 6141TIP3    H239915   5.078   5.671   0.019 -0.4147  0.6169  0.3281
 6142TIP3   OH239916   4.301   2.857  11.789 -0.2136  0.0467 -0.5353
 6142TIP3    H139917   4.374   2.883  11.733  1.0427 -0.4507  0.7693
 6142TIP3    H239918   4.239   2.813  11.731  1.1188 -0.6049 -1.5089
 6143TIP3   OH239919   5.052   1.383   2.847  0.2142 -0.6825 -0.0203
 6143TIP3    H139920   5.037   1.458   2.905  0.6216 -1.6459  1.3970
 6143TIP3    H239921   4.972   1.375   2.795 -0.8915 -0.8156  1.6298
 6144TIP3   OH239922   3.889   0.708  15.243  0.2187 -0.3210  0.0554
 6144TIP3    H139923   3.972   0.662  15.252 -0.2906 -1.5029 -1.0445
 6144TIP3    H239924   3.856   0.717  15.332  0.3352 -2.1135  0.3112
 6145TIP3   OH239925   0.073   2.894  14.487 -0.6474 -0.2382  0.6861
 6145TIP3    H139926   0.031   2.816  14.453  0.7561 -0.3563 -0.9053
 6145TIP3    H239927   0.166   2.878  14.475 -0.3165  1.4852  0.7341
 6146TIP3   OH239928   4.736   5.512  12.867  0.2093  0.0109 -0.4749
 6146TIP3    H139929   4.746   5.500  12.773 -0.7993  0.5868 -0.6757
 6146TIP3    H239930   4.649   5.477  12.887  0.5439 -0.3996  0.2974
 6147TIP3   OH239931   1.397   4.563  13.015 -0.1093  0.4098 -0.2897
 6147TIP3    H139932   1.328   4.532  13.074 -0.0532  1.8091  0.5634
 6147TIP3    H239933   1.414   4.490  12.957 -0.5001 -0.8623  1.1400
 6148TIP3   OH239934   1.135   2.568   0.446  0.0569  0.8046  0.2780
 6148TIP3    H139935   1.129   2.491   0.389  2.4445  0.0162  0.9935
 6148TIP3    H239936   1.130   2.642   0.386  0.0235  0.0590 -0.6721
 6149TIP3   OH239937   4.381   6.659   5.868  0.4468  0.0856  1.1552
 6149TIP3    H139938   4.325   6.584   5.846  0.4268  0.3281  0.3612
 6149TIP3    H239939   4.466   6.637   5.830 -0.1268  1.4490 -1.1549
 6150TIP3   OH239940   3.957   0.003   5.501  0.1144 -0.2886  0.0467
 6150TIP3    H139941   3.954  -0.037   5.413 -1.0224 -0.0098 -0.0497
 6150TIP3    H239942   3.900  -0.053   5.554 -2.4212  1.7511 -0.3477
 6151TIP3   OH239943   1.757   5.253  16.973 -0.1201 -0.3516  0.6497
 6151TIP3    H139944   1.845   5.235  17.005  0.5184  2.5552  0.8339
 6151TIP3    H239945   1.768   5.267  16.879 -0.8018 -2.0218  0.2817
 6152TIP3   OH239946   3.351   0.012  15.886 -0.6229 -0.3699 -0.1011
 6152TIP3    H139947   3.425   0.040  15.940 -0.0288 -1.9621 -0.0095
 6152TIP3    H239948   3.352   0.071  15.810 -0.1850  0.5682  0.6155
 6153TIP3   OH239949   6.167   2.630   4.450 -0.5216 -0.3643  1.0176
 6153TIP3    H139950   6.177   2.716   4.408  0.2779 -0.1576  1.6146
 6153TIP3    H239951   6.212   2.569   4.391 -0.2113 -0.2182  1.1014
 6154TIP3   OH239952   2.195   3.634  12.426 -0.0330 -0.2271  0.1356
 6154TIP3    H139953   2.110   3.675  12.409  0.0532 -0.9378 -2.5857
 6154TIP3    H239954   2.232   3.684  12.498 -2.5990  0.3027  1.2022
 6155TIP3   OH239955   3.321   6.366  16.924  0.6078 -0.1765 -0.9623
 6155TIP3    H139956   3.408   6.328  16.910  0.4796 -0.7264 -0.2805
 6155TIP3    H239957   3.327   6.454  16.886  1.6793  0.0449 -0.3201
 6156TIP3   OH239958   4.954   1.844  13.182  0.4968  0.3652  0.0008
 6156TIP3    H139959   4.969   1.912  13.116  1.2961  0.7095  0.5267
 6156TIP3    H239960   4.964   1.888  13.266 -1.5412  0.1691  0.4163
 6157TIP3   OH239961   2.541   3.529  14.952  0.5578  0.4776  0.2106
 6157TIP3    H139962   2.506   3.516  14.863 -1.5805 -0.4746  1.1153
 6157TIP3    H239963   2.464   3.554  15.004  1.1595 -1.8064  2.3801
 6158TIP3   OH239964   2.284   2.923   1.597 -0.0614  0.3133  0.1538
 6158TIP3    H139965   2.332   2.841   1.608 -0.5573  0.1813  1.4907
 6158TIP3    H239966   2.205   2.898   1.548  1.0481  0.4874 -1.8130
 6159TIP3   OH239967   3.636   2.854  13.378 -0.2456 -0.6137  0.1512
 6159TIP3    H139968   3.659   2.763  13.399 -0.2645 -0.1319  2.5235
 6159TIP3    H239969   3.709   2.905  13.414 -0.1523  0.3274 -1.3078
 6160TIP3   OH239970   6.129   6.608  15.707 -0.3083 -0.2941  0.3181
 6160TIP3    H139971   6.145   6.515  15.722 -3.0169 -0.8731 -0.0287
 6160TIP3    H239972   6.121   6.646  15.794  3.3576  0.2576  0.5999
 6161TIP3   OH239973   3.894   2.106  13.514 -0.2012  0.0869 -0.4001
 6161TIP3    H139974   3.827   2.064  13.569 -0.5100  2.5705  1.2875
 6161TIP3    H239975   3.976   2.090  13.560 -0.0618 -0.2268 -0.7531
 6162TIP3   OH239976   4.603   3.953   6.560  0.0457  0.2543 -0.2458
 6162TIP3    H139977   4.604   3.895   6.485 -1.1176 -1.8926  1.3065
 6162TIP3    H239978   4.631   4.038   6.525 -2.0507 -0.2103 -3.4176
 6163TIP3   OH239979   3.418   4.756   0.058 -0.4188 -0.3589  0.4477
 6163TIP3    H139980   3.425   4.836   0.006  1.4157 -0.2119  0.8321
 6163TIP3    H239981   3.414   4.787   0.148 -1.1789 -0.6738  0.5242
 6164TIP3   OH239982   0.737   2.877   2.060 -0.2055 -0.0125  0.3725
 6164TIP3    H139983   0.775   2.867   2.148 -0.0302 -3.2658  0.0468
 6164TIP3    H239984   0.812   2.897   2.004 -0.1093  0.7324  0.7580
 6165TIP3   OH239985   4.857   5.431   2.380  0.9380  0.4133 -0.2843
 6165TIP3    H139986   4.889   5.504   2.432 -1.3663  1.0549  0.3350
 6165TIP3    H239987   4.763   5.448   2.369  0.1786 -2.7009  0.3374
 6166TIP3   OH239988   5.806   1.538  14.844 -0.0141  0.1878 -0.1516
 6166TIP3    H139989   5.740   1.481  14.884  0.0563 -1.5944 -2.3870
 6166TIP3    H239990   5.884   1.525  14.899 -0.3644 -0.9207  0.1169
 6167TIP3   OH239991   3.149   1.190  15.319  0.0760  0.0197 -0.5446
 6167TIP3    H139992   3.095   1.120  15.283 -0.0544 -0.4294  0.4800
 6167TIP3    H239993   3.168   1.247  15.245 -1.5712  0.0343 -0.9985
 6168TIP3   OH239994   3.241   6.260   3.154 -0.0963 -0.2099  0.0342
 6168TIP3    H139995   3.250   6.343   3.200  1.4003 -0.7001  0.6792
 6168TIP3    H239996   3.295   6.270   3.075 -1.2143 -0.0119 -0.7273
 6169TIP3   OH239997   0.736   5.832  11.932 -0.2860 -0.5914  0.4098
 6169TIP3    H139998   0.818   5.789  11.954  0.2126  0.0180 -0.1939
 6169TIP3    H239999   0.670   5.763  11.936  0.2550 -1.0876  0.9048
 6170TIP3   OH240000   6.704   0.272   4.082 -0.0825 -0.7719  0.6622
 6170TIP3    H140001   6.635   0.336   4.099 -0.9404 -1.1781 -1.0596
 6170TIP3    H240002   6.780   0.325   4.058 -0.7112 -0.3770 -0.5018
 6171TIP3   OH240003   3.087   5.132   1.883 -0.2503 -0.5307 -0.2397
 6171TIP3    H140004   3.082   5.207   1.824 -0.1252  0.2547  0.7075
 6171TIP3    H240005   3.004   5.134   1.931  0.2370 -0.2650  0.6214
 6172TIP3   OH240006   2.352   5.679  12.505 -0.1304 -0.1528 -0.7146
 6172TIP3    H140007   2.403   5.756  12.481  1.3647 -0.7276  0.4618
 6172TIP3    H240008   2.268   5.715  12.536 -0.2865  0.8309 -2.1861
 6173TIP3   OH240009   0.776   2.187   2.618 -0.0354  0.5524  0.2264
 6173TIP3    H140010   0.825   2.117   2.662  0.0677  0.7664  0.4550
 6173TIP3    H240011   0.762   2.253   2.686  0.1160  0.8829 -0.0615
 6174TIP3   OH240012   1.115   0.373   4.262 -0.0357  0.3970  0.0856
 6174TIP3    H140013   1.023   0.345   4.260 -1.0056  3.2559 -0.5306
 6174TIP3    H240014   1.143   0.369   4.171  0.7145 -1.1259  0.3624
 6175TIP3   OH240015   3.842   3.021  12.640  0.0191 -0.6111 -0.3693
 6175TIP3    H140016   3.749   3.044  12.635  0.3377  0.5720 -1.3964
 6175TIP3    H240017   3.886   3.088  12.587  1.4922 -0.9799  0.3383
 6176TIP3   OH240018   3.884   0.570   4.952 -0.9597 -0.4357  0.6140
 6176TIP3    H140019   3.899   0.664   4.942  2.5883 -0.9357 -0.2638
 6176TIP3    H240020   3.801   0.554   4.907 -0.3520  1.9267 -1.6275
 6177TIP3   OH240021   1.199   0.121  16.460  0.2284 -0.0195  0.9488
 6177TIP3    H140022   1.218   0.036  16.421 -2.8698  0.1387 -1.3175
 6177TIP3    H240023   1.169   0.101  16.548 -0.2330 -1.2942  0.5265
 6178TIP3   OH240024   3.123   5.716   3.923 -0.1385  0.2317  0.0346
 6178TIP3    H140025   3.159   5.724   4.011 -2.8341  3.3088  1.0795
 6178TIP3    H240026   3.164   5.787   3.874 -0.2576 -0.1032 -0.5521
 6179TIP3   OH240027   6.650   1.237  11.589 -0.1324 -0.3930 -0.2545
 6179TIP3    H140028   6.696   1.321  11.583 -1.6417  0.4152 -1.3876
 6179TIP3    H240029   6.640   1.222  11.682 -1.7769  1.8774  0.0354
 6180TIP3   OH240030   4.609   2.750   6.217 -0.0832  0.0357  0.1109
 6180TIP3    H140031   4.685   2.780   6.267 -1.3994  1.7089  1.2217
 6180TIP3    H240032   4.606   2.808   6.141  0.3152 -0.6962 -0.4752
 6181TIP3   OH240033   2.085   3.366  15.321 -0.0726 -0.0777  0.2272
 6181TIP3    H140034   2.028   3.307  15.271  1.4113 -1.7607  0.4179
 6181TIP3    H240035   2.044   3.452  15.313  0.2876 -0.1117 -4.2326
 6182TIP3   OH240036   3.394   1.365   2.121 -0.4397 -0.0884 -0.2664
 6182TIP3    H140037   3.456   1.433   2.096 -0.9002  0.6958  0.6633
 6182TIP3    H240038   3.365   1.390   2.209  1.0041 -2.5971  1.0694
 6183TIP3   OH240039   1.515   2.446  15.978  0.1228 -0.7079  0.3623
 6183TIP3    H140040   1.562   2.400  15.908  1.5702  1.1565  0.0014
 6183TIP3    H240041   1.442   2.490  15.933 -0.1514 -1.1389  0.3832
 6184TIP3   OH240042   4.205   4.501   0.591  0.0711  0.0587 -0.1512
 6184TIP3    H140043   4.229   4.490   0.499  0.2489 -0.8596 -0.0045
 6184TIP3    H240044   4.277   4.459   0.639  0.4385  1.3151  0.4444
 6185TIP3   OH240045   1.754   0.460  13.721 -0.5610 -0.5491 -0.1060
 6185TIP3    H140046   1.797   0.456  13.636  1.7074 -0.5240  0.9567
 6185TIP3    H240047   1.669   0.500  13.704  0.3899  0.7579 -2.1528
 6186TIP3   OH240048   3.885   2.364   5.425  0.3616 -0.1613 -0.0309
 6186TIP3    H140049   3.838   2.349   5.507  1.6308  2.1280  1.2288
 6186TIP3    H240050   3.860   2.452   5.399  1.7562  0.0197 -0.8548
 6187TIP3   OH240051   4.933   1.669  11.888 -0.6681 -0.3697 -0.0425
 6187TIP3    H140052   4.875   1.701  11.958  0.8607  0.2452  0.9951
 6187TIP3    H240053   4.940   1.743  11.828 -0.0884 -0.0177  0.4348
 6188TIP3   OH240054   2.558   0.921  14.315 -0.0747 -0.0272 -0.0749
 6188TIP3    H140055   2.650   0.898  14.302  0.3068  1.8694 -1.2089
 6188TIP3    H240056   2.510   0.848  14.277  0.9549 -0.9379  0.3140
 6189TIP3   OH240057   4.654   3.182   2.624  0.2123 -0.3190  0.8492
 6189TIP3    H140058   4.748   3.192   2.645  0.4071 -0.3124 -0.0173
 6189TIP3    H240059   4.609   3.215   2.702  0.8103  4.9604 -0.6215
 6190TIP3   OH240060   0.013   0.650  15.343 -0.0917 -0.0326 -0.3874
 6190TIP3    H140061  -0.064   0.629  15.290 -0.1889 -0.4231 -0.0950
 6190TIP3    H240062   0.050   0.564  15.366  2.2508  0.0742 -3.1400
 6191TIP3   OH240063   1.183   6.488   0.834  0.3825 -0.5322 -0.2949
 6191TIP3    H140064   1.155   6.397   0.824  0.7944 -0.6974  0.0020
 6191TIP3    H240065   1.166   6.528   0.749 -1.3147 -0.4572  0.0360
 6192TIP3   OH240066   3.838   6.400  11.331 -0.2473 -0.3645  0.5029
 6192TIP3    H140067   3.838   6.437  11.243  1.7513  1.0496  1.0181
 6192TIP3    H240068   3.748   6.411  11.362 -0.4573  1.1743 -0.5584
 6193TIP3   OH240069   3.950   1.193   3.448  0.5631  0.1691 -0.3704
 6193TIP3    H140070   4.007   1.225   3.518  1.1405 -1.1466 -0.2176
 6193TIP3    H240071   3.863   1.226   3.472  0.5167 -1.2470  1.6573
 6194TIP3   OH240072   4.386   5.972   4.320 -0.4697  0.0124 -0.0170
 6194TIP3    H140073   4.419   6.006   4.236  0.9543 -0.5823  0.2676
 6194TIP3    H240074   4.382   6.049   4.377  1.3275  0.0027  0.1889
 6195TIP3   OH240075   3.237   1.997  15.037  0.0006 -0.9329 -0.0257
 6195TIP3    H140076   3.162   1.939  15.024 -0.2537 -0.6027 -0.0293
 6195TIP3    H240077   3.274   2.008  14.949 -1.9092  1.5593 -0.6258
 6196TIP3   OH240078   6.003   4.215  14.648  0.1472  0.4855 -0.7764
 6196TIP3    H140079   6.048   4.157  14.587 -1.0589  0.5026 -1.7149
 6196TIP3    H240080   5.914   4.179  14.656  0.2075  0.5902  0.8365
 6197TIP3   OH240081   2.570   1.987   1.433 -0.0706  0.2117 -0.4943
 6197TIP3    H140082   2.594   1.975   1.525 -2.0030  1.4395  0.2330
 6197TIP3    H240083   2.566   1.898   1.397 -1.9355 -0.5369  1.3700
 6198TIP3   OH240084   5.238   6.348   0.217 -0.2646  0.4927 -0.4872
 6198TIP3    H140085   5.322   6.385   0.245 -1.1503  1.2396  1.4166
 6198TIP3    H240086   5.215   6.285   0.286 -0.9085 -0.2795 -1.3824
 6199TIP3   OH240087   2.861   3.535  11.395 -0.1980  0.0892 -0.2696
 6199TIP3    H140088   2.776   3.569  11.420 -0.9520 -2.0683  0.3147
 6199TIP3    H240089   2.855   3.519  11.301  0.0581  1.1824 -0.4882
 6200TIP3   OH240090   6.534   6.753   5.112 -0.4405 -0.3465 -0.1990
 6200TIP3    H140091   6.603   6.687   5.107  0.0859  0.2823 -1.7420
 6200TIP3    H240092   6.581   6.834   5.136 -1.1085 -0.5144  1.9294
 6201TIP3   OH240093   5.281   3.925   6.215  0.1993  0.1867 -0.4700
 6201TIP3    H140094   5.294   3.939   6.309 -1.5455 -0.5998 -0.0661
 6201TIP3    H240095   5.252   3.834   6.209 -0.6276  0.5132 -1.6542
 6202TIP3   OH240096   1.978   1.988  12.984 -0.1593 -0.2265  0.4490
 6202TIP3    H140097   1.943   2.074  13.009 -0.8792  0.1352 -1.6480
 6202TIP3    H240098   2.073   2.000  12.984 -0.2249  0.3489  0.8433
 6203TIP3   OH240099   6.804   6.067   1.534  0.4238 -0.0265  0.3418
 6203TIP3    H140100   6.859   6.009   1.586 -1.2940 -0.4606  1.7486
 6203TIP3    H240101   6.824   6.155   1.567  1.5071  0.0156 -0.3657
 6204TIP3   OH240102   3.738   3.369   4.690 -0.7199 -0.0725 -0.5610
 6204TIP3    H140103   3.813   3.347   4.634 -0.0073  0.1208  0.2878
 6204TIP3    H240104   3.765   3.342   4.778 -1.9337 -0.6343 -0.3489
 6205TIP3   OH240105   4.468   4.921  16.011 -0.2809 -0.0434 -0.1599
 6205TIP3    H140106   4.399   4.976  15.975 -0.6532 -0.0732  0.5075
 6205TIP3    H240107   4.498   4.869  15.936  0.0744  1.0494 -0.8034
 6206TIP3   OH240108   4.097   5.461   4.108  0.8282  0.3297  0.3015
 6206TIP3    H140109   4.105   5.367   4.119  0.5956  0.3089  0.2977
 6206TIP3    H240110   4.067   5.472   4.018 -0.5776  0.3285  0.7410
 6207TIP3   OH240111   0.641   4.549  15.267 -0.3586 -0.5346 -0.4353
 6207TIP3    H140112   0.611   4.508  15.185 -0.4964 -0.4071 -0.4484
 6207TIP3    H240113   0.737   4.551  15.258 -0.3767 -0.4489 -0.6272
 6208TIP3   OH240114   4.557   5.050  13.559  0.1283 -0.0001  0.2034
 6208TIP3    H140115   4.575   4.961  13.591 -1.6491 -0.0073  1.3059
 6208TIP3    H240116   4.602   5.054  13.475 -0.3370 -2.2120 -0.2241
 6209TIP3   OH240117   0.269   1.704  12.217 -0.2308 -0.4909  0.3357
 6209TIP3    H140118   0.227   1.657  12.145 -0.1629 -0.6353  0.3900
 6209TIP3    H240119   0.283   1.638  12.285 -3.1552  0.2095  1.7766
 6210TIP3   OH240120   5.025   0.749   3.512 -0.5602 -0.0621 -0.2179
 6210TIP3    H140121   5.011   0.693   3.436 -2.7259 -0.3592  0.3157
 6210TIP3    H240122   4.973   0.828   3.493 -1.5159 -0.3408  1.1179
 6211TIP3   OH240123   6.359   2.172  11.857 -0.4431 -0.2005  0.5456
 6211TIP3    H140124   6.380   2.093  11.907  0.6430  0.1710  0.6906
 6211TIP3    H240125   6.442   2.200  11.819 -1.1243 -0.0801 -0.9138
 6212TIP3   OH240126   2.134   5.776  16.517  0.1633  0.0038  0.1445
 6212TIP3    H140127   2.213   5.778  16.463  1.4210 -0.6896  1.8640
 6212TIP3    H240128   2.067   5.739  16.459  1.6087 -1.3214 -0.7870
 6213TIP3   OH240129   3.234   5.067   3.153 -0.3228 -0.2011  0.0417
 6213TIP3    H140130   3.159   5.115   3.117  2.6500  2.5484 -3.2346
 6213TIP3    H240131   3.261   5.010   3.081  1.1840 -0.5401  0.8579
 6214TIP3   OH240132   4.075   4.736  15.581 -0.3020 -0.4688  0.2750
 6214TIP3    H140133   4.044   4.807  15.637 -0.6625  0.1798 -0.7265
 6214TIP3    H240134   4.030   4.748  15.498 -2.8210 -3.7124  0.9649
 6215TIP3   OH240135   1.754   6.760  15.323 -0.0933  0.4615 -0.8905
 6215TIP3    H140136   1.741   6.677  15.279 -2.0475  1.3554 -2.1319
 6215TIP3    H240137   1.845   6.783  15.304  1.2509 -2.3516  1.3589
 6216TIP3   OH240138   1.779   2.113  13.877 -0.2360  0.2944 -0.3020
 6216TIP3    H140139   1.810   2.128  13.788 -0.0144 -0.5320 -0.3713
 6216TIP3    H240140   1.693   2.073  13.866 -0.4234  0.6432 -0.1329
 6217TIP3   OH240141   4.365   0.878   4.579 -0.2221  0.0226 -0.4886
 6217TIP3    H140142   4.305   0.944   4.544  0.5433  0.6056 -0.7036
 6217TIP3    H240143   4.427   0.927   4.633 -0.7417 -0.7377  0.8612
 6218TIP3   OH240144   5.346   3.819   0.072  0.6685  0.2961 -0.0795
 6218TIP3    H140145   5.424   3.791   0.023  0.5071 -1.5894  0.6792
 6218TIP3    H240146   5.342   3.914   0.058  2.0540  0.1680 -1.6293
 6219TIP3   OH240147   1.416   6.208  16.517  0.6777  0.4575 -0.0214
 6219TIP3    H140148   1.398   6.275  16.583  0.5319  0.7352 -0.3394
 6219TIP3    H240149   1.355   6.227  16.446  0.8527  0.1797 -0.2495
 6220TIP3   OH240150   1.742   4.855   3.706 -0.3803 -0.8158 -0.0141
 6220TIP3    H140151   1.731   4.768   3.668  0.0437 -1.0128  0.2967
 6220TIP3    H240152   1.661   4.869   3.756  0.2575 -1.7990  1.3938
 6221TIP3   OH240153   4.663   3.697  12.001 -0.1766  0.3961 -0.0952
 6221TIP3    H140154   4.732   3.631  12.006 -0.2081  0.1335 -2.0574
 6221TIP3    H240155   4.608   3.667  11.928 -0.9187  1.9371 -0.2001
 6222TIP3   OH240156   2.849   0.467  15.062 -0.3292 -0.4654 -0.0363
 6222TIP3    H140157   2.760   0.444  15.034 -0.7174 -1.9833  2.1229
 6222TIP3    H240158   2.906   0.422  15.000 -1.0921 -1.0676 -0.3295
 6223TIP3   OH240159   6.620   4.779   4.051 -0.6633 -0.2554  0.6324
 6223TIP3    H140160   6.604   4.794   4.145 -1.5857  0.8568  0.3175
 6223TIP3    H240161   6.558   4.709   4.028 -1.2135  0.2320  0.6182
 6224TIP3   OH240162   6.360   5.318   1.220 -0.5482  0.4672  0.0984
 6224TIP3    H140163   6.355   5.223   1.210 -1.7704  0.6856 -1.7314
 6224TIP3    H240164   6.439   5.332   1.273 -0.0363 -1.5210 -0.0589
 6225TIP3   OH240165   5.516   4.416   0.960 -0.0394 -0.0979 -0.1799
 6225TIP3    H140166   5.507   4.458   1.046 -0.8660 -0.9746  0.1940
 6225TIP3    H240167   5.462   4.337   0.968 -0.4704  0.0285 -1.6557
 6226TIP3   OH240168   5.160   0.438   5.250  0.0355  0.1358  0.0761
 6226TIP3    H140169   5.155   0.448   5.155  1.2582  0.8534  0.0712
 6226TIP3    H240170   5.210   0.358   5.263  1.8926  1.2433  0.0794
 6227TIP3   OH240171   1.109   5.935  16.598 -0.0319 -0.1953  0.1033
 6227TIP3    H140172   1.086   5.973  16.682  1.1159  2.0302 -0.5251
 6227TIP3    H240173   1.087   6.002  16.534 -0.8923 -1.8441 -1.4219
 6228TIP3   OH240174   0.829   3.461   5.312  0.1947 -0.3172 -0.4045
 6228TIP3    H140175   0.829   3.429   5.222 -0.0503 -0.5967 -0.3106
 6228TIP3    H240176   0.811   3.383   5.365  1.2256 -0.3229 -0.0422
 6229TIP3   OH240177   5.142   2.474   4.461  0.0823  0.2974 -0.0109
 6229TIP3    H140178   5.085   2.402   4.434 -0.3479 -0.5966  2.9480
 6229TIP3    H240179   5.223   2.432   4.489 -0.2084  0.8879  1.8523
 6230TIP3   OH240180   4.558   4.199   3.496 -0.1867 -0.0677 -0.4861
 6230TIP3    H140181   4.631   4.260   3.482 -0.4300  0.5770  0.8497
 6230TIP3    H240182   4.481   4.247   3.466 -0.1447 -0.5364 -1.3760
 6231TIP3   OH240183   3.322   6.316   1.464 -0.3907  0.0792  0.5976
 6231TIP3    H140184   3.307   6.243   1.405 -1.6298 -0.0700  1.0774
 6231TIP3    H240185   3.413   6.342   1.448 -0.0160 -1.3897  0.2438
 6232TIP3   OH240186   4.330   5.895  13.955  0.5825 -0.6986  0.8990
 6232TIP3    H140187   4.291   5.966  13.904  0.0872 -1.8860 -0.4481
 6232TIP3    H240188   4.388   5.939  14.017  0.3193  0.8756  0.0813
 6233TIP3   OH240189   6.619   6.199   1.165  0.2001  0.4439  0.3310
 6233TIP3    H140190   6.607   6.291   1.141 -0.3521  0.5927  1.1296
 6233TIP3    H240191   6.599   6.196   1.258  3.8242  0.1732  1.2543
 6234TIP3   OH240192   1.488   4.583  12.295  0.1476  0.0237  0.3715
 6234TIP3    H140193   1.509   4.674  12.317 -1.2902  1.0982 -2.2257
 6234TIP3    H240194   1.407   4.564  12.341  0.1836  0.2376  0.5213
 6235TIP3   OH240195   5.482   0.020  15.772 -0.4057  0.2354  0.1545
 6235TIP3    H140196   5.464   0.110  15.746 -0.5443  0.9342  2.3974
 6235TIP3    H240197   5.536  -0.015  15.702 -0.9603  1.8161 -1.1311
 6236TIP3   OH240198   0.078   5.041   3.138  0.5349  0.1967  0.1294
 6236TIP3    H140199   0.017   4.970   3.122  0.2251  0.5229 -0.1489
 6236TIP3    H240200   0.029   5.120   3.118  1.3968  0.4187 -1.2562
 6237TIP3   OH240201   5.288   3.552   4.644 -0.1431  0.2271  0.1109
 6237TIP3    H140202   5.364   3.503   4.675 -0.2838 -0.2220 -0.2513
 6237TIP3    H240203   5.213   3.498   4.668 -0.3214  0.4611  0.0793
 6238TIP3   OH240204   4.991   4.986   5.806  0.8856 -0.1636 -0.0460
 6238TIP3    H140205   5.062   4.926   5.784  2.7511  0.9776  2.2484
 6238TIP3    H240206   4.945   4.943   5.878 -0.2077 -0.5012 -0.9350
 6239TIP3   OH240207   4.157   2.181  11.342  0.0269 -0.0652 -0.7349
 6239TIP3    H140208   4.174   2.218  11.429 -0.2660 -0.0165 -0.6966
 6239TIP3    H240209   4.198   2.095  11.345 -2.0345 -1.0862  0.3155
 6240TIP3   OH240210   4.130   1.148  16.004 -0.5346  0.3845  0.4241
 6240TIP3    H140211   4.141   1.064  15.958 -0.2067 -1.5104  3.6578
 6240TIP3    H240212   4.035   1.158  16.015 -0.6054  0.7684 -0.4549
 6241TIP3   OH240213   1.307   2.885   3.366  0.1870  0.2787  0.0240
 6241TIP3    H140214   1.365   2.816   3.397 -0.1983 -0.8801 -1.6678
 6241TIP3    H240215   1.308   2.951   3.435  0.8216 -1.2727  1.5653
 6242TIP3   OH240216   4.150   4.001   5.553 -0.6856 -0.0749  0.6671
 6242TIP3    H140217   4.090   3.928   5.539 -0.8852  0.3225 -0.7406
 6242TIP3    H240218   4.189   3.984   5.638  1.0951 -3.1723 -0.5958
 6243TIP3   OH240219   4.940   2.678   1.430  0.7836 -0.3009  0.5363
 6243TIP3    H140220   4.853   2.683   1.471  0.2314 -0.2523 -0.5933
 6243TIP3    H240221   4.947   2.587   1.400 -0.1470  0.3576 -1.9527
 6244TIP3   OH240222   2.049   5.828  13.557  0.5912 -0.3098 -0.0343
 6244TIP3    H140223   2.085   5.838  13.645  2.1669 -0.9040 -0.5755
 6244TIP3    H240224   2.052   5.734  13.540 -2.2637 -0.5296  0.2643
 6245TIP3   OH240225   1.117   2.060   1.213  0.3219  0.6975 -0.2018
 6245TIP3    H140226   1.119   2.130   1.280 -0.7606  0.0475  0.5422
 6245TIP3    H240227   1.060   2.094   1.145 -0.5231  0.4033  0.3428
 6246TIP3   OH240228   1.663   4.956  16.390  0.0462  0.0260 -0.2207
 6246TIP3    H140229   1.640   5.038  16.434  0.0289  0.2461 -0.6371
 6246TIP3    H240230   1.585   4.901  16.399  0.5174 -0.4376  1.2022
 6247TIP3   OH240231   0.588   5.717   3.604 -0.0614  0.2091  0.4936
 6247TIP3    H140232   0.599   5.809   3.629  0.2283 -0.5503  3.5428
 6247TIP3    H240233   0.677   5.684   3.597 -0.1687  0.0965 -0.4726
 6248TIP3   OH240234   1.752   1.412   0.233  0.3593  0.4413 -0.4743
 6248TIP3    H140235   1.845   1.406   0.212  0.3772  0.3310 -0.3642
 6248TIP3    H240236   1.714   1.332   0.198  0.5944 -0.3359  0.9687
 6249TIP3   OH240237   1.607   6.616  13.618 -0.1198 -0.1052  0.0623
 6249TIP3    H140238   1.599   6.574  13.704 -0.8180 -1.5574 -0.6692
 6249TIP3    H240239   1.530   6.674  13.613  1.0506  1.6446  1.2327
 6250TIP3   OH240240   1.407   0.253  12.589  0.2641  0.4163 -0.0251
 6250TIP3    H140241   1.471   0.197  12.632 -1.1077  0.2727  1.9911
 6250TIP3    H240242   1.419   0.339  12.630 -1.9169 -0.0234  1.7709
 6251TIP3   OH240243   6.260   4.936  15.716  0.2351  0.2902 -0.3091
 6251TIP3    H140244   6.290   4.846  15.728  0.1043  0.4922  1.8947
 6251TIP3    H240245   6.242   4.967  15.805 -1.0231  2.0508 -1.1334
 6252TIP3   OH240246   5.838   3.432   0.693  0.2341 -0.4769 -0.1684
 6252TIP3    H140247   5.744   3.423   0.677 -0.0585  0.6098  0.7842
 6252TIP3    H240248   5.848   3.522   0.723  1.7222 -0.3040 -1.1038
 6253TIP3   OH240249   2.880   1.103   4.332  0.1198 -0.0738  0.6947
 6253TIP3    H140250   2.787   1.119   4.316 -0.0202  0.2270  1.7761
 6253TIP3    H240251   2.906   1.042   4.263 -0.4550  1.1913 -0.7063
 6254TIP3   OH240252   1.358   4.125   5.402  0.5153 -0.4391  0.0981
 6254TIP3    H140253   1.327   4.042   5.366 -1.2359  0.3738 -0.3838
 6254TIP3    H240254   1.309   4.136   5.483  2.0852 -0.7187  1.1242
 6255TIP3   OH240255   0.040   6.187   3.968 -0.2848 -0.2950  0.1042
 6255TIP3    H140256  -0.005   6.136   3.901 -3.0969  0.3027  1.4249
 6255TIP3    H240257   0.066   6.267   3.923  0.6304 -1.1733 -0.9875
 6256TIP3   OH240258   0.303   3.716  15.396  0.4645 -0.1807  0.4388
 6256TIP3    H140259   0.254   3.645  15.439  1.6962 -0.6557  1.1090
 6256TIP3    H240260   0.287   3.702  15.303 -1.5942  0.3747  0.6471
 6257TIP3   OH240261   6.766   0.925  16.006 -0.1189  0.8852 -0.1550
 6257TIP3    H140262   6.778   1.012  16.046  0.9927  0.2549  0.9573
 6257TIP3    H240263   6.854   0.890  15.998 -0.6802 -1.2834  2.0956
 6258TIP3   OH240264   4.513   5.128  15.242  0.3318 -0.2352  0.1741
 6258TIP3    H140265   4.452   5.137  15.170  1.5971 -1.0274 -1.0455
 6258TIP3    H240266   4.596   5.102  15.201  1.3955  0.3886  1.7939
 6259TIP3   OH240267   5.918   1.467   0.105 -0.2550 -0.2578  0.6118
 6259TIP3    H140268   5.916   1.408   0.180 -1.6920 -1.5399 -0.3888
 6259TIP3    H240269   5.896   1.413   0.030 -0.2696  1.2822 -0.5559
 6260TIP3   OH240270   0.148   0.819  14.639 -0.2903 -0.7973 -0.4686
 6260TIP3    H140271   0.128   0.887  14.704 -1.5132 -1.9217  0.3720
 6260TIP3    H240272   0.243   0.809  14.643 -0.2891 -0.4105  0.6963
 6261TIP3   OH240273   1.353   5.888  10.839 -0.2643  0.2237 -0.4632
 6261TIP3    H140274   1.376   5.971  10.881 -1.5341  1.1222 -1.4844
 6261TIP3    H240275   1.422   5.874  10.774  0.7584 -0.2991  0.7002
 6262TIP3   OH240276   3.934   2.628   0.282  0.1594 -0.2370 -0.3793
 6262TIP3    H140277   4.026   2.604   0.294 -0.0125 -0.5704  0.2857
 6262TIP3    H240278   3.904   2.654   0.369 -0.8808 -1.9162 -0.1919
 6263TIP3   OH240279   1.354   3.110  16.078 -0.0384  0.1598  0.0739
 6263TIP3    H140280   1.402   3.038  16.038 -0.5151 -0.4537  0.5940
 6263TIP3    H240281   1.404   3.130  16.158 -0.9089 -0.8369  0.9003
 6264TIP3   OH240282   1.604   6.215  14.155  0.5642  0.1477 -0.0297
 6264TIP3    H140283   1.521   6.258  14.133 -0.4713 -1.1168  1.2601
 6264TIP3    H240284   1.583   6.156  14.227  2.6775  0.0625  0.5966
 6265TIP3   OH240285   3.141   1.892   2.208 -0.1767 -0.3194  0.0391
 6265TIP3    H140286   3.070   1.859   2.263  0.2829 -1.4109  0.0004
 6265TIP3    H240287   3.114   1.872   2.119 -0.3134  0.2554 -0.0541
 6266TIP3   OH240288   4.900   3.491  12.257 -0.1532 -0.6142  0.6255
 6266TIP3    H140289   4.841   3.448  12.320  0.8840  0.2902  2.2693
 6266TIP3    H240290   4.873   3.583  12.257 -0.9628 -0.7858 -1.2804
 6267TIP3   OH240291   2.643   2.976   1.077  0.3172  0.2454 -0.3113
 6267TIP3    H140292   2.668   2.903   1.021 -0.3973 -0.0164 -0.2976
 6267TIP3    H240293   2.679   2.953   1.163 -0.9460 -0.6971 -0.0106
 6268TIP3   OH240294   6.071   0.028   6.972  0.5259 -0.3711  0.1097
 6268TIP3    H140295   6.025  -0.052   6.948  0.9458 -1.0278  1.4060
 6268TIP3    H240296   6.003   0.086   7.006  0.2447 -0.2036 -0.6970
 6269TIP3   OH240297   3.396   4.941  15.807 -0.1275  0.1104 -0.1564
 6269TIP3    H140298   3.483   4.961  15.840 -0.8798  1.0020  1.4243
 6269TIP3    H240299   3.384   4.848  15.825 -0.2206  0.4113  1.4335
 6270TIP3   OH240300   1.892   6.532  14.011 -0.2472  0.0148  0.2562
 6270TIP3    H140301   1.836   6.490  14.077 -0.2015 -1.1559 -0.4205
 6270TIP3    H240302   1.850   6.616  13.994 -1.6466 -0.7125 -0.0135
 6271TIP3   OH240303   2.801   1.005   0.947 -0.1640 -0.3455  0.0776
 6271TIP3    H140304   2.853   0.931   0.916 -0.3731 -0.0308 -1.0764
 6271TIP3    H240305   2.768   1.047   0.867  2.5879  2.9417  0.4006
 6272TIP3   OH240306   6.240   5.743  13.805 -0.0876  0.5187  0.1643
 6272TIP3    H140307   6.151   5.710  13.819  0.0547 -0.1473 -0.4945
 6272TIP3    H240308   6.227   5.833  13.774 -0.5213  0.5211  0.3375
 6273TIP3   OH240309   3.313   5.525   2.202  0.5421 -0.1185 -0.2675
 6273TIP3    H140310   3.316   5.618   2.181 -1.9769 -0.0678 -0.7941
 6273TIP3    H240311   3.289   5.522   2.295  1.5100 -0.2765 -0.0101
 6274TIP3   OH240312   1.759   2.948   0.009  0.3414  0.3256 -0.3986
 6274TIP3    H140313   1.846   2.954   0.049  0.6919 -1.7049 -0.7423
 6274TIP3    H240314   1.777   2.925  -0.082 -0.5225  2.5429 -1.1893
 6275TIP3   OH240315   3.821   6.704  17.073 -0.0525 -0.3708  0.2460
 6275TIP3    H140316   3.778   6.753  17.144  1.8791  2.1645 -0.1925
 6275TIP3    H240317   3.896   6.662  17.116 -0.6030 -1.3663  0.2465
 6276TIP3   OH240318   3.140   3.700   3.374  0.0119  0.3060  0.3444
 6276TIP3    H140319   3.177   3.635   3.434  0.3796  0.4571  0.2865
 6276TIP3    H240320   3.187   3.781   3.395  0.7767  0.1690 -0.7352
 6277TIP3   OH240321   0.611   4.560   3.476 -0.2634 -0.2860 -0.1947
 6277TIP3    H140322   0.615   4.654   3.494  0.3416 -0.6683  1.9623
 6277TIP3    H240323   0.649   4.551   3.389  1.4507  1.2822  0.3196
 6278TIP3   OH240324   2.696   6.157   0.693 -0.0192  0.2574  0.2804
 6278TIP3    H140325   2.631   6.142   0.624  0.5166 -0.9551  0.0155
 6278TIP3    H240326   2.650   6.136   0.774  0.4372 -2.1962 -0.0084
 6279TIP3   OH240327   6.479   3.534   5.711  0.2318  0.0334 -0.2050
 6279TIP3    H140328   6.504   3.448   5.745 -2.1004 -0.5442  0.2111
 6279TIP3    H240329   6.443   3.516   5.625 -0.6256  0.5440  0.0407
 6280TIP3   OH240330   1.999   2.561   5.009 -0.2979 -0.1527  0.2116
 6280TIP3    H140331   1.963   2.604   5.086  2.8899 -2.1291  3.0893
 6280TIP3    H240332   1.933   2.496   4.984 -0.8602 -0.3581  2.1334
 6281TIP3   OH240333   4.798   5.620   6.425 -0.0800  0.3814 -0.4754
 6281TIP3    H140334   4.731   5.661   6.480 -0.4806 -0.0890 -0.6067
 6281TIP3    H240335   4.749   5.562   6.367  0.3888  0.4877 -0.9842
 6282TIP3   OH240336   2.187   4.840  15.172  0.3022 -0.2491 -0.2969
 6282TIP3    H140337   2.188   4.931  15.142  1.6313 -0.3021 -0.5234
 6282TIP3    H240338   2.183   4.788  15.091  0.6145 -0.3787 -0.2351
 6283TIP3   OH240339   3.688   0.277   5.059  0.0672  0.1402  0.4205
 6283TIP3    H140340   3.617   0.251   5.118 -0.6529  0.0976 -0.4395
 6283TIP3    H240341   3.644   0.297   4.977  1.2880 -2.2493 -0.8974
 6284TIP3   OH240342   2.491   4.401   1.672 -0.3519  0.7176 -0.4066
 6284TIP3    H140343   2.442   4.320   1.687  0.5353 -0.1783 -2.0190
 6284TIP3    H240344   2.532   4.421   1.756 -1.4252  0.0900  0.2904
 6285TIP3   OH240345   2.881   2.641   2.097 -0.4614 -1.1268  0.7796
 6285TIP3    H140346   2.883   2.682   2.184  2.1173  2.5305 -0.7482
 6285TIP3    H240347   2.971   2.613   2.082  0.0643  1.5559 -1.9377
 6286TIP3   OH240348   0.528   4.017   0.817  0.2904 -0.2606  0.2131
 6286TIP3    H140349   0.562   4.027   0.905  0.3612 -1.2986  0.3081
 6286TIP3    H240350   0.590   4.065   0.762  0.0277  0.7316  0.7518
 6287TIP3   OH240351   0.888   6.526  12.964 -0.6175 -0.2065  0.5153
 6287TIP3    H140352   0.948   6.600  12.973  0.3174 -0.8597 -0.1481
 6287TIP3    H240353   0.890   6.505  12.871 -0.3886 -1.4584  0.7903
 6288TIP3   OH240354   3.610   5.822  12.297 -0.1298  0.1055 -0.6200
 6288TIP3    H140355   3.545   5.887  12.326 -0.2977  0.1024 -0.9725
 6288TIP3    H240356   3.633   5.850  12.208  1.2247  0.7704 -0.0769
 6289TIP3   OH240357   6.201   0.269   1.923  0.3655 -0.3953  0.6061
 6289TIP3    H140358   6.200   0.245   2.016  0.1870 -1.3259  0.3780
 6289TIP3    H240359   6.178   0.362   1.922 -0.9482 -0.6747  1.4127
 6290TIP3   OH240360   6.229   0.323  14.457  0.0993 -0.0720  0.4207
 6290TIP3    H140361   6.146   0.275  14.467  0.2214 -0.2568  0.5374
 6290TIP3    H240362   6.218   0.401  14.511  0.4238 -0.6401  1.3165
 6291TIP3   OH240363   3.499   1.431  12.830  0.0844 -0.3623  0.7784
 6291TIP3    H140364   3.565   1.378  12.786  0.5275  2.3059 -2.1648
 6291TIP3    H240365   3.454   1.478  12.759 -1.6708  1.5652  2.9791
 6292TIP3   OH240366   6.137   2.586   1.917 -0.1346  0.1900 -0.3604
 6292TIP3    H140367   6.200   2.547   1.857  1.1834 -1.5750  1.9946
 6292TIP3    H240368   6.174   2.671   1.939 -0.0185  0.3394 -1.1136
 6293TIP3   OH240369   0.640   4.080  11.215 -0.0748 -0.8966 -0.5818
 6293TIP3    H140370   0.560   4.101  11.167 -0.0922 -0.9336 -0.5695
 6293TIP3    H240371   0.701   4.048  11.149  0.9418  1.7854 -1.0704
 6294TIP3   OH240372   2.771   0.502   5.397  0.0270 -0.0373 -0.1987
 6294TIP3    H140373   2.730   0.501   5.483  0.5573  0.3601  0.0643
 6294TIP3    H240374   2.728   0.431   5.349 -1.0908  0.4987 -0.0037
 6295TIP3   OH240375   4.399   1.723  16.223 -0.6782 -0.4944 -0.1618
 6295TIP3    H140376   4.323   1.698  16.276 -1.0354 -0.5918 -0.7184
 6295TIP3    H240377   4.474   1.689  16.272 -1.0375 -0.9829  0.0572
 6296TIP3   OH240378   5.387   1.958  15.981  0.2094 -0.6864 -0.5520
 6296TIP3    H140379   5.397   1.901  15.905  0.4546 -1.5838  0.1406
 6296TIP3    H240380   5.329   1.910  16.040  0.0161  0.0007 -0.1631
 6297TIP3   OH240381   2.801   2.532   5.655 -0.0002 -0.1549 -0.3634
 6297TIP3    H140382   2.715   2.531   5.698  0.5188 -0.3068  0.6794
 6297TIP3    H240383   2.864   2.534   5.726  0.8771  2.8830 -1.0666
 6298TIP3   OH240384   6.474   1.214   6.215  0.3630  0.0783 -0.2200
 6298TIP3    H140385   6.462   1.137   6.161  0.1513 -0.5694  0.7327
 6298TIP3    H240386   6.473   1.287   6.153  0.0635 -0.6351 -1.0713
 6299TIP3   OH240387   6.553   3.617  13.390 -0.0762 -0.0613 -0.1220
 6299TIP3    H140388   6.522   3.546  13.447 -0.1767  0.4788  0.5074
 6299TIP3    H240389   6.618   3.575  13.333 -0.8348 -0.8715 -0.4266
 6300TIP3   OH240390   2.442   1.296  13.599 -0.3514 -0.2968 -0.1523
 6300TIP3    H140391   2.494   1.366  13.559 -1.1438 -0.9477 -2.5100
 6300TIP3    H240392   2.392   1.259  13.526 -2.2852 -1.2951  1.5655
 6301TIP3   OH240393   4.533   6.061  14.523  0.3227  0.0950  0.4912
 6301TIP3    H140394   4.620   6.048  14.561 -0.1370  1.1551  2.0199
 6301TIP3    H240395   4.504   5.974  14.498  1.3185 -0.4348  1.1163
 6302TIP3   OH240396   1.503   6.052  14.813  0.0379  0.5023 -0.1835
 6302TIP3    H140397   1.457   6.043  14.729 -2.4185  0.3277  1.0848
 6302TIP3    H240398   1.490   6.144  14.838 -0.9046  0.1251  0.8305
 6303TIP3   OH240399   5.532   3.244   2.345  0.3060  0.0014  0.1309
 6303TIP3    H140400   5.533   3.300   2.267 -0.1787 -0.3314 -0.1155
 6303TIP3    H240401   5.611   3.270   2.394  0.2065  0.7454 -0.0898
 6304TIP3   OH240402   6.131   5.662  14.702 -0.4911  0.5081 -0.5168
 6304TIP3    H140403   6.067   5.707  14.646  0.5218  1.4940 -0.9120
 6304TIP3    H240404   6.091   5.663  14.789 -1.7969 -0.4712 -1.0603
 6305TIP3   OH240405   3.217   1.406   0.387  1.4218 -0.4814  0.0889
 6305TIP3    H140406   3.192   1.316   0.411 -1.2497 -0.4044 -1.9292
 6305TIP3    H240407   3.307   1.398   0.356  1.2960 -2.4803  0.1016
 6306TIP3   OH240408   3.385   3.857   1.166 -0.1572 -0.0436 -0.3941
 6306TIP3    H140409   3.439   3.864   1.088 -0.3019 -0.1141 -0.5009
 6306TIP3    H240410   3.363   3.764   1.172 -2.7981  0.3766 -2.0803
 6307TIP3   OH240411   6.411   6.041  12.543 -0.5407 -0.4651 -0.1131
 6307TIP3    H140412   6.436   6.068  12.631  0.1853  0.8056 -0.6697
 6307TIP3    H240413   6.494   6.019  12.500 -0.7252  0.2571 -0.8722
 6308TIP3   OH240414   5.266   4.912   4.447 -0.2308  0.1817 -0.1268
 6308TIP3    H140415   5.212   4.890   4.523 -0.7198 -2.3366 -1.1181
 6308TIP3    H240416   5.325   4.838   4.437  1.3825  1.5124 -0.9006
 6309TIP3   OH240417   2.672   0.785   3.402 -0.1830 -0.6162 -0.5729
 6309TIP3    H140418   2.626   0.794   3.319 -1.8974  1.1718  0.4734
 6309TIP3    H240419   2.722   0.866   3.412 -2.2738  0.5472  1.3545
 6310TIP3   OH240420   5.091   0.691  12.030  0.3323 -0.0649  0.1790
 6310TIP3    H140421   5.125   0.602  12.038 -1.0608 -0.7108 -0.6687
 6310TIP3    H240422   5.039   0.704  12.109  2.0468  0.7512  1.2456
 6311TIP3   OH240423   1.433   0.733   4.737  0.3675  0.1141  0.8986
 6311TIP3    H140424   1.393   0.819   4.752  1.7019  1.3930 -2.0564
 6311TIP3    H240425   1.359   0.678   4.708 -0.5169  0.1470  2.9222
 6312TIP3   OH240426   3.320   6.084   5.691  0.4931  0.5334 -0.1102
 6312TIP3    H140427   3.348   6.133   5.767 -1.8603 -0.6206  1.6363
 6312TIP3    H240428   3.335   6.143   5.617 -0.8792  3.3542  1.6964
 6313TIP3   OH240429   6.766   1.028  13.012  0.5750  0.0046 -0.1292
 6313TIP3    H140430   6.743   1.115  12.980 -0.6073 -0.1564  0.2277
 6313TIP3    H240431   6.733   1.027  13.102  2.1502 -0.2065  0.4803
 6314TIP3   OH240432   2.872   1.015   0.558  0.0050 -0.1410 -0.1334
 6314TIP3    H140433   2.829   0.974   0.484  0.3360 -1.6696  0.4844
 6314TIP3    H240434   2.803   1.025   0.624 -0.1188  0.5083 -0.3531
 6315TIP3   OH240435   2.791   6.459  15.688 -0.5807 -1.0178  0.0624
 6315TIP3    H140436   2.776   6.552  15.674 -0.9585 -1.3134 -1.7556
 6315TIP3    H240437   2.795   6.421  15.600 -1.2002 -2.8422  0.7533
 6316TIP3   OH240438   1.646   3.663   4.978 -0.1830 -0.1953  0.1597
 6316TIP3    H140439   1.682   3.686   5.064 -0.3172 -1.9879  0.7421
 6316TIP3    H240440   1.708   3.701   4.915  0.6462  0.0029  1.0653
 6317TIP3   OH240441   1.146   2.962  10.412  0.3005  0.1256 -0.1476
 6317TIP3    H140442   1.092   3.018  10.468 -1.3586  0.8958 -2.4046
 6317TIP3    H240443   1.093   2.883  10.399  0.5305  0.0771 -0.8322
 6318TIP3   OH240444   1.293   6.798  12.599  0.0708  0.9398 -0.3304
 6318TIP3    H140445   1.301   6.854  12.676  0.2274  0.4447  0.0196
 6318TIP3    H240446   1.343   6.844  12.531 -1.5934  2.3034 -0.6877
 6319TIP3   OH240447   5.597   6.535  11.355 -0.1774 -0.3849 -0.0473
 6319TIP3    H140448   5.648   6.502  11.429 -1.0379 -0.4583  0.5148
 6319TIP3    H240449   5.651   6.513  11.278  0.1974 -1.3108  0.4672
 6320TIP3   OH240450   4.584   5.826   0.685 -0.3383 -0.3549  0.3662
 6320TIP3    H140451   4.674   5.794   0.678 -0.6287 -1.2130  0.4483
 6320TIP3    H240452   4.575   5.888   0.613  0.0409 -0.9425 -0.1919
 6321TIP3   OH240453   4.186   3.730  11.831 -0.2065  0.3298  0.3731
 6321TIP3    H140454   4.105   3.772  11.857 -0.4939 -0.8944  1.6426
 6321TIP3    H240455   4.162   3.638  11.818  0.7994  0.1186 -0.0815
 6322TIP3   OH240456   0.595   4.129  15.276  0.7784 -0.3595  0.8015
 6322TIP3    H140457   0.574   4.220  15.253 -1.0517 -1.2395 -1.3963
 6322TIP3    H240458   0.555   4.115  15.361 -0.5901  0.3778  0.3073
 6323TIP3   OH240459   0.421   2.612   4.712  0.4350 -0.4969 -0.5446
 6323TIP3    H140460   0.507   2.624   4.752  0.8206 -0.5375 -1.3419
 6323TIP3    H240461   0.426   2.661   4.630 -0.2665 -0.5806 -0.6398
 6324TIP3   OH240462   4.732   1.940  10.985  0.3561 -0.4346  0.0318
 6324TIP3    H140463   4.669   2.012  10.977 -2.8183 -3.0404 -0.5198
 6324TIP3    H240464   4.797   1.958  10.917 -0.6992  1.5454 -0.5396
 6325TIP3   OH240465   3.846   5.683  11.667 -0.1277 -0.4923  0.1651
 6325TIP3    H140466   3.819   5.772  11.645  1.4039  0.3120  1.3241
 6325TIP3    H240467   3.765   5.638  11.689 -0.9528  0.5474 -0.6300
 6326TIP3   OH240468   1.198   3.814  16.431 -0.3042  0.2590  0.4016
 6326TIP3    H140469   1.137   3.820  16.358  1.8205  1.4574 -1.3967
 6326TIP3    H240470   1.267   3.877  16.410  0.7079  0.2170  3.1746
 6327TIP3   OH240471   0.905   0.587  11.240 -0.0083 -0.4421  0.0139
 6327TIP3    H140472   0.841   0.554  11.304  0.0057  0.5281  0.5622
 6327TIP3    H240473   0.851   0.621  11.168 -0.3832  2.8332  1.6289
 6328TIP3   OH240474   3.144   0.197  17.057  0.0425 -0.0532 -0.4324
 6328TIP3    H140475   3.065   0.211  17.109 -1.7034 -0.6903 -2.7438
 6328TIP3    H240476   3.171   0.107  17.078 -1.3579 -0.7502 -1.3947
 6329TIP3   OH240477   2.175   0.095  15.846  0.0353  0.2199 -0.9810
 6329TIP3    H140478   2.201   0.171  15.898  0.6967  0.1735 -1.2469
 6329TIP3    H240479   2.082   0.110  15.827 -0.3946 -0.0574  0.7246
 6330TIP3   OH240480   2.300   1.256   2.440 -0.4130  0.0650  0.3376
 6330TIP3    H140481   2.251   1.249   2.521 -1.2135  0.9950 -0.0494
 6330TIP3    H240482   2.380   1.205   2.456 -0.2626  0.7453  1.9203
 6331TIP3   OH240483   4.544   3.301   3.370 -0.6409 -0.3672 -0.6235
 6331TIP3    H140484   4.615   3.237   3.369 -1.2156 -1.0264 -1.4645
 6331TIP3    H240485   4.565   3.361   3.298 -0.9237 -0.5635 -0.8738
 6332TIP3   OH240486   5.651   0.685   1.828  0.3160 -0.0659  0.0650
 6332TIP3    H140487   5.565   0.698   1.869 -0.4803 -1.4372 -1.0635
 6332TIP3    H240488   5.665   0.590   1.831  1.8890  0.1494  0.3740
 6333TIP3   OH240489   1.560   6.511   5.898  0.1275 -0.2276 -0.3285
 6333TIP3    H140490   1.531   6.540   5.984 -0.6124  0.0369 -0.6574
 6333TIP3    H240491   1.539   6.584   5.840  0.7924 -0.3313 -0.7002
 6334TIP3   OH240492   3.352   5.140  14.097  0.4195 -0.3941  0.5344
 6334TIP3    H140493   3.297   5.213  14.125 -0.2330 -0.5570 -0.3002
 6334TIP3    H240494   3.439   5.160  14.133  0.2876  0.8779  0.1848
 6335TIP3   OH240495   4.611   4.619   2.711 -0.4381  0.3622  0.1482
 6335TIP3    H140496   4.630   4.552   2.645  0.6905 -0.7796  1.5668
 6335TIP3    H240497   4.573   4.692   2.661 -0.2536 -0.7128 -1.6483
 6336TIP3   OH240498   4.391   2.821   0.986 -0.9516  0.1216  0.3989
 6336TIP3    H140499   4.341   2.813   1.067 -1.8887  0.4726 -0.1278
 6336TIP3    H240500   4.480   2.795   1.009 -1.3205 -0.2473  1.4211
 6337TIP3   OH240501   6.401   2.952   1.107 -0.0631  0.3562 -0.3934
 6337TIP3    H140502   6.368   2.894   1.176 -0.2740  0.8479 -0.0724
 6337TIP3    H240503   6.434   2.893   1.040  0.4322 -0.1362  0.2636
 6338TIP3   OH240504   5.093   0.768   4.318  0.0293 -0.4116 -0.1054
 6338TIP3    H140505   5.094   0.803   4.407  0.8190  0.4222 -0.4221
 6338TIP3    H240506   5.129   0.680   4.326  0.3727 -0.2348  0.3717
 6339TIP3   OH240507   2.336   5.997  16.633  0.3952 -0.2371 -0.3947
 6339TIP3    H140508   2.261   5.945  16.659  0.6421 -0.3541  0.0879
 6339TIP3    H240509   2.320   6.084  16.671  0.9565 -0.5225  0.5187
 6340TIP3   OH240510   0.388   5.804  13.367 -0.3301 -0.5023 -0.1385
 6340TIP3    H140511   0.372   5.868  13.297  0.9266 -2.8988 -2.7829
 6340TIP3    H240512   0.356   5.721  13.332 -1.8268 -1.4727  3.1331
 6341TIP3   OH240513   2.179   3.476   5.209  0.4469  0.0074 -0.1494
 6341TIP3    H140514   2.230   3.445   5.284  0.7455 -0.3223 -0.4851
 6341TIP3    H240515   2.161   3.398   5.158 -2.2689 -0.2437  1.0363
 6342TIP3   OH240516   1.372   0.118   0.899  0.0678  0.2888 -0.3568
 6342TIP3    H140517   1.372   0.166   0.982  1.6761  2.6631 -1.5943
 6342TIP3    H240518   1.433   0.045   0.914 -0.4118  0.1124  0.8210
 6343TIP3   OH240519   1.934   5.947   2.582  0.1141 -0.0654 -0.8334
 6343TIP3    H140520   1.933   5.973   2.675  2.6721  3.3298 -1.5410
 6343TIP3    H240521   1.864   5.883   2.575 -0.7409  0.0961  3.2807
 6344TIP3   OH240522   4.707   1.402  11.109 -0.4210  0.4143 -0.1501
 6344TIP3    H140523   4.783   1.391  11.053  0.8541 -0.3202  1.6066
 6344TIP3    H240524   4.731   1.473  11.169 -1.8978  1.4647 -0.7371
 6345TIP3   OH240525   0.069   2.206  12.022 -0.0011  0.1416 -0.8204
 6345TIP3    H140526   0.030   2.126  12.058 -1.0490  0.5262 -1.0600
 6345TIP3    H240527   0.013   2.276  12.055 -0.0641  0.6354 -1.9495
 6346TIP3   OH240528   3.665   2.750   6.144  0.4003  0.3517 -0.7239
 6346TIP3    H140529   3.610   2.824   6.120  1.8724  1.7793  0.0774
 6346TIP3    H240530   3.739   2.789   6.190  0.8309 -1.7125  0.4630
 6347TIP3   OH240531   2.236   4.054   0.479 -0.5016 -0.0778 -0.2155
 6347TIP3    H140532   2.242   4.084   0.388 -0.1752  0.2250 -0.0963
 6347TIP3    H240533   2.327   4.056   0.511 -0.8587  1.9786  0.8057
 6348TIP3   OH240534   1.341   0.901   4.409  0.0257 -0.4291  0.0674
 6348TIP3    H140535   1.392   0.820   4.405  0.3267 -0.1855 -2.1375
 6348TIP3    H240536   1.403   0.967   4.439 -0.1174 -0.9127  1.4868
 6349TIP3   OH240537   6.787   6.144   5.819  0.4523  0.0412  0.1527
 6349TIP3    H140538   6.878   6.128   5.795  0.0772 -2.2524  0.0431
 6349TIP3    H240539   6.780   6.240   5.823  3.0738  0.2911  1.0777
 6350TIP3   OH240540   4.012   3.636   0.294  0.4827 -0.0252 -0.1928
 6350TIP3    H140541   4.099   3.654   0.257  0.6497 -0.1649  0.1296
 6350TIP3    H240542   3.999   3.542   0.283  0.5032 -0.0558  0.0397
 6351TIP3   OH240543   6.464   2.897  12.490  0.4313 -0.2492 -0.2607
 6351TIP3    H140544   6.486   2.871  12.400 -0.4273  0.2998 -0.6512
 6351TIP3    H240545   6.539   2.870  12.542  0.7124 -1.0663 -1.0623
 6352TIP3   OH240546   0.655   6.614  13.374 -0.6910 -0.5487  0.2316
 6352TIP3    H140547   0.719   6.570  13.319 -1.4452 -0.6622 -0.5856
 6352TIP3    H240548   0.616   6.545  13.426  0.0811 -0.4301  0.9824
 6353TIP3   OH240549   0.766   1.392   1.380  0.1677 -0.3917 -0.0940
 6353TIP3    H140550   0.851   1.349   1.382  0.0219 -0.8519 -1.9383
 6353TIP3    H240551   0.736   1.391   1.471  1.1706 -2.1924  0.2598
 6354TIP3   OH240552   5.402   1.003   5.136  0.1211 -0.4594 -0.6526
 6354TIP3    H140553   5.485   1.049   5.146 -0.7693  1.1959 -0.5651
 6354TIP3    H240554   5.398   0.944   5.212  1.7016 -1.4266 -1.2637
 6355TIP3   OH240555   5.644   4.824   5.914 -0.1671  0.1062 -0.4808
 6355TIP3    H140556   5.644   4.887   5.985 -0.2929 -1.1140  0.6475
 6355TIP3    H240557   5.570   4.766   5.934 -0.8218  0.3055 -2.1440
 6356TIP3   OH240558   0.956   6.816   2.030  0.2466 -0.0694 -1.2264
 6356TIP3    H140559   0.869   6.798   2.065  1.2898  0.8715  2.2898
 6356TIP3    H240560   0.994   6.729   2.016 -0.7757 -0.4877 -1.4924
 6357TIP3   OH240561   5.308   3.144   2.060 -0.0954  0.3429 -0.0405
 6357TIP3    H140562   5.254   3.081   2.109  0.3456 -1.5945 -1.8813
 6357TIP3    H240563   5.382   3.092   2.028  2.8610  2.8464  2.1646
 6358TIP3   OH240564   5.502   2.135   2.008 -0.0683  0.0228  0.2196
 6358TIP3    H140565   5.584   2.116   2.052  2.3958  1.4495 -3.3179
 6358TIP3    H240566   5.477   2.222   2.041  0.9462  0.4494 -0.1061
 6359TIP3   OH240567   1.172   0.153  13.869 -0.8156 -0.0525 -0.1162
 6359TIP3    H140568   1.081   0.148  13.898 -0.0846  1.8399  2.9801
 6359TIP3    H240569   1.210   0.068  13.894 -1.6499 -0.7704 -1.2392
 6360TIP3   OH240570   0.896   0.853  14.128  0.0827 -0.0237  0.0767
 6360TIP3    H140571   0.922   0.827  14.039 -0.9328 -3.6530  0.6849
 6360TIP3    H240572   0.816   0.903  14.115  1.3941  1.9600 -1.1097
 6361TIP3   OH240573   0.219   2.877   5.797 -0.1125 -0.5770 -0.6457
 6361TIP3    H140574   0.263   2.945   5.847 -0.6903 -1.4523  1.1603
 6361TIP3    H240575   0.289   2.834   5.748  0.8426 -0.9029  0.9215
 6362TIP3   OH240576   2.517   3.633  12.482  0.3980 -0.0506 -0.1332
 6362TIP3    H140577   2.611   3.654  12.485  0.2602  0.8359 -1.0723
 6362TIP3    H240578   2.474   3.716  12.504 -0.1880 -0.8151  1.7958
 6363TIP3   OH240579   6.134   1.862   1.194  0.1230  0.1844  0.3860
 6363TIP3    H140580   6.154   1.815   1.113 -0.4366  0.3477  0.1469
 6363TIP3    H240581   6.219   1.890   1.227  0.3779 -0.1209  0.0001
 6364TIP3   OH240582   5.370   2.548  15.326 -0.4489  0.0489 -0.4549
 6364TIP3    H140583   5.442   2.510  15.375 -1.0797  0.2326  0.6539
 6364TIP3    H240584   5.409   2.576  15.243  0.6202 -0.3623 -0.1076
 6365TIP3   OH240585   6.005   3.618   2.359  0.0801  0.0299  0.1377
 6365TIP3    H140586   5.974   3.679   2.427  2.3134 -0.6728  1.9149
 6365TIP3    H240587   6.099   3.633   2.355  0.2577 -1.2692 -1.5304
 6366TIP3   OH240588   4.138   4.984  11.527 -0.5687  0.0297 -0.0072
 6366TIP3    H140589   4.222   4.941  11.546 -1.1635 -1.5645 -0.7787
 6366TIP3    H240590   4.091   4.921  11.472 -2.1325  1.0547  0.0935
 6367TIP3   OH240591   4.762   1.181  11.760 -0.1140  0.2693 -0.3997
 6367TIP3    H140592   4.830   1.114  11.750  0.1862  0.4669  0.2488
 6367TIP3    H240593   4.809   1.264  11.747 -0.3946  0.3747 -0.7477
 6368TIP3   OH240594   0.915   5.482  16.466 -0.1466 -0.4226 -0.1181
 6368TIP3    H140595   0.880   5.502  16.380 -0.9694 -0.9704  0.0787
 6368TIP3    H240596   0.924   5.568  16.509 -3.9490 -0.3280  0.8459
 6369TIP3   OH240597   3.998   6.238   5.893  0.0626  0.1949 -0.7808
 6369TIP3    H140598   4.075   6.222   5.947 -0.4638 -0.3899 -0.1821
 6369TIP3    H240599   4.021   6.203   5.806  0.0253 -1.1349 -0.2770
 6370TIP3   OH240600   4.106   0.896  16.212 -0.0349  0.1114 -0.0615
 6370TIP3    H140601   4.043   0.849  16.158  0.9522  0.5086 -1.5999
 6370TIP3    H240602   4.124   0.837  16.285 -0.3879 -0.9994 -0.8560
 6371TIP3   OH240603   5.254   6.643   0.833 -0.1867 -0.7020 -0.6945
 6371TIP3    H140604   5.204   6.667   0.911  0.6086  0.3206 -0.4603
 6371TIP3    H240605   5.329   6.594   0.867  0.3773  0.0913 -0.7394
 6372TIP3   OH240606   5.712   1.927   4.786 -0.4259  0.0518  0.2049
 6372TIP3    H140607   5.624   1.964   4.794 -0.3456  0.0994  0.9094
 6372TIP3    H240608   5.728   1.922   4.692 -0.3656  2.0025  0.0833
 6373TIP3   OH240609   2.664   6.637   4.570 -0.1785 -0.5364  0.0186
 6373TIP3    H140610   2.586   6.616   4.623 -1.4003 -0.0634 -1.5313
 6373TIP3    H240611   2.639   6.614   4.481  1.3955 -0.1363 -0.5515
 6374TIP3   OH240612   5.073   4.973  14.422  0.1807  0.7393 -0.1163
 6374TIP3    H140613   5.016   5.036  14.378 -0.3024  0.6031  0.2945
 6374TIP3    H240614   5.025   4.890  14.414  0.6939  0.4694 -0.4416
 6375TIP3   OH240615   0.617   0.063  13.316 -0.3593 -0.4131 -0.0434
 6375TIP3    H140616   0.648  -0.025  13.337  0.6973 -0.1680 -0.4816
 6375TIP3    H240617   0.523   0.054  13.304 -0.6469 -1.0434  2.2162
 6376TIP3   OH240618   0.164   2.019  13.944 -0.8907 -0.2432  0.1994
 6376TIP3    H140619   0.180   2.002  14.037 -1.9425  3.1789  1.1537
 6376TIP3    H240620   0.075   2.055  13.941 -0.3770  1.0428 -1.8928
 6377TIP3   OH240621   6.818   4.139  11.902  0.6521 -0.0929 -0.1588
 6377TIP3    H140622   6.809   4.141  11.807  1.3761  2.0580 -0.2399
 6377TIP3    H240623   6.883   4.071  11.919  0.8704 -0.1608 -1.2466
 6378TIP3   OH240624   1.054   4.618  15.026 -0.3076  0.0011 -0.3218
 6378TIP3    H140625   1.050   4.648  14.935  0.1472 -0.4131 -0.4845
 6378TIP3    H240626   1.056   4.698  15.078 -1.0342  0.2371 -0.6561
 6379TIP3   OH240627   6.189   2.104  12.738  0.1239  0.3257  0.5916
 6379TIP3    H140628   6.201   2.051  12.817 -0.2295 -0.6172  0.0278
 6379TIP3    H240629   6.103   2.144  12.749  0.5757  1.1527  1.2205
 6380TIP3   OH240630   4.225   2.338  13.596 -0.0313 -0.4896 -1.3229
 6380TIP3    H140631   4.202   2.299  13.680 -0.7033  0.0905 -1.2240
 6380TIP3    H240632   4.305   2.293  13.569  0.6288 -0.1552 -0.0017
 6381TIP3   OH240633   0.743   6.076  14.989  0.0213 -0.0000  0.9001
 6381TIP3    H140634   0.677   6.097  15.054 -1.5279 -1.1956 -0.2195
 6381TIP3    H240635   0.826   6.081  15.037 -0.9845  0.0973  2.7137
 6382TIP3   OH240636   4.339   5.209  12.999  0.3184  0.1212  0.5177
 6382TIP3    H140637   4.293   5.191  13.081 -0.6698 -0.2625 -0.1075
 6382TIP3    H240638   4.390   5.129  12.982 -0.5192 -0.3225  0.0752
 6383TIP3   OH240639   0.963   5.861  14.751  0.6582 -0.0272 -0.7366
 6383TIP3    H140640   1.026   5.911  14.803  2.1916 -1.9442 -0.6475
 6383TIP3    H240641   0.944   5.783  14.803 -0.2293 -0.4697 -1.6751
 6384TIP3   OH240642   5.094   1.111   1.566 -0.1301  0.1864 -0.2595
 6384TIP3    H140643   5.055   1.038   1.613  0.2595  1.2013  1.7316
 6384TIP3    H240644   5.132   1.071   1.488  0.1369 -1.7571  0.7980
 6385TIP3   OH240645   2.310   2.133   1.048  0.3127 -0.7483 -0.2216
 6385TIP3    H140646   2.337   2.045   1.021 -0.3130 -0.5792 -1.4713
 6385TIP3    H240647   2.281   2.175   0.967 -0.1012  0.3591  0.4805
 6386TIP3   OH240648   4.862   2.186  13.947 -0.4031 -0.2237 -0.1018
 6386TIP3    H140649   4.882   2.261  14.003 -0.4440  0.7746 -1.3474
 6386TIP3    H240650   4.940   2.176  13.893 -0.7710 -0.4487 -0.5969
 6387TIP3   OH240651   1.666   6.032  12.650  0.1957 -0.4914 -0.0244
 6387TIP3    H140652   1.748   5.999  12.614 -0.8431 -1.7462 -1.3848
 6387TIP3    H240653   1.654   6.118  12.607 -0.2809 -1.3098 -1.6321
 6388TIP3   OH240654   2.581   5.220  12.644  0.4436  0.8193 -0.5034
 6388TIP3    H140655   2.528   5.192  12.719 -3.4655  0.4464 -3.1007
 6388TIP3    H240656   2.533   5.295  12.608  1.6469  0.4438 -3.1154
 6389TIP3   OH240657   4.362   2.403  11.284  0.2068 -0.0053 -0.0209
 6389TIP3    H140658   4.340   2.322  11.237 -0.2568  0.2949 -0.3221
 6389TIP3    H240659   4.353   2.379  11.377 -3.0341  0.5161 -0.1031
 6390TIP3   OH240660   4.610   5.119   1.820 -0.2934 -0.5872  0.5722
 6390TIP3    H140661   4.520   5.109   1.788 -0.6459  0.1633  1.3116
 6390TIP3    H240662   4.608   5.197   1.875  0.7287 -0.7849  0.9118
 6391TIP3   OH240663   4.268   0.015   4.867  0.1512  0.3049  0.8139
 6391TIP3    H140664   4.227  -0.014   4.785  1.0026  0.5748  0.2872
 6391TIP3    H240665   4.232   0.102   4.882 -0.3513  0.0750  0.9726
 6392TIP3   OH240666   3.154   6.413   5.618 -0.0559 -0.0868 -0.0120
 6392TIP3    H140667   3.184   6.474   5.684 -0.9406  0.8529 -0.4544
 6392TIP3    H240668   3.230   6.357   5.600  0.1793 -0.3858  1.7964
 6393TIP3   OH240669   6.505   2.724   0.215 -0.4485 -0.1501 -0.1915
 6393TIP3    H140670   6.422   2.770   0.212 -0.4879 -0.2550 -0.8888
 6393TIP3    H240671   6.484   2.639   0.253 -0.7674 -0.3874 -0.8844
 6394TIP3   OH240672   2.730   6.212   1.004  0.1462  0.3466 -0.0424
 6394TIP3    H140673   2.640   6.229   1.030  1.0925  0.5024  3.8360
 6394TIP3    H240674   2.770   6.298   0.998  0.1299  0.2775 -1.7380
 6395TIP3   OH240675   3.934   0.196  15.519  0.2502  0.3842 -0.6096
 6395TIP3    H140676   3.992   0.123  15.498  0.5459  1.1069 -2.5617
 6395TIP3    H240677   3.949   0.213  15.612  0.8379 -1.4409 -0.3467
 6396TIP3   OH240678   3.394   3.676   4.441  0.0605 -0.0586 -0.5562
 6396TIP3    H140679   3.336   3.751   4.436  0.8143  0.5419 -0.4628
 6396TIP3    H240680   3.376   3.626   4.361 -0.0112  0.5454 -0.9216
 6397TIP3   OH240681   1.885   6.146  12.875  0.2048 -0.1920 -0.7934
 6397TIP3    H140682   1.971   6.186  12.868  0.0310  0.3024 -0.1872
 6397TIP3    H240683   1.841   6.169  12.793  0.2756  0.4521 -0.6488
 6398TIP3   OH240684   5.285   5.799  14.768 -0.0762 -0.5095 -0.1608
 6398TIP3    H140685   5.285   5.892  14.786  1.0540 -0.6620  0.7367
 6398TIP3    H240686   5.213   5.786  14.706  0.5776  1.1435 -1.3226
 6399TIP3   OH240687   1.711   4.778  14.006 -0.8610  0.0227  0.9667
 6399TIP3    H140688   1.799   4.792  14.042 -1.5290  0.3765  2.5473
 6399TIP3    H240689   1.722   4.786  13.911  0.6612  0.9395  1.1946
 6400TIP3   OH240690   3.920   4.291   2.514  0.3745 -0.0851 -0.3795
 6400TIP3    H140691   3.889   4.284   2.605  0.6697  2.2754 -0.0426
 6400TIP3    H240692   3.941   4.201   2.489 -1.1129 -0.9880  1.3800
 6401TIP3   OH240693   0.566   5.749   0.570  0.1052 -0.1651 -1.4156
 6401TIP3    H140694   0.590   5.657   0.559  1.0491 -0.2474  0.8886
 6401TIP3    H240695   0.644   5.790   0.605 -1.4805  0.5864  1.6286
 6402TIP3   OH240696   2.898   0.217  14.442 -0.2376  0.4134 -0.3469
 6402TIP3    H140697   2.988   0.248  14.436  0.3823 -0.3891  3.1305
 6402TIP3    H240698   2.845   0.297  14.435  0.7303  1.0020 -1.4297
 6403TIP3   OH240699   1.862   0.750  13.592 -0.0979 -0.4567  0.2492
 6403TIP3    H140700   1.945   0.784  13.558  0.0351 -0.8641  0.1494
 6403TIP3    H240701   1.884   0.717  13.679 -0.0031 -1.1405 -0.0221
 6404TIP3   OH240702   5.767   6.097  11.233 -0.0042  0.5722  0.1495
 6404TIP3    H140703   5.839   6.116  11.294 -0.6142  1.5099  0.5916
 6404TIP3    H240704   5.770   6.167  11.169 -0.7865  0.8587  0.4150
 6405TIP3   OH240705   4.111   5.833  16.446 -0.2564  0.8564  0.1832
 6405TIP3    H140706   4.154   5.917  16.461  0.6803  0.1663  1.5417
 6405TIP3    H240707   4.047   5.851  16.377  0.9625  2.3320 -0.6204
 6406TIP3   OH240708   0.695   4.541   0.488 -0.0178 -0.4461 -0.7346
 6406TIP3    H140709   0.762   4.476   0.466 -0.3667 -0.8408 -0.6449
 6406TIP3    H240710   0.688   4.596   0.410  0.7039 -0.1499 -0.5925
 6407TIP3   OH240711   4.210   0.697  16.032  0.8667 -0.2051 -0.0990
 6407TIP3    H140712   4.222   0.602  16.026 -0.3985 -0.3406 -0.9349
 6407TIP3    H240713   4.248   0.720  16.116  1.5019 -1.4048 -0.0271
 6408TIP3   OH240714   3.642   1.221   4.158  0.0591  0.6027 -0.1709
 6408TIP3    H140715   3.630   1.311   4.188 -1.0600  1.5668 -3.0753
 6408TIP3    H240716   3.736   1.206   4.163  0.0007  0.7824  3.1318
 6409TIP3   OH240717   3.914   3.553  13.143 -0.1813 -0.5401 -0.3787
 6409TIP3    H140718   3.901   3.553  13.048 -1.0376 -0.4334 -0.2750
 6409TIP3    H240719   3.928   3.462  13.166 -0.0141 -0.5717 -0.6054
 6410TIP3   OH240720   2.771   2.520  17.131 -0.0893 -0.2093 -0.5369
 6410TIP3    H140721   2.732   2.552  17.049 -1.0002  0.6882  0.2203
 6410TIP3    H240722   2.755   2.591  17.194  1.3436 -0.5195  0.2167
 6411TIP3   OH240723   3.628   3.173   0.527 -0.4077  0.3671 -0.0776
 6411TIP3    H140724   3.640   3.136   0.440  0.1887 -0.2468  0.2545
 6411TIP3    H240725   3.542   3.141   0.554 -0.6388  0.6421 -0.4742
 6412TIP3   OH240726   2.924   0.279  15.466  0.4353  0.1611 -0.6298
 6412TIP3    H140727   2.980   0.351  15.438  0.7996  0.0961 -0.0910
 6412TIP3    H240728   2.926   0.218  15.392  2.4556 -0.6323 -0.0132
 6413TIP3   OH240729   2.263   0.025   0.107 -0.4155 -0.1689  0.3433
 6413TIP3    H140730   2.303   0.101   0.063 -1.0356 -0.3388 -0.5303
 6413TIP3    H240731   2.172   0.051   0.121 -0.9044 -1.1287 -0.8952
 6414TIP3   OH240732   2.216   2.300   0.810 -0.0664  0.0132  0.0440
 6414TIP3    H140733   2.127   2.296   0.844  0.2992  1.7556  1.3270
 6414TIP3    H240734   2.216   2.375   0.750  0.7599  0.7041  0.8665
 6415TIP3   OH240735   0.072   6.296  15.879  0.2887 -0.5579 -0.0707
 6415TIP3    H140736   0.159   6.281  15.916  0.5006  1.2126  0.2495
 6415TIP3    H240737   0.083   6.369  15.818 -1.1812  0.6522  1.0051
 6416TIP3   OH240738   0.673   5.554  15.774 -0.0700  0.9923 -0.0032
 6416TIP3    H140739   0.679   5.480  15.714 -1.0961  0.5518  0.4052
 6416TIP3    H240740   0.604   5.609  15.738 -0.0600  1.1909  0.2753
 6417TIP3   OH240741   4.920   4.179  14.256  0.2339 -0.0126  0.3033
 6417TIP3    H140742   4.890   4.089  14.248  1.8279 -0.3804 -4.1337
 6417TIP3    H240743   5.002   4.173  14.305  0.4009 -1.0309 -0.0824
 6418TIP3   OH240744   2.396   2.577  11.318  0.0796  0.0007  0.1338
 6418TIP3    H140745   2.367   2.603  11.230  1.5293 -1.6778 -0.9310
 6418TIP3    H240746   2.338   2.505  11.342  1.1158 -1.0968 -0.5199
 6419TIP3   OH240747   2.131   0.387   0.128 -0.6238  0.0948  0.1046
 6419TIP3    H140748   2.217   0.357   0.097 -1.3982  0.3884 -2.5766
 6419TIP3    H240749   2.133   0.482   0.112 -1.4788  0.0901 -0.0318
 6420TIP3   OH240750   3.974   0.300  13.058  0.2366  0.0936  0.3424
 6420TIP3    H140751   4.016   0.380  13.087  1.5199 -1.2450  2.4310
 6420TIP3    H240752   3.970   0.307  12.963  1.3641  2.1048  0.4067
 6421TIP3   OH240753   0.550   3.046   1.960 -0.2066 -0.1747  0.2026
 6421TIP3    H140754   0.606   2.976   1.994 -0.1629 -0.5403 -0.6011
 6421TIP3    H240755   0.594   3.075   1.880 -0.7380  0.0933  0.0034
 6422TIP3   OH240756   1.611   3.357  14.067  0.2690  0.1815  0.3766
 6422TIP3    H140757   1.632   3.281  14.122  0.4016 -1.0378 -1.2876
 6422TIP3    H240758   1.515   3.361  14.066  0.0968 -2.0157 -2.0796
 6423TIP3   OH240759   3.979   0.090  12.422  0.1826 -0.2329  0.4053
 6423TIP3    H140760   3.956   0.180  12.398 -1.4048 -0.3901  1.1937
 6423TIP3    H240761   3.937   0.036  12.355 -1.5574 -0.5078  1.6455
 6424TIP3   OH240762   5.415   3.338  16.851 -0.0069 -0.5717  0.3166
 6424TIP3    H140763   5.414   3.430  16.877  1.7896  0.0033 -1.3665
 6424TIP3    H240764   5.451   3.292  16.927  1.1956  0.4491  0.3959
 6425TIP3   OH240765   3.069   2.289   2.068  0.4914 -0.4641 -0.1062
 6425TIP3    H140766   3.114   2.209   2.038 -2.5283 -2.0012 -0.9087
 6425TIP3    H240767   3.098   2.300   2.158  1.3914 -2.1548 -0.1442
 6426TIP3   OH240768   4.872   6.058  13.851  0.4747  0.0651 -0.2154
 6426TIP3    H140769   4.798   5.999  13.835  1.6497 -1.4359 -0.4072
 6426TIP3    H240770   4.832   6.145  13.861 -1.4208 -0.8693  0.9844
 6427TIP3   OH240771   1.925   5.267   3.773 -0.1185  0.1386  0.1772
 6427TIP3    H140772   1.930   5.198   3.707  2.2999  0.3117  0.1174
 6427TIP3    H240773   1.871   5.335   3.732 -1.3629 -1.0851 -0.3076
 6428TIP3   OH240774   2.872   0.515   2.596 -0.3968  0.4604  0.5888
 6428TIP3    H140775   2.785   0.478   2.606  0.4425 -1.6852  0.4822
 6428TIP3    H240776   2.910   0.513   2.683  1.1942 -3.2280  0.0068
 6429TIP3   OH240777   2.564   5.431  16.129 -0.8007 -0.3995  0.1131
 6429TIP3    H140778   2.655   5.447  16.153 -0.9229  1.1601 -0.3185
 6429TIP3    H240779   2.566   5.351  16.077  0.3020 -0.4795  0.2647
 6430TIP3   OH240780   3.738   2.575  16.924 -0.1453 -0.2528 -0.0389
 6430TIP3    H140781   3.651   2.534  16.930 -0.3156  0.1775  0.5187
 6430TIP3    H240782   3.737   2.642  16.991  0.5493 -0.0952 -0.1830
 6431TIP3   OH240783   0.756   6.702   5.306  0.1015  0.4374  0.4511
 6431TIP3    H140784   0.804   6.762   5.249  2.3107 -1.3848  0.2667
 6431TIP3    H240785   0.798   6.711   5.392  0.2058 -0.5492  0.5127
 6432TIP3   OH240786   0.229   4.624   1.476 -0.0481  0.2479 -0.3384
 6432TIP3    H140787   0.188   4.539   1.465 -0.4405  0.6081 -1.8929
 6432TIP3    H240788   0.299   4.626   1.411  0.1549  0.9866 -0.1072
 6433TIP3   OH240789   0.523   1.557  14.155 -0.3939 -0.3861  0.4740
 6433TIP3    H140790   0.449   1.613  14.132  0.6517  0.7553 -0.3110
 6433TIP3    H240791   0.571   1.547  14.073 -0.7115 -2.7538  0.5173
 6434TIP3   OH240792   4.249   6.060   1.357 -0.2396 -0.2499  0.3983
 6434TIP3    H140793   4.212   6.145   1.382  1.3445  0.6055 -0.0326
 6434TIP3    H240794   4.311   6.040   1.426 -1.6851 -1.8498  1.3020
 6435TIP3   OH240795   1.542   4.797   2.207  0.8206 -0.2373  0.0943
 6435TIP3    H140796   1.628   4.756   2.196  0.9687  0.4002 -1.2199
 6435TIP3    H240797   1.483   4.723   2.222  1.4329 -0.7627 -0.0220
 6436TIP3   OH240798   1.501   2.272   6.159  0.5151  0.1511 -0.0824
 6436TIP3    H140799   1.581   2.231   6.129  0.3379  0.5717 -1.1430
 6436TIP3    H240800   1.437   2.201   6.161  1.0667 -0.3391  1.4587
 6437TIP3   OH240801   2.815   3.545   2.785  0.1511  0.4501 -0.0458
 6437TIP3    H140802   2.770   3.551   2.869  0.0628 -1.4907  0.0792
 6437TIP3    H240803   2.857   3.630   2.774 -0.0609  0.8278  1.8260
 6438TIP3   OH240804   1.865   4.838  12.905 -0.2221  0.8817  0.1558
 6438TIP3    H140805   1.772   4.823  12.884 -0.4624  0.4524  1.4690
 6438TIP3    H240806   1.910   4.826  12.822 -1.1356 -0.7853 -0.1402
 6439TIP3   OH240807   6.640   6.477   3.779 -0.0355  0.3921 -0.2892
 6439TIP3    H140808   6.710   6.499   3.718  0.5250  0.2448  0.2984
 6439TIP3    H240809   6.657   6.530   3.856 -0.0893 -0.2632  0.1814
 6440TIP3   OH240810   3.743   2.657   2.603 -0.0289 -0.0788 -0.1736
 6440TIP3    H140811   3.650   2.636   2.612 -0.2600  0.6202 -0.8522
 6440TIP3    H240812   3.775   2.593   2.539  0.4223 -1.5857  1.4697
 6441TIP3   OH240813   6.446   4.719   1.336  0.0426  0.3638 -0.3521
 6441TIP3    H140814   6.411   4.772   1.407  0.8795  0.3356  0.0996
 6441TIP3    H240815   6.530   4.760   1.315  1.3688 -1.5166  0.9351
 6442TIP3   OH240816   1.993   0.139  12.291 -0.4425  0.0066 -0.2441
 6442TIP3    H140817   2.036   0.077  12.232 -0.4061 -0.9899  0.7837
 6442TIP3    H240818   2.062   0.201  12.315 -0.3347  0.1265 -0.8597
 6443TIP3   OH240819   6.283   5.463  12.841  0.2635  0.1066  0.3735
 6443TIP3    H140820   6.375   5.465  12.813  0.6430 -2.1489  1.2347
 6443TIP3    H240821   6.235   5.433  12.763  0.7812 -2.1670  0.8497
 6444TIP3   OH240822   2.513   0.239   3.488 -0.4394 -0.0419 -0.1072
 6444TIP3    H140823   2.606   0.215   3.484  0.3270  1.4854  4.1206
 6444TIP3    H240824   2.472   0.167   3.535 -0.9744  0.3025 -0.0414
 6445TIP3   OH240825   0.288   2.659   2.204 -0.1462 -0.0599  0.0330
 6445TIP3    H140826   0.345   2.672   2.281 -2.1228  1.4872  1.3347
 6445TIP3    H240827   0.342   2.687   2.130  0.6530  1.8962  1.2762
 6446TIP3   OH240828   2.311   6.084  11.590  0.4549 -0.2779 -0.0316
 6446TIP3    H140829   2.350   6.163  11.626  1.1622 -1.0048  0.8646
 6446TIP3    H240830   2.344   6.078  11.501 -1.0871  1.4065 -0.7673
 6447TIP3   OH240831   3.310   2.510   3.039 -0.2384 -0.4867 -0.1624
 6447TIP3    H140832   3.339   2.599   3.060 -0.8125 -0.3629  0.1358
 6447TIP3    H240833   3.329   2.460   3.118 -0.7962 -0.4135  0.0188
 6448TIP3   OH240834   6.099   0.932   4.309 -0.1380 -0.0864  0.3534
 6448TIP3    H140835   6.029   0.884   4.354 -2.5565  1.2900 -1.6553
 6448TIP3    H240836   6.053   0.984   4.242  2.8972  0.4871 -1.4700
 6449TIP3   OH240837   4.323   3.837   2.956 -0.0561  0.6417  0.0259
 6449TIP3    H140838   4.354   3.771   3.019 -0.2164  0.3763 -0.1715
 6449TIP3    H240839   4.248   3.877   2.998  2.0028  3.0863  1.6513
 6450TIP3   OH240840   1.601   1.182   1.821 -0.0244 -0.5013  0.0431
 6450TIP3    H140841   1.605   1.208   1.913 -0.5352  0.1396 -0.1053
 6450TIP3    H240842   1.608   1.087   1.822  1.0110 -0.4292  0.6720
 6451TIP3   OH240843   2.391   1.958   3.821 -0.4835  0.5918 -0.3143
 6451TIP3    H140844   2.340   2.024   3.868  1.2152  1.5504  0.2898
 6451TIP3    H240845   2.370   1.974   3.729 -1.2604  0.9535 -0.0880
 6452TIP3   OH240846   3.264   1.307  16.440 -0.1674 -0.7543 -0.1253
 6452TIP3    H140847   3.211   1.385  16.425  0.6268  0.0157  0.9017
 6452TIP3    H240848   3.204   1.234  16.428 -0.7109 -0.0499 -2.0621
 6453TIP3   OH240849   6.366   1.782  16.299  0.0784 -0.3442  0.5046
 6453TIP3    H140850   6.376   1.750  16.209 -2.3582 -0.6188  0.2766
 6453TIP3    H240851   6.447   1.754  16.343  1.0407 -0.7569 -1.4109
 6454TIP3   OH240852   2.950   5.160  11.542  0.0012 -0.1292  0.3287
 6454TIP3    H140853   2.938   5.065  11.542 -1.5470  0.0282 -0.0498
 6454TIP3    H240854   2.909   5.189  11.460  1.2124  0.7980  0.0208
 6455TIP3   OH240855   2.570   6.762   3.377 -0.0111  0.1159  0.1185
 6455TIP3    H140856   2.586   6.681   3.424  0.5106  0.3093  0.2829
 6455TIP3    H240857   2.606   6.831   3.433 -1.6026  0.6084  0.5986
 6456TIP3   OH240858   3.708   0.112   2.039 -0.4473  0.1485 -0.4458
 6456TIP3    H140859   3.733   0.037   1.986  0.5627  0.0024  0.2074
 6456TIP3    H240860   3.630   0.148   1.996 -0.8441 -1.1699 -0.8572
 6457TIP3   OH240861   5.586   3.600   1.779 -0.0371 -0.3113 -1.0578
 6457TIP3    H140862   5.497   3.578   1.808  0.0166  0.2453 -0.4537
 6457TIP3    H240863   5.577   3.616   1.685 -0.3983 -1.1923 -1.1870
 6458TIP3   OH240864   3.682   3.157   3.389  0.3535 -0.4591  0.7518
 6458TIP3    H140865   3.739   3.203   3.327 -0.0253  1.1839  1.5534
 6458TIP3    H240866   3.633   3.227   3.432 -1.2763 -1.7370  1.0661
 6459TIP3   OH240867   4.624   4.690  12.440  0.4932 -0.0954 -0.1077
 6459TIP3    H140868   4.541   4.648  12.461  0.9463 -0.9304  0.0779
 6459TIP3    H240869   4.663   4.710  12.526  1.4781 -1.7575 -0.1143
 6460TIP3   OH240870   6.158   6.285   5.854  0.2198  0.1588 -0.3435
 6460TIP3    H140871   6.169   6.276   5.949 -0.8891  0.7437 -0.1477
 6460TIP3    H240872   6.063   6.280   5.840  0.2616  1.4573 -1.2682
 6461TIP3   OH240873   3.704   3.389   2.831 -0.6447 -0.2589  0.1860
 6461TIP3    H140874   3.734   3.395   2.921 -0.6259 -0.4567  0.1935
 6461TIP3    H240875   3.613   3.417   2.834 -0.2606  1.0765  0.0425
 6462TIP3   OH240876   5.231   0.315   0.435 -0.3709  0.1134  0.0809
 6462TIP3    H140877   5.146   0.359   0.428 -0.7039 -0.6791 -1.2070
 6462TIP3    H240878   5.229   0.273   0.521 -1.1181  0.4334  0.2276
 6463TIP3   OH240879   1.986   6.660  16.741 -0.0552  0.3400  0.2205
 6463TIP3    H140880   2.000   6.648  16.835  0.5647 -1.6803 -0.0797
 6463TIP3    H240881   1.914   6.722  16.736 -2.8667 -2.4532  2.1700
 6464TIP3   OH240882   4.510   5.782  14.474  0.6296 -0.7153  0.4314
 6464TIP3    H140883   4.470   5.717  14.532 -2.4976  1.3308  0.8253
 6464TIP3    H240884   4.516   5.738  14.389  0.8849 -2.2565  1.2148
 6465TIP3   OH240885   0.402   0.734   2.653  0.1223  0.1061  0.1849
 6465TIP3    H140886   0.405   0.802   2.720  1.3637 -1.7144  2.0904
 6465TIP3    H240887   0.458   0.768   2.583  0.3913  1.2063  0.9052
 6466TIP3   OH240888   0.088   1.172  11.916  0.1040  0.0717 -0.5356
 6466TIP3    H140889   0.083   1.210  12.004 -0.1503  1.2694 -1.0344
 6466TIP3    H240890   0.006   1.200  11.875  0.0432 -0.8164 -1.0255
 6467TIP3   OH240891   4.537   2.627  11.788  0.0374 -0.9100 -0.0106
 6467TIP3    H140892   4.514   2.671  11.705  2.5516  0.1843 -0.2222
 6467TIP3    H240893   4.515   2.691  11.855 -1.9942 -1.7958  0.2545
 6468TIP3   OH240894   2.064   5.123  13.147 -0.4277  0.3779  0.1427
 6468TIP3    H140895   2.103   5.126  13.059 -1.8581  2.4319 -0.4734
 6468TIP3    H240896   2.074   5.031  13.173  0.1044 -0.2889 -2.1277
 6469TIP3   OH240897   4.602   0.277   4.970  0.0400 -0.2667  0.0841
 6469TIP3    H140898   4.520   0.269   4.921 -0.0608 -0.6936  0.3201
 6469TIP3    H240899   4.629   0.187   4.987  1.7649 -0.2366 -1.9908
 6470TIP3   OH240900   5.582   0.592  11.627  0.1353  0.2163 -0.2447
 6470TIP3    H140901   5.616   0.516  11.579 -0.7744  0.4513 -1.2979
 6470TIP3    H240902   5.643   0.602  11.701  0.0276 -1.8128  0.1951
 6471TIP3   OH240903   2.157   3.289  17.153 -0.4298 -0.1293 -0.0578
 6471TIP3    H140904   2.093   3.350  17.117 -1.9517 -2.6846 -1.9852
 6471TIP3    H240905   2.201   3.252  17.077  0.3488 -1.5464  1.0263
 6472TIP3   OH240906   4.644   3.388   3.618  0.6353  0.6224 -0.3251
 6472TIP3    H140907   4.603   3.315   3.665  1.6987  1.3476  1.8376
 6472TIP3    H240908   4.608   3.382   3.530 -1.3014 -0.9474  0.4872
 6473TIP3   OH240909   2.077   6.574   3.088  0.0640  0.1198  0.4204
 6473TIP3    H140910   2.079   6.478   3.091  1.7198  0.1358  0.9199
 6473TIP3    H240911   2.137   6.601   3.158  0.9590  1.4926 -0.8301
 6474TIP3   OH240912   2.689   0.103  15.912 -0.0039 -0.4887 -0.3494
 6474TIP3    H140913   2.657   0.193  15.902  1.3197  0.1152  0.6124
 6474TIP3    H240914   2.664   0.079  16.002  1.0799 -0.4674 -0.0285
 6475TIP3   OH240915   3.732   6.264  13.952  0.4411 -0.5245 -0.7921
 6475TIP3    H140916   3.691   6.290  14.034  0.1171  0.8043 -1.3456
 6475TIP3    H240917   3.659   6.261  13.889  0.9022  0.0144 -1.3661
 6476TIP3   OH240918   0.443   2.032  10.961 -0.5280 -0.2795  0.2339
 6476TIP3    H140919   0.391   1.951  10.961 -0.5733 -0.2487 -0.1312
 6476TIP3    H240920   0.494   2.028  10.880 -0.4190 -0.0116  0.2887
 6477TIP3   OH240921   3.581   5.633  11.219  0.2699  0.0767 -0.0894
 6477TIP3    H140922   3.566   5.544  11.187 -1.0958 -0.1369  1.0555
 6477TIP3    H240923   3.545   5.689  11.150 -0.9103 -0.3341  0.1647
 6478TIP3   OH240924   6.593   6.461   5.735  0.5806  0.1798  0.0242
 6478TIP3    H140925   6.567   6.547   5.770 -0.1051  0.1983 -0.5145
 6478TIP3    H240926   6.611   6.478   5.643 -0.7004 -0.4726 -0.3638
 6479TIP3   OH240927   2.353   3.459   4.672  0.3460  0.1544 -0.2959
 6479TIP3    H140928   2.408   3.512   4.729  0.7599  0.6420 -1.1269
 6479TIP3    H240929   2.411   3.389   4.641 -0.2270 -0.8906  0.8904
 6480TIP3   OH240930   0.423   6.525   3.224  0.7317 -0.6765 -0.0065
 6480TIP3    H140931   0.455   6.482   3.144  1.1747 -1.0761  0.3819
 6480TIP3    H240932   0.423   6.618   3.203  0.6438 -0.7909 -0.5422
 6481TIP3   OH240933   4.361   4.932   5.436 -0.1696  0.7890  0.4225
 6481TIP3    H140934   4.420   4.965   5.504 -0.0018  0.9167  0.2115
 6481TIP3    H240935   4.369   4.837   5.443 -0.2657  0.7986  0.6830
 6482TIP3   OH240936   1.977   3.009   2.728  0.0903 -0.2767 -0.0391
 6482TIP3    H140937   1.934   2.970   2.651 -0.1951 -0.6224  0.2879
 6482TIP3    H240938   2.070   3.003   2.708  0.0594  3.4808 -2.2599
 6483TIP3   OH240939   5.851   1.221  13.167 -0.3101  0.0346  0.0109
 6483TIP3    H140940   5.771   1.229  13.114 -0.2008  1.5521  0.0414
 6483TIP3    H240941   5.880   1.311  13.181 -0.0615 -0.3451  2.2787
 6484TIP3   OH240942   2.973   6.276   3.896 -0.9053  0.3394  0.1505
 6484TIP3    H140943   2.969   6.183   3.874  1.3274  0.1122  0.5202
 6484TIP3    H240944   2.897   6.313   3.852  0.0586 -1.0796 -3.0366
 6485TIP3   OH240945   1.405   5.200   1.541 -0.2233  0.3376  0.0827
 6485TIP3    H140946   1.373   5.263   1.605  0.2104  0.4966  0.1455
 6485TIP3    H240947   1.344   5.127   1.546 -0.0983  0.2818  0.7890
 6486TIP3   OH240948   2.660   6.095   0.311 -0.6070  0.6832  0.6481
 6486TIP3    H140949   2.609   6.060   0.238  0.0656  1.0762 -0.0274
 6486TIP3    H240950   2.714   6.164   0.272  1.4166 -0.5982  1.0272
 6487TIP3   OH240951   3.219   1.820   1.027 -0.2849 -0.7251 -0.4334
 6487TIP3    H140952   3.156   1.756   0.994  2.1792 -1.4250 -4.3031
 6487TIP3    H240953   3.297   1.768   1.048 -0.7964  0.0538  4.6657
 6488TIP3   OH240954   3.913   1.839  14.083 -0.3144 -0.0019  0.1354
 6488TIP3    H140955   3.912   1.803  14.171 -0.3756  2.9574  1.4534
 6488TIP3    H240956   3.834   1.893  14.078  0.5010  1.1335 -1.1504
 6489TIP3   OH240957   0.377   5.450   3.817  0.3394  0.2697  0.3732
 6489TIP3    H140958   0.289   5.487   3.822  0.7781  1.2699  1.0394
 6489TIP3    H240959   0.365   5.366   3.774 -1.1686 -0.3972  1.9867
 6490TIP3   OH240960   0.430   4.190   2.581 -0.7334  0.5359 -0.5321
 6490TIP3    H140961   0.490   4.137   2.634 -1.2579 -1.0778 -1.4680
 6490TIP3    H240962   0.474   4.198   2.496 -1.1720  0.6505 -0.7491
 6491TIP3   OH240963   2.801   0.481   4.604 -0.2579  0.1717  0.2059
 6491TIP3    H140964   2.736   0.536   4.561  0.3759 -0.5083 -1.7168
 6491TIP3    H240965   2.860   0.542   4.648  0.2739  1.0461 -1.6471
 6492TIP3   OH240966   2.475   2.385  13.612  0.1759  0.2287  0.2399
 6492TIP3    H140967   2.540   2.323  13.645  1.3153  1.0403 -0.3984
 6492TIP3    H240968   2.526   2.450  13.564 -1.3115 -1.1865 -3.7728
 6493TIP3   OH240969   1.177   4.441   4.141 -0.3849 -0.3329  0.2215
 6493TIP3    H140970   1.082   4.442   4.145 -0.4152  2.6848  1.3242
 6493TIP3    H240971   1.199   4.496   4.065  0.4887 -0.5604  0.2938
 6494TIP3   OH240972   3.557   2.921  14.328 -0.1466 -0.1381  0.0819
 6494TIP3    H140973   3.636   2.868  14.320  1.3932  1.7997  1.5551
 6494TIP3    H240974   3.562   2.961  14.414 -1.4350  2.0427 -0.7523
 6495TIP3   OH240975   5.131   0.037   2.583 -0.2492 -0.3134 -0.0301
 6495TIP3    H140976   5.083  -0.044   2.604  0.1411 -1.1959 -2.2724
 6495TIP3    H240977   5.223   0.016   2.601 -0.2657  0.0455  0.4980
 6496TIP3   OH240978   3.041   3.394   0.872  0.5418  0.1827  0.3509
 6496TIP3    H140979   2.976   3.437   0.928 -2.0089 -2.0613 -0.6153
 6496TIP3    H240980   3.043   3.447   0.793 -0.2597  0.2349  0.3506
 6497TIP3   OH240981   5.854   1.673  10.428 -0.2721  0.1536 -0.0258
 6497TIP3    H140982   5.872   1.749  10.373 -1.2441 -0.0178 -0.6066
 6497TIP3    H240983   5.789   1.704  10.491 -1.4214 -0.4348 -0.8887
 6498TIP3   OH240984   5.301   6.448  12.087 -0.3952  0.2162 -0.5388
 6498TIP3    H140985   5.239   6.399  12.034  0.9685  0.4193 -2.4393
 6498TIP3    H240986   5.369   6.385  12.110 -0.4906  0.3610  0.1821
 6499TIP3   OH240987   5.821   4.407   4.100  0.2414 -0.4774 -0.1419
 6499TIP3    H140988   5.843   4.321   4.136  0.2043  0.0433  1.1856
 6499TIP3    H240989   5.866   4.409   4.015  2.6335 -0.7284  1.0232
 6500TIP3   OH240990   4.003   6.481   5.777  0.5265  0.6473  0.7240
 6500TIP3    H140991   4.001   6.394   5.815  0.1216  0.0196 -0.6416
 6500TIP3    H240992   4.094   6.495   5.752  0.2464 -0.3015 -0.9727
 6501TIP3   OH240993   1.186   4.045  16.226  0.3541  0.4986  0.1532
 6501TIP3    H140994   1.255   4.105  16.256 -1.3953  3.2446 -0.9013
 6501TIP3    H240995   1.188   4.051  16.131 -0.1043 -0.9045  0.0335
 6502TIP3   OH240996   2.875   5.450   0.035  0.0237 -0.5698 -0.4943
 6502TIP3    H140997   2.851   5.541   0.055 -1.4405 -1.1286  0.4502
 6502TIP3    H240998   2.968   5.445   0.055  0.9003  1.4655 -3.4032
 6503TIP3   OH240999   3.298   4.075   1.330 -0.2257 -0.0638 -0.7467
 6503TIP3    H141000   3.286   4.014   1.256  1.3802  0.2634 -1.3112
 6503TIP3    H241001   3.382   4.117   1.313 -0.4000  0.9122  0.6600
 6504TIP3   OH241002   6.283   6.308  13.968 -0.6828  0.1971 -0.4284
 6504TIP3    H141003   6.278   6.403  13.956  0.8792  0.1235 -1.9238
 6504TIP3    H241004   6.276   6.272  13.880 -0.9158 -1.0843  0.0902
 6505TIP3   OH241005   3.574   1.234   3.853 -0.3006  0.3434  0.4673
 6505TIP3    H141006   3.498   1.203   3.805 -1.2552  0.2074  1.9877
 6505TIP3    H241007   3.559   1.203   3.943  1.4078  0.5641  0.8599
 6506TIP3   OH241008   2.380   0.085   1.764 -0.4846 -0.5276  0.2841
 6506TIP3    H141009   2.307   0.067   1.704 -0.7738 -0.1206  0.5048
 6506TIP3    H241010   2.393   0.003   1.811  0.7365 -1.3261 -1.3616
 6507TIP3   OH241011   4.515   6.526  12.208 -0.2101 -0.4547 -0.2158
 6507TIP3    H141012   4.541   6.617  12.219  0.3443 -0.5926 -0.3356
 6507TIP3    H241013   4.437   6.530  12.152  1.1093 -0.1706 -2.1161
 6508TIP3   OH241014   2.048   2.801   1.494  0.3486 -0.5729  0.6034
 6508TIP3    H141015   2.108   2.727   1.501  2.4694  0.9054 -0.6637
 6508TIP3    H241016   1.980   2.772   1.433  1.2020 -1.4563  0.0473
 6509TIP3   OH241017   3.250   1.094  11.452  0.0289 -0.3423  0.6647
 6509TIP3    H141018   3.277   1.183  11.430 -3.0901  1.2212  2.4048
 6509TIP3    H241019   3.310   1.068  11.522  2.2566 -0.5272 -1.1980
 6510TIP3   OH241020   1.231   0.356   3.985 -0.5047  0.3014 -0.2442
 6510TIP3    H141021   1.206   0.265   4.001 -0.8418  0.1510 -1.4941
 6510TIP3    H241022   1.325   0.359   4.002 -0.3953 -0.4132 -0.6765
 6511TIP3   OH241023   3.829   6.316  14.976 -0.3281 -0.1362 -0.0459
 6511TIP3    H141024   3.877   6.239  14.946  0.2967  0.1866  0.0938
 6511TIP3    H241025   3.885   6.390  14.952  0.3882  0.1331  2.1609
 6512TIP3   OH241026   1.164   0.839   2.389 -0.0919  0.6709 -0.4863
 6512TIP3    H141027   1.116   0.869   2.313 -0.5981  0.0465 -0.4289
 6512TIP3    H241028   1.131   0.750   2.404  1.0026  0.2708 -0.3785
 6513TIP3   OH241029   0.633   0.214   0.305 -0.0956 -0.0109  0.5742
 6513TIP3    H141030   0.629   0.307   0.283  0.3652  0.1489  1.1459
 6513TIP3    H241031   0.651   0.212   0.399 -0.4760 -0.6812  0.6377
 6514TIP3   OH241032   2.997   2.788  16.966 -0.1639 -0.5026 -0.4656
 6514TIP3    H141033   2.984   2.693  16.972 -0.0537 -0.4683  0.4746
 6514TIP3    H241034   3.091   2.799  16.981 -0.1008 -0.2723 -1.0154
 6515TIP3   OH241035   3.508   5.400  13.545  0.7825 -0.6880  0.3015
 6515TIP3    H141036   3.554   5.409  13.462  0.3418 -0.2129  0.1007
 6515TIP3    H241037   3.541   5.319  13.583 -1.7840 -3.0761 -2.1174
 6516TIP3   OH241038   5.252   3.334   1.458  0.1792  0.4405  0.3125
 6516TIP3    H141039   5.304   3.295   1.528 -0.9035 -1.4379  0.1275
 6516TIP3    H241040   5.219   3.260   1.407 -0.5685  1.6744 -1.1092
 6517TIP3   OH241041   3.950   1.836  11.761  0.3244  0.4462  0.5549
 6517TIP3    H141042   4.043   1.815  11.750 -0.0244 -0.7463 -0.3434
 6517TIP3    H241043   3.941   1.855  11.854  1.0159 -1.9518  1.1893
 6518TIP3   OH241044   5.288   3.779   3.501 -0.1353 -0.5282  0.1883
 6518TIP3    H141045   5.374   3.822   3.495 -1.0006  1.2691  0.1379
 6518TIP3    H241046   5.288   3.738   3.587  0.3233  0.4698  0.6790
 6519TIP3   OH241047   6.565   5.229  10.576 -0.5928 -0.1735 -0.0485
 6519TIP3    H141048   6.538   5.312  10.615 -0.2313 -0.7955  1.5971
 6519TIP3    H241049   6.483   5.181  10.562 -0.7964  0.4073 -0.9375
 6520TIP3   OH241050   0.245   6.407  16.550 -0.0183 -0.1939  0.3941
 6520TIP3    H141051   0.331   6.392  16.512 -0.0802 -0.3254  0.3023
 6520TIP3    H241052   0.252   6.492  16.594  0.8321 -1.2071  2.3246
 6521TIP3   OH241053   2.400   0.689  14.208  0.3186 -0.5647 -0.2243
 6521TIP3    H141054   2.317   0.732  14.229 -0.4081 -1.1412 -1.7227
 6521TIP3    H241055   2.374   0.603  14.176  1.5022 -0.7567 -0.6960
 6522TIP3   OH241056   2.732   3.611   3.527  0.6139 -0.0500 -0.1999
 6522TIP3    H141057   2.687   3.528   3.540  1.3473 -0.3942  0.2546
 6522TIP3    H241058   2.663   3.675   3.512 -0.0236 -0.5467  0.5551
 6523TIP3   OH241059   4.835   3.227   2.979  0.0134  0.1154  0.3495
 6523TIP3    H141060   4.870   3.157   2.925  0.9165 -0.3541  1.5070
 6523TIP3    H241061   4.742   3.209   2.985 -0.1224  0.2252 -1.0888
 6524TIP3   OH241062   4.074   4.523  10.557  0.1692  0.0455  0.0061
 6524TIP3    H141063   4.154   4.576  10.552 -0.2179  0.8681  1.8550
 6524TIP3    H241064   4.104   4.437  10.586  0.4054  0.3684  0.7533
 6525TIP3   OH241065   0.377   2.317   1.963 -0.0702 -0.2245  0.3650
 6525TIP3    H141066   0.462   2.359   1.975  0.3907 -0.6336 -1.2019
 6525TIP3    H241067   0.326   2.343   2.039  0.8046  1.6533  0.3609
 6526TIP3   OH241068   0.763   3.715  11.670 -0.1717 -0.6686  0.0360
 6526TIP3    H141069   0.851   3.748  11.692 -0.0688 -0.7077 -0.3202
 6526TIP3    H241070   0.766   3.623  11.695 -0.2686 -0.5616  0.4694
 6527TIP3   OH241071   4.654   4.233   6.439  0.5835 -0.6275 -0.5014
 6527TIP3    H141072   4.723   4.180   6.400  1.0470 -0.1956 -0.2754
 6527TIP3    H241073   4.634   4.299   6.371  0.2390 -0.8802 -0.6512
 6528TIP3   OH241074   2.071   6.412   5.101 -0.1573 -0.3437 -0.3721
 6528TIP3    H141075   2.060   6.381   5.012 -2.3166 -0.1196 -0.2234
 6528TIP3    H241076   2.095   6.504   5.092  1.7413 -0.8273 -0.7143
 6529TIP3   OH241077   5.152   2.320   5.519 -0.5098 -0.0761  1.1754
 6529TIP3    H141078   5.116   2.393   5.468  1.4833  2.1075  2.7230
 6529TIP3    H241079   5.196   2.266   5.453 -4.1866 -1.5402 -0.4121
 6530TIP3   OH241080   4.356   4.815   3.772  0.7895  0.0939  0.5050
 6530TIP3    H141081   4.356   4.910   3.782  0.8219  0.1289  0.1925
 6530TIP3    H241082   4.323   4.782   3.856  2.5696  0.2994  1.3342
 6531TIP3   OH241083   3.717   4.556  14.193  0.2102 -0.5869 -0.0824
 6531TIP3    H141084   3.747   4.465  14.200  0.4654 -0.5621 -0.7939
 6531TIP3    H241085   3.702   4.583  14.283  2.1793 -0.6555  0.3157
 6532TIP3   OH241086   2.905   3.909   1.664 -0.4515  0.0050 -0.4184
 6532TIP3    H141087   2.855   3.841   1.619  0.8041 -1.1258 -0.1701
 6532TIP3    H241088   2.996   3.895   1.635  0.0737  0.5542  0.8839
 6533TIP3   OH241089   3.047   6.112   5.194  0.0303  0.0360 -0.1695
 6533TIP3    H141090   3.005   6.142   5.113  0.0133  0.7853  0.1089
 6533TIP3    H241091   3.069   6.020   5.177  0.9009  0.4358 -1.3827
 6534TIP3   OH241092   0.393   5.523   3.537 -0.4307  0.2969 -0.0017
 6534TIP3    H141093   0.441   5.585   3.594  0.5231  1.0440 -1.5567
 6534TIP3    H241094   0.362   5.577   3.464  1.5618 -1.2266 -2.1033
 6535TIP3   OH241095   2.363   0.070  15.634 -0.3641 -0.0331 -0.0913
 6535TIP3    H141096   2.292   0.073  15.698 -1.7540  0.3867 -1.5892
 6535TIP3    H241097   2.356   0.152  15.585 -0.4187 -1.0489 -1.8771
 6536TIP3   OH241098   4.687   3.122   3.735 -0.2935  0.6403 -0.8357
 6536TIP3    H141099   4.734   3.067   3.797 -0.8997  3.1852  2.1511
 6536TIP3    H241100   4.624   3.063   3.693  0.6654 -1.3772  0.4168
 6537TIP3   OH241101   2.577   5.675  11.682 -0.4322 -0.9177  0.2759
 6537TIP3    H141102   2.670   5.659  11.668 -0.0332 -0.2131  1.8722
 6537TIP3    H241103   2.558   5.636  11.767 -1.3182 -0.0579  0.4919
 6538TIP3   OH241104   0.252   0.036  11.772  0.0728  0.0121 -0.1512
 6538TIP3    H141105   0.343   0.057  11.750  0.1728 -0.6393 -0.3809
 6538TIP3    H241106   0.256   0.005  11.863 -0.1447  1.4238  0.3511
 6539TIP3   OH241107   2.813   2.041   4.808  0.1045  0.3591  0.2139
 6539TIP3    H141108   2.804   2.113   4.871 -1.8143  0.1114  0.2541
 6539TIP3    H241109   2.811   1.962   4.862 -1.3716  0.1541 -0.1084
 6540TIP3   OH241110   3.720   0.521  11.811  0.0482 -0.3682  0.3048
 6540TIP3    H141111   3.730   0.608  11.848  2.4115 -1.2765  2.0792
 6540TIP3    H241112   3.639   0.487  11.850 -1.2525  1.1900 -0.9197
 6541TIP3   OH241113   4.919   0.300  16.458  0.5112 -0.2427  0.2372
 6541TIP3    H141114   4.951   0.390  16.455 -0.7282  0.2447  0.8039
 6541TIP3    H241115   4.888   0.288  16.548 -0.2417 -0.9066 -0.0965
 6542TIP3   OH241116   2.123   2.021  16.359  0.0520  0.0068 -0.1597
 6542TIP3    H141117   2.175   2.059  16.430  0.7417 -0.8208 -0.2097
 6542TIP3    H241118   2.120   2.090  16.292  0.8839  0.1466 -0.0608
 6543TIP3   OH241119   3.551   1.379   5.698  0.2403 -0.0849 -0.2254
 6543TIP3    H141120   3.629   1.322   5.697 -0.4680 -1.1194  0.7449
 6543TIP3    H241121   3.487   1.332   5.645 -0.6034 -0.6014  1.2052
 6544TIP3   OH241122   2.625   3.677   4.115 -0.1935 -0.2760  0.3044
 6544TIP3    H141123   2.576   3.740   4.062 -2.2183 -1.4570  0.6533
 6544TIP3    H241124   2.683   3.634   4.053 -0.1242  0.6266 -0.2844
 6545TIP3   OH241125   0.966   6.211   1.698  0.0210 -0.6478 -0.5020
 6545TIP3    H141126   1.014   6.157   1.635  1.3059 -0.4438  0.2686
 6545TIP3    H241127   1.002   6.299   1.687  0.0230 -0.5408  0.2890
 6546TIP3   OH241128   3.106   3.465  12.062 -0.3543  0.7288  0.1768
 6546TIP3    H141129   3.167   3.515  12.118  0.0861  1.3411 -0.8184
 6546TIP3    H241130   3.020   3.484  12.098 -0.1029  1.3698  0.4614
 6547TIP3   OH241131   6.102   1.662   0.082 -0.0509  0.0544 -0.2711
 6547TIP3    H141132   6.113   1.634  -0.009  2.1937  1.5180 -0.5330
 6547TIP3    H241133   6.050   1.592   0.122 -3.1090  0.4353 -3.1364
 6548TIP3   OH241134   0.651   4.169   0.618 -0.1358 -0.0661  0.4681
 6548TIP3    H141135   0.723   4.112   0.591  0.4812  0.3326  1.2515
 6548TIP3    H241136   0.689   4.229   0.682 -1.2649 -0.1344  1.2423
 6549TIP3   OH241137   3.019   2.254  14.090  0.4461 -0.5069  0.1010
 6549TIP3    H141138   3.024   2.242  13.995  0.5791  0.4013 -0.0103
 6549TIP3    H241139   2.926   2.242  14.110  0.2394  0.3724 -0.3007
 6550TIP3   OH241140   2.572   1.847   4.239 -0.4062 -0.2176  0.3602
 6550TIP3    H141141   2.494   1.859   4.185 -0.6873  0.3856  0.8809
 6550TIP3    H241142   2.625   1.925   4.222 -0.1379 -0.3960  0.3704
 6551TIP3   OH241143   6.534   6.732  12.331 -0.5495 -0.7482 -0.8124
 6551TIP3    H141144   6.457   6.676  12.347  0.1914 -1.4896  0.3382
 6551TIP3    H241145   6.500   6.821  12.338 -1.5080 -1.0529 -1.3808
 6552TIP3   OH241146   2.733   6.783  11.290  0.3944  0.1841  0.4957
 6552TIP3    H141147   2.718   6.848  11.221  0.1684  0.3427  0.6927
 6552TIP3    H241148   2.827   6.764  11.284  0.4063  0.3111  0.2455
 6553TIP3   OH241149   3.432   2.367  15.617 -0.4728  0.2078 -0.1913
 6553TIP3    H141150   3.484   2.336  15.543 -2.9194 -1.7928 -1.2000
 6553TIP3    H241151   3.344   2.332  15.602 -1.5307  1.2710  2.7307
 6554TIP3   OH241152   1.959   1.649   0.752 -0.5703 -0.8439 -0.1202
 6554TIP3    H141153   1.884   1.682   0.702 -0.2570  1.1157  0.6111
 6554TIP3    H241154   1.928   1.568   0.792 -2.2275 -0.2061 -0.0526
 6555TIP3   OH241155   0.731   0.213   1.403 -0.2819 -0.1654  0.5675
 6555TIP3    H141156   0.824   0.198   1.386 -0.4677  0.0282 -0.7127
 6555TIP3    H241157   0.696   0.125   1.418  0.3626 -0.1274  2.6662
 6556TIP3   OH241158   3.982   3.309   4.506  0.6392  0.5909 -0.1641
 6556TIP3    H141159   4.032   3.250   4.563 -1.0344  1.0026  1.8792
 6556TIP3    H241160   3.968   3.260   4.426 -0.8737 -1.9713  1.5307
 6557TIP3   OH241161   0.005   1.890  10.930 -0.0792 -0.1411 -0.0524
 6557TIP3    H141162   0.005   1.985  10.942 -3.0828 -0.0869  0.3391
 6557TIP3    H241163   0.041   1.856  11.011 -0.7406  0.6546  0.5993
 6558TIP3   OH241164   2.198   5.501  15.877 -0.1955 -0.5904 -0.5114
 6558TIP3    H141165   2.194   5.585  15.832  1.4969  0.5680  1.3441
 6558TIP3    H241166   2.107   5.469  15.877 -0.7739  0.9370 -1.7113
 6559TIP3   OH241167   2.075   5.470  15.470  0.5924 -0.2279 -0.0419
 6559TIP3    H141168   2.093   5.552  15.516  0.0099 -0.9334  1.4873
 6559TIP3    H241169   2.017   5.496  15.398  3.4354  1.2588 -1.9719
 6560TIP3   OH241170   4.770   0.110  12.176 -0.0362 -0.6751 -0.1529
 6560TIP3    H141171   4.697   0.170  12.193  0.0115 -0.6052 -0.1963
 6560TIP3    H241172   4.848   0.160  12.199 -0.0651 -1.1851  1.1724
 6561TIP3   OH241173   5.538   5.315   0.921  0.0241 -0.1949 -0.2543
 6561TIP3    H141174   5.530   5.318   0.826 -2.1842 -1.1467 -0.1482
 6561TIP3    H241175   5.471   5.375   0.953 -0.2474 -0.9829  0.7077
 6562TIP3   OH241176   0.999   3.148  13.272 -0.1945 -0.2840 -0.0177
 6562TIP3    H141177   0.999   3.228  13.220  0.4858  0.8872  1.7188
 6562TIP3    H241178   0.927   3.160  13.334 -0.3513 -1.2247 -0.0047
 6563TIP3   OH241179   1.265   5.495   5.610  0.4054  0.2936 -0.2288
 6563TIP3    H141180   1.343   5.514   5.557  0.0767 -0.1525 -0.8862
 6563TIP3    H241181   1.294   5.426   5.671  1.2141  1.8537  1.2496
 6564TIP3   OH241182   3.519   4.780   4.651 -0.2598 -0.2048 -0.1603
 6564TIP3    H141183   3.444   4.833   4.624  0.1616  0.8990  0.7642
 6564TIP3    H241184   3.589   4.805   4.591  0.1512  0.8879  0.7289
 6565TIP3   OH241185   5.029   2.494   4.906 -0.1902  0.1599 -0.0589
 6565TIP3    H141186   5.067   2.406   4.906  0.2104  0.3174 -0.9533
 6565TIP3    H241187   4.974   2.497   4.984 -0.6210 -1.0583 -0.2949
 6566TIP3   OH241188   1.129   3.257   2.235 -0.0409 -0.2101 -0.5788
 6566TIP3    H141189   1.093   3.332   2.283  2.0304  1.2318 -1.1517
 6566TIP3    H241190   1.176   3.206   2.302 -0.4656 -0.3695 -0.3988
 6567TIP3   OH241191   4.200   5.726   2.326 -0.0854 -0.3596 -0.0466
 6567TIP3    H141192   4.158   5.809   2.303  0.2377 -0.0262  0.5497
 6567TIP3    H241193   4.293   5.747   2.331  0.0694 -0.9066 -0.5369
 6568TIP3   OH241194   2.323   2.380   4.211  0.7471  0.5951 -0.2839
 6568TIP3    H141195   2.236   2.393   4.250  0.6687  2.2034 -0.9064
 6568TIP3    H241196   2.332   2.285   4.204 -0.6932  0.3781  0.3921
 6569TIP3   OH241197   0.358   5.027   0.216 -0.6985 -0.1019 -0.7316
 6569TIP3    H141198   0.380   4.952   0.161  0.6364 -1.4840  1.5494
 6569TIP3    H241199   0.276   5.002   0.258 -0.7620  0.1591 -0.6988
 6570TIP3   OH241200   6.611   0.655   6.744 -0.0322 -0.4011  0.2950
 6570TIP3    H141201   6.519   0.678   6.754 -0.4063 -0.6282 -2.0356
 6570TIP3    H241202   6.653   0.735   6.714  0.2926 -0.5873  0.2416
 6571TIP3   OH241203   4.713   2.313  13.761 -0.4519 -0.3774  0.5527
 6571TIP3    H141204   4.629   2.348  13.792 -0.1868  0.8452 -0.0426
 6571TIP3    H241205   4.747   2.262  13.834 -0.3407  1.5441  1.9159
 6572TIP3   OH241206   0.960   2.755  16.354 -0.5192  0.2643  0.1581
 6572TIP3    H141207   0.970   2.826  16.417 -1.3671 -0.5875  1.3016
 6572TIP3    H241208   0.885   2.781  16.300 -0.6223  0.3985  0.3628
 6573TIP3   OH241209   4.083   5.875  12.566  0.2317 -0.2969 -0.7987
 6573TIP3    H141210   4.018   5.841  12.505 -0.8477  0.8244 -0.3009
 6573TIP3    H241211   4.033   5.901  12.643  1.4117 -0.4737  0.0677
 6574TIP3   OH241212   0.679   0.781   3.941  0.3235  0.7805  0.2229
 6574TIP3    H141213   0.713   0.802   4.027  0.5346  1.3598  0.0036
 6574TIP3    H241214   0.610   0.717   3.957 -0.1402  1.4287  0.8856
 6575TIP3   OH241215   0.467   2.368  16.045 -0.3197 -0.3566 -0.5845
 6575TIP3    H141216   0.458   2.463  16.046 -0.4615 -0.3403 -1.8937
 6575TIP3    H241217   0.451   2.343  15.954 -0.4367 -1.6503 -0.2316
 6576TIP3   OH241218   1.466   2.685   2.840 -0.2824  0.3623 -0.0282
 6576TIP3    H141219   1.477   2.745   2.914  0.4146  0.9956 -0.6299
 6576TIP3    H241220   1.528   2.614   2.857 -1.2428 -0.3191  0.7819
 6577TIP3   OH241221   0.125   3.329   2.066  0.5150 -0.1043 -0.1511
 6577TIP3    H141222   0.099   3.418   2.044 -0.2234  0.2157  1.8815
 6577TIP3    H241223   0.046   3.277   2.054  0.5491 -0.2215  0.1301
 6578TIP3   OH241224   5.884   3.611  12.125  0.5748 -0.0733  0.0953
 6578TIP3    H141225   5.975   3.641  12.117  0.6952 -0.4360  0.0762
 6578TIP3    H241226   5.833   3.681  12.084  0.4330  2.1645  3.6559
 6579TIP3   OH241227   1.717   1.943  15.782 -0.3269  0.0645 -0.4080
 6579TIP3    H141228   1.668   1.953  15.864  2.2880 -0.1528  1.2859
 6579TIP3    H241229   1.671   1.874  15.735 -2.2827  0.6418  0.5282
 6580TIP3   OH241230   1.061   2.673   3.007 -0.2746  0.1835 -0.8408
 6580TIP3    H141231   1.064   2.721   3.090  0.9796 -0.9247 -0.1989
 6580TIP3    H241232   0.973   2.636   3.004  0.4666 -2.1525  1.5013
 6581TIP3   OH241233   6.305   1.997  14.184 -0.6987 -0.9716  0.2112
 6581TIP3    H141234   6.378   2.059  14.183  0.4773 -2.1816 -3.0469
 6581TIP3    H241235   6.342   1.918  14.223 -0.6551 -1.1396 -0.1606
 6582TIP3   OH241236   0.391   4.618  15.356 -0.0712  0.1090 -0.0486
 6582TIP3    H141237   0.477   4.582  15.331  0.2546  0.5720  0.3911
 6582TIP3    H241238   0.399   4.636  15.449 -1.2879 -1.6542  0.4573
 6583TIP3   OH241239   5.719   2.645  11.302 -0.2148 -0.1538  0.3351
 6583TIP3    H141240   5.765   2.691  11.232 -0.0903  0.8563  1.0578
 6583TIP3    H241241   5.744   2.553  11.291 -1.0094 -0.1879 -1.5660
 6584TIP3   OH241242   4.143   4.572  14.258  0.0640 -0.1025  0.3069
 6584TIP3    H141243   4.106   4.577  14.346  0.3623  1.7688  0.3750
 6584TIP3    H241244   4.237   4.562  14.273  0.0681 -0.2272  0.1963
 6585TIP3   OH241245   0.310   6.149  16.566 -0.1741 -0.3688 -0.3250
 6585TIP3    H141246   0.302   6.131  16.472 -0.0134 -0.1767 -0.3778
 6585TIP3    H241247   0.266   6.233  16.577  0.8338  0.1870 -0.4387
 6586TIP3   OH241248   4.191   4.235   5.147 -0.2225  0.3955 -0.1937
 6586TIP3    H141249   4.242   4.214   5.226  0.3938  0.9497 -0.4316
 6586TIP3    H241250   4.101   4.240   5.178 -0.2850 -1.5522  0.0564
 6587TIP3   OH241251   4.857   5.010   1.295  0.1776 -0.0985 -0.0479
 6587TIP3    H141252   4.862   5.078   1.228 -2.5885 -0.7299 -0.9960
 6587TIP3    H241253   4.826   5.056   1.373  0.0976  0.0515 -0.1682
 6588TIP3   OH241254   3.570   4.406  12.121 -0.0738  0.1112  0.6281
 6588TIP3    H141255   3.656   4.397  12.080  0.0227  1.0081  0.6115
 6588TIP3    H241256   3.508   4.410  12.047 -0.4743 -3.3028  0.6544
 6589TIP3   OH241257   5.316   4.032  15.183  0.6366 -0.0024 -0.0913
 6589TIP3    H141258   5.271   4.097  15.237  0.2948 -1.0716  0.9524
 6589TIP3    H241259   5.317   4.070  15.096 -1.6352  0.3965 -0.0095
 6590TIP3   OH241260   0.624   3.148   5.685  1.1903  0.2758 -0.6583
 6590TIP3    H141261   0.602   3.183   5.772 -2.3886 -0.8742 -0.9262
 6590TIP3    H241262   0.695   3.086   5.702  0.0781 -0.5091  1.6546
 6591TIP3   OH241263   0.605   0.061   0.894 -0.4186 -0.2622 -0.0616
 6591TIP3    H141264   0.548   0.061   0.972 -0.9571 -1.7519 -0.4155
 6591TIP3    H241265   0.595   0.148   0.857 -1.4832 -0.0778  0.6035
 6592TIP3   OH241266   4.218   1.621   2.430 -0.2838  0.1985 -0.1499
 6592TIP3    H141267   4.290   1.682   2.444 -1.6321  1.7518  0.5006
 6592TIP3    H241268   4.185   1.603   2.518 -0.6359 -0.5516 -0.4299
 6593TIP3   OH241269   4.756   6.020   2.298  0.4003  0.7009 -0.6072
 6593TIP3    H141270   4.740   5.999   2.206  0.1568  0.8338 -0.5958
 6593TIP3    H241271   4.826   5.961   2.325 -1.2593 -1.1625 -0.1585
 6594TIP3   OH241272   1.159   5.977   6.389  0.1530 -0.0112  0.3958
 6594TIP3    H141273   1.064   5.961   6.394 -0.0488  0.3530 -1.7079
 6594TIP3    H241274   1.197   5.889   6.389 -0.1933 -0.1703  0.9185
 6595TIP3   OH241275   0.830   0.573   5.528  0.1715 -0.1133 -0.3765
 6595TIP3    H141276   0.797   0.564   5.617  0.8335  1.3973  0.0587
 6595TIP3    H241277   0.832   0.667   5.512  2.8076 -0.1582 -0.8939
 6596TIP3   OH241278   6.135   3.609  13.411 -0.2230  0.3689  0.6814
 6596TIP3    H141279   6.173   3.639  13.328  0.8857  2.1871  1.7927
 6596TIP3    H241280   6.187   3.652  13.479 -2.4290  0.6480  2.3277
 6597TIP3   OH241281   3.828   3.614   3.316 -0.3495  0.0405  0.2500
 6597TIP3    H141282   3.823   3.692   3.371  0.4227  0.9208 -0.8733
 6597TIP3    H241283   3.737   3.596   3.291 -0.4640  1.0458 -0.0952
 6598TIP3   OH241284   2.692   3.255  12.259  1.0247  0.1136 -0.0835
 6598TIP3    H141285   2.629   3.228  12.193 -0.2767  0.8672  0.8204
 6598TIP3    H241286   2.677   3.195  12.332  1.0000  0.6128  0.3276
 6599TIP3   OH241287   0.799   6.432  14.621  0.1918  0.7786 -0.7156
 6599TIP3    H141288   0.847   6.362  14.666 -0.0885  0.8357 -0.3242
 6599TIP3    H241289   0.777   6.494  14.690 -0.9763  0.4543 -0.7824
 6600TIP3   OH241290   1.377   2.358  17.202 -0.3215  0.5562 -0.0338
 6600TIP3    H141291   1.443   2.325  17.263 -1.7366 -1.3993  0.5344
 6600TIP3    H241292   1.419   2.353  17.116 -0.3621 -2.8115  0.0140
 6601TIP3   OH241293   5.963   6.797  16.904  0.4342 -0.0152 -0.0780
 6601TIP3    H141294   5.959   6.892  16.890  0.0358 -0.1427 -0.8693
 6601TIP3    H241295   5.985   6.761  16.819  1.3329 -0.6003  0.3766
 6602TIP3   OH241296   5.884   2.366  13.790  0.5385  0.1302  0.1858
 6602TIP3    H141297   5.869   2.443  13.846  0.5523 -1.1342  2.0413
 6602TIP3    H241298   5.819   2.373  13.721 -1.1076  0.5857  1.7055
 6603TIP3   OH241299   4.792   5.596   2.064 -0.1720 -0.2912  0.2262
 6603TIP3    H141300   4.703   5.563   2.051 -0.4289  0.7054 -0.7020
 6603TIP3    H241301   4.839   5.570   1.985 -0.0299  0.3884  0.0749
 6604TIP3   OH241302   2.496   2.520   1.680  0.4089  0.3229  0.2117
 6604TIP3    H141303   2.503   2.473   1.764 -0.1714 -0.1584  0.0037
 6604TIP3    H241304   2.542   2.465   1.617 -0.9203 -0.3875 -0.1850
 6605TIP3   OH241305   1.798   6.230   3.047 -0.7192 -0.0396  0.2108
 6605TIP3    H141306   1.767   6.257   2.961  0.4453  0.4716 -0.0660
 6605TIP3    H241307   1.722   6.189   3.088 -1.3476 -0.1083 -0.9775
 6606TIP3   OH241308   2.536   1.878  14.616 -0.2001 -0.4672  0.7261
 6606TIP3    H141309   2.536   1.838  14.703 -1.1167  0.2694  1.0835
 6606TIP3    H241310   2.547   1.972  14.633  0.1792 -0.3796  0.0152
 6607TIP3   OH241311   2.221   1.941  11.942 -0.0111 -0.0706 -0.2629
 6607TIP3    H141312   2.314   1.944  11.966 -0.5027  2.6632  1.6970
 6607TIP3    H241313   2.180   1.886  12.009  0.0638 -0.8796 -0.8563
 6608TIP3   OH241314   6.636   5.637  14.448 -0.3664 -0.0383 -0.3299
 6608TIP3    H141315   6.702   5.704  14.464 -0.7508  0.2670 -0.0106
 6608TIP3    H241316   6.552   5.681  14.463 -0.5851 -0.9803  1.4034
 6609TIP3   OH241317   5.161   6.540  12.290 -0.2949 -0.3669 -0.1887
 6609TIP3    H141318   5.205   6.479  12.230 -0.3834  0.2589 -0.9065
 6609TIP3    H241319   5.100   6.589  12.234 -0.4997  0.1238  0.4470
 6610TIP3   OH241320   3.118   5.639  16.845  0.2566  0.0067  0.2170
 6610TIP3    H141321   3.129   5.554  16.803  0.3236 -0.9512  2.0962
 6610TIP3    H241322   3.060   5.623  16.919 -0.5655  1.8074  0.0141
 6611TIP3   OH241323   2.473   3.647  11.136 -0.2413  0.2447  0.4533
 6611TIP3    H141324   2.549   3.701  11.118 -0.5971 -0.1629 -2.9493
 6611TIP3    H241325   2.507   3.558  11.140 -0.3432  0.2080  0.5074
 6612TIP3   OH241326   1.321   1.566  11.777  0.1275  0.4820 -0.5354
 6612TIP3    H141327   1.286   1.632  11.716  0.3837  0.5158 -0.6476
 6612TIP3    H241328   1.400   1.607  11.812 -0.3376  0.7085  0.2762
 6613TIP3   OH241329   6.038   3.723  16.274 -0.4196 -0.5652  0.6307
 6613TIP3    H141330   6.075   3.651  16.224 -0.2136 -0.1862  0.2198
 6613TIP3    H241331   5.945   3.724  16.250 -0.5864 -1.1824  1.2489
 6614TIP3   OH241332   2.563   2.700  14.619 -0.0795  0.1719  0.8613
 6614TIP3    H141333   2.536   2.632  14.557 -0.5320  0.5071  0.6781
 6614TIP3    H241334   2.658   2.695  14.621 -0.1044 -0.3779  0.7503
 6615TIP3   OH241335   3.125   2.725   2.819 -0.9010 -0.4729 -0.1751
 6615TIP3    H141336   3.181   2.791   2.779 -0.0417  1.5548  3.8449
 6615TIP3    H241337   3.041   2.733   2.773  0.1093  1.2273 -1.8541
 6616TIP3   OH241338   6.290   6.516  11.998  0.5916  0.2978 -0.2788
 6616TIP3    H141339   6.375   6.495  12.037 -0.0979 -2.4274 -0.0781
 6616TIP3    H241340   6.226   6.484  12.061 -0.6013  1.0798 -1.0547
 6617TIP3   OH241341   0.325   5.707  12.969 -0.7322  0.4882 -0.4029
 6617TIP3    H141342   0.331   5.801  12.949 -1.2733  0.6751  0.3003
 6617TIP3    H241343   0.235   5.684  12.946 -0.2034 -0.1964 -1.9441
 6618TIP3   OH241344   5.445   0.469   2.395 -0.4499 -0.4356 -0.0870
 6618TIP3    H141345   5.413   0.517   2.319 -1.2846 -2.5215 -1.1451
 6618TIP3    H241346   5.468   0.536   2.459 -1.2078  1.3278 -1.5918
 6619TIP3   OH241347   4.898   1.312  12.278  0.2685 -0.5654  0.0754
 6619TIP3    H141348   4.992   1.324  12.265 -0.0263  0.5689 -1.2343
 6619TIP3    H241349   4.877   1.229  12.235  0.4941 -0.2784 -0.5894
 6620TIP3   OH241350   3.073   1.946   3.081  0.2641 -0.1672 -0.1340
 6620TIP3    H141351   3.157   1.907   3.104  0.3535 -0.6448 -1.2086
 6620TIP3    H241352   3.016   1.927   3.156  0.7555 -0.9545  0.0475
 6621TIP3   OH241353   0.396   1.550  12.646 -0.5125 -0.2343  0.1711
 6621TIP3    H141354   0.313   1.506  12.628 -2.4532  3.2179 -0.1831
 6621TIP3    H241355   0.397   1.563  12.741  0.5086 -1.7709  0.3941
 6622TIP3   OH241356   3.734   4.748   2.141 -0.0020 -0.3534  0.0567
 6622TIP3    H141357   3.804   4.712   2.087  0.3072 -0.9003  0.8009
 6622TIP3    H241358   3.700   4.822   2.091  0.3421 -0.7850 -0.8262
 6623TIP3   OH241359   4.154   2.129  13.347 -0.8146 -0.0757 -0.5531
 6623TIP3    H141360   4.064   2.100  13.327 -0.9885  0.1756 -0.1488
 6623TIP3    H241361   4.157   2.132  13.443 -0.6983  0.9189 -0.5813
 6624TIP3   OH241362   1.451   1.635   2.353 -0.1588  0.0357 -0.3548
 6624TIP3    H141363   1.493   1.720   2.344  0.3943 -0.2308 -0.3170
 6624TIP3    H241364   1.404   1.640   2.437  1.0316 -0.1808  0.3487
 6625TIP3   OH241365   1.595   2.705   0.023  0.5835  0.0748  0.2352
 6625TIP3    H141366   1.543   2.699  -0.058 -0.4572 -0.2443  0.9025
 6625TIP3    H241367   1.617   2.798   0.030 -0.3721  0.3225  0.2045
 6626TIP3   OH241368   6.074   1.773   0.934 -0.3857  0.1105  0.2219
 6626TIP3    H141369   6.163   1.796   0.907 -0.4228 -0.3456 -0.2827
 6626TIP3    H241370   6.031   1.745   0.854 -0.9350  0.1601  0.4986
 6627TIP3   OH241371   0.794   6.677   1.187  0.4726  0.0394 -0.1581
 6627TIP3    H141372   0.797   6.619   1.111 -1.6093  0.7549 -0.8641
 6627TIP3    H241373   0.855   6.747   1.167  0.5585 -0.2161 -0.8000
 6628TIP3   OH241374   5.719   6.541   3.663  0.0426 -0.4443 -0.0674
 6628TIP3    H141375   5.770   6.505   3.736 -1.1527 -1.0395  0.5036
 6628TIP3    H241376   5.629   6.516   3.683 -0.4627  0.5038 -1.1022
 6629TIP3   OH241377   3.529   6.135   6.337 -0.7491 -0.3153 -0.6222
 6629TIP3    H141378   3.516   6.182   6.419  0.3698 -1.4467  0.2450
 6629TIP3    H241379   3.621   6.149   6.315 -0.7651 -0.8908 -1.1024
 6630TIP3   OH241380   1.174   3.961  16.833  0.6331 -0.1229  0.7615
 6630TIP3    H141381   1.096   3.911  16.858  0.8649 -1.7009 -1.3787
 6630TIP3    H241382   1.245   3.897  16.831  1.3733  0.6814 -0.0919
 6631TIP3   OH241383   6.219   6.630   0.819 -0.3427  0.4180  0.1453
 6631TIP3    H141384   6.165   6.644   0.897  0.1027  0.9698  0.3595
 6631TIP3    H241385   6.280   6.561   0.845 -0.2581  0.5332  0.2544
 6632TIP3   OH241386   4.315   3.222   0.547  0.6083 -0.3052  0.5409
 6632TIP3    H141387   4.356   3.306   0.567 -0.4753  0.0698  1.2392
 6632TIP3    H241388   4.307   3.178   0.631  3.4876 -2.2723 -0.0473
 6633TIP3   OH241389   5.936   0.399   2.089  0.0879 -0.3664  0.0764
 6633TIP3    H141390   5.887   0.480   2.079 -0.2796 -0.0793  3.2678
 6633TIP3    H241391   5.870   0.330   2.085 -0.4907 -0.0711  2.9002
 6634TIP3   OH241392   6.421   1.205  15.745  0.3165 -0.1410  0.0030
 6634TIP3    H141393   6.432   1.116  15.711 -0.2347 -0.4644  0.6526
 6634TIP3    H241394   6.502   1.250  15.720 -0.3898 -0.0838 -2.5253
 6635TIP3   OH241395   6.722   3.791  17.182 -0.0076 -0.2512 -0.4541
 6635TIP3    H141396   6.814   3.773  17.165 -0.2470  0.0363 -2.3744
 6635TIP3    H241397   6.722   3.873  17.231  0.7689 -0.4993 -0.0358
 6636TIP3   OH241398   1.390   3.162  17.259 -0.0136 -0.0608 -0.4972
 6636TIP3    H141399   1.313   3.170  17.202 -0.4110 -0.2682  0.0030
 6636TIP3    H241400   1.465   3.174  17.201 -0.3765 -1.2401 -1.2382
 6637TIP3   OH241401   3.420   4.974  13.892  0.1427  0.5656  0.1997
 6637TIP3    H141402   3.381   5.010  13.972 -1.5765 -0.1200 -0.2728
 6637TIP3    H241403   3.461   4.892  13.920 -1.6283 -0.3690  0.2032
 6638TIP3   OH241404   4.970   2.749   5.893 -0.0417  0.1126  0.7180
 6638TIP3    H141405   4.978   2.844   5.903  1.0350  0.0807  0.2608
 6638TIP3    H241406   4.918   2.721   5.968 -0.9764  1.1463  0.4821
 6639TIP3   OH241407   2.671   5.705  14.929 -0.0875 -0.2604  0.1272
 6639TIP3    H141408   2.662   5.675  14.839  2.4011 -1.3403  0.1629
 6639TIP3    H241409   2.676   5.625  14.981  0.1411  0.3159  1.0171
 6640TIP3   OH241410   2.498   0.184   0.411  0.4661  0.4088 -0.2192
 6640TIP3    H141411   2.558   0.154   0.343  0.4576 -0.1432  0.0083
 6640TIP3    H241412   2.504   0.279   0.409 -0.8441  0.5286 -2.2158
 6641TIP3   OH241413   2.213   0.241  16.674 -0.3205 -0.0890 -0.0221
 6641TIP3    H141414   2.282   0.238  16.608 -0.0366  0.6330  0.2339
 6641TIP3    H241415   2.246   0.187  16.746 -0.5239 -0.6755 -0.3628
 6642TIP3   OH241416   6.032   3.217  15.348  0.2101 -0.1854  0.5304
 6642TIP3    H141417   6.002   3.290  15.403  1.9075  0.1578  1.0492
 6642TIP3    H241418   6.023   3.249  15.258 -0.2517  0.1757  0.7028
 6643TIP3   OH241419   6.290   4.218   1.221 -0.2342 -0.5353  0.4072
 6643TIP3    H141420   6.212   4.259   1.183 -0.4168 -0.7452  0.5570
 6643TIP3    H241421   6.304   4.139   1.168 -0.0294 -0.4136  0.2788
 6644TIP3   OH241422   5.706   1.020   2.215 -0.1985  0.4214 -0.4016
 6644TIP3    H141423   5.722   1.109   2.186  2.4218  0.4020  0.7157
 6644TIP3    H241424   5.773   1.003   2.281 -2.7390 -1.2065  2.0234
 6645TIP3   OH241425   3.089   1.439   2.562 -0.0566  0.1541  0.0252
 6645TIP3    H141426   3.181   1.454   2.540 -0.0679 -1.7169 -1.6892
 6645TIP3    H241427   3.051   1.406   2.480 -1.2977 -2.8705  1.6650
 6646TIP3   OH241428   0.637   2.422   4.391  0.0437  0.4227  0.0744
 6646TIP3    H141429   0.633   2.517   4.379 -0.8158  0.5139  0.9391
 6646TIP3    H241430   0.550   2.390   4.368 -0.1815  0.0590  1.3143
 6647TIP3   OH241431   4.660   3.815  14.574 -0.2975  0.4339  0.4557
 6647TIP3    H141432   4.714   3.849  14.503 -0.7733 -0.7690 -0.5186
 6647TIP3    H241433   4.618   3.893  14.612  1.5950  1.3123  0.8270
 6648TIP3   OH241434   5.135   6.583   5.693  0.3825  0.3188  0.2818
 6648TIP3    H141435   5.180   6.665   5.674 -1.0130  0.8997 -0.7365
 6648TIP3    H241436   5.168   6.522   5.627  0.4659  0.4441  0.2075
 6649TIP3   OH241437   3.927   5.517  14.871  0.1702  0.2949  0.0715
 6649TIP3    H141438   3.901   5.506  14.780  0.4576  1.9493 -0.2437
 6649TIP3    H241439   3.954   5.608  14.877  0.1598  0.2126  1.8235
 6650TIP3   OH241440   4.691   3.193  13.680 -0.0211 -0.1504 -0.1718
 6650TIP3    H141441   4.694   3.133  13.605 -1.1345 -0.8281  0.2892
 6650TIP3    H241442   4.660   3.138  13.753  0.5941  0.6047  0.6697
 6651TIP3   OH241443   0.888   2.302   3.943 -0.0279  0.2385  0.4515
 6651TIP3    H141444   0.857   2.371   4.002  0.2972  0.8112 -0.0341
 6651TIP3    H241445   0.819   2.296   3.876 -0.5643 -0.6522  1.0663
 6652TIP3   OH241446   2.642   0.029  13.921 -0.0340  0.1449 -0.2932
 6652TIP3    H141447   2.695   0.014  13.998 -0.1349  0.0904 -0.2336
 6652TIP3    H241448   2.704   0.026  13.848  0.2399  1.2335 -0.1340
 6653TIP3   OH241449   2.290   6.772   1.392 -0.0261  0.0873 -0.1511
 6653TIP3    H141450   2.244   6.855   1.382  1.3879  1.0302  0.7965
 6653TIP3    H241451   2.276   6.748   1.484 -2.0461 -1.7939 -0.8289
 6654TIP3   OH241452   6.799   0.125   1.135 -0.0853 -0.3384  0.0689
 6654TIP3    H141453   6.894   0.108   1.140  0.0226 -0.1778 -1.0734
 6654TIP3    H241454   6.792   0.220   1.125 -0.2476 -0.4782 -1.5127
 6655TIP3   OH241455   2.409   5.966   6.150  0.7278 -0.3137 -0.2674
 6655TIP3    H141456   2.334   5.952   6.092  1.2220 -1.4780 -0.6562
 6655TIP3    H241457   2.483   5.929   6.102  1.3918 -0.0200  0.5164
 6656TIP3   OH241458   1.970   4.351  15.830 -0.0886  0.3753  0.4283
 6656TIP3    H141459   2.058   4.341  15.865  0.1240 -0.3070 -0.2882
 6656TIP3    H241460   1.927   4.410  15.892  0.9569  0.9657  0.6084
 6657TIP3   OH241461   4.657   3.536  11.577  0.4960  0.1333 -0.5648
 6657TIP3    H141462   4.668   3.560  11.484  0.7974 -0.7786 -0.7769
 6657TIP3    H241463   4.603   3.457  11.574  2.6939 -1.4644 -0.1503
 6658TIP3   OH241464   5.644   6.655   3.427 -0.1648 -0.7530  0.1414
 6658TIP3    H141465   5.572   6.718   3.429 -0.0880 -0.6708  0.4289
 6658TIP3    H241466   5.632   6.603   3.507 -1.9799 -3.0971 -1.5128
 6659TIP3   OH241467   0.656   1.953   1.505  0.3277 -0.4320 -0.2277
 6659TIP3    H141468   0.668   1.872   1.454  2.1180  0.9141 -2.1033
 6659TIP3    H241469   0.622   2.016   1.441 -2.5609 -0.0069  1.5407
 6660TIP3   OH241470   0.089   5.539   2.838 -0.6037 -0.0802 -0.3851
 6660TIP3    H141471   0.013   5.484   2.818  1.3973 -3.7165  1.1522
 6660TIP3    H241472   0.129   5.555   2.752 -2.0244  0.3352 -1.0161
 6661TIP3   OH241473   3.515   5.201   1.263 -0.2900 -0.4674 -0.4505
 6661TIP3    H141474   3.594   5.250   1.285 -0.6392 -0.9976  2.3493
 6661TIP3    H241475   3.445   5.247   1.310 -1.4572 -0.7490 -1.8471
 6662TIP3   OH241476   3.505   2.229  14.309  0.1385 -0.7096 -0.0345
 6662TIP3    H141477   3.571   2.278  14.259 -2.9139  3.3300 -0.7124
 6662TIP3    H241478   3.529   2.243  14.400  0.9260 -0.4335 -0.2753
 6663TIP3   OH241479   4.289   0.039   1.547 -0.0712 -0.1141  0.1558
 6663TIP3    H141480   4.253   0.066   1.631 -2.4728 -1.2165 -0.4519
 6663TIP3    H241481   4.323   0.121   1.509 -0.6768  0.7363  1.3750
 6664TIP3   OH241482   4.820   4.297   5.703  0.5617 -0.0068 -0.2069
 6664TIP3    H141483   4.851   4.228   5.644 -2.7294 -2.9655  1.1406
 6664TIP3    H241484   4.838   4.264   5.791 -0.5239  1.1404  0.4829
 6665TIP3   OH241485   0.213   2.594  12.011  0.4429  0.0696 -0.4835
 6665TIP3    H141486   0.251   2.635  11.933  2.3880  0.7510  0.7544
 6665TIP3    H241487   0.143   2.653  12.037  1.2875  1.0637 -0.4214
 6666TIP3   OH241488   1.601   2.621   0.508 -0.0359  0.3517 -0.2539
 6666TIP3    H141489   1.520   2.590   0.466 -2.0146  2.5903  1.6221
 6666TIP3    H241490   1.639   2.681   0.444  0.1505 -0.6326 -1.1075
 6667TIP3   OH241491   1.807   2.701  16.699  0.8526 -0.2687  0.0515
 6667TIP3    H141492   1.746   2.753  16.750 -0.3056 -0.4577 -1.0967
 6667TIP3    H241493   1.877   2.678  16.761 -1.0813 -1.5307  1.8958
 6668TIP3   OH241494   6.294   3.745  16.732 -0.6512  0.0951  0.2505
 6668TIP3    H141495   6.363   3.682  16.713  0.6945  1.5809 -0.0256
 6668TIP3    H241496   6.269   3.780  16.646 -1.3100  0.0227  0.4074
 6669TIP3   OH241497   4.864   0.761  12.961  0.1049  0.1811  0.8256
 6669TIP3    H141498   4.866   0.667  12.945 -1.0109  0.4876 -1.4759
 6669TIP3    H241499   4.799   0.771  13.032 -0.6926 -0.7060  0.2497
 6670TIP3   OH241500   0.804   2.491  12.385  0.2832  0.3883 -0.5348
 6670TIP3    H141501   0.826   2.584  12.389  0.5132  0.4716 -2.6509
 6670TIP3    H241502   0.814   2.468  12.292  0.0780 -1.7107 -0.0827
 6671TIP3   OH241503   2.365   2.156   2.788  0.3734 -0.1003  0.1126
 6671TIP3    H141504   2.367   2.206   2.706  1.0481  0.8864  0.6974
 6671TIP3    H241505   2.458   2.140   2.807  0.3229  1.0017  1.4357
 6672TIP3   OH241506   1.588   1.863   2.307 -0.0527  0.5201 -0.1041
 6672TIP3    H141507   1.667   1.905   2.339 -0.1810  0.3975  0.3755
 6672TIP3    H241508   1.590   1.877   2.212 -1.3418  3.8656  0.2055
 6673TIP3   OH241509   5.618   1.330  13.115  0.2906 -0.1138  0.4000
 6673TIP3    H141510   5.637   1.412  13.160  1.8535  0.1390 -0.6280
 6673TIP3    H241511   5.525   1.314  13.131  0.4376  0.7402  2.3781
 6674TIP3   OH241512   6.015   2.071   4.347 -0.4298  0.5519  0.0120
 6674TIP3    H141513   6.044   2.080   4.438 -1.0900  0.7345  0.2060
 6674TIP3    H241514   5.961   2.148   4.331 -0.9182  0.1508 -0.3041
 6675TIP3   OH241515   1.598   1.540   0.050  0.0433 -0.4842 -0.1783
 6675TIP3    H141516   1.543   1.554   0.126 -0.7631  3.5965 -1.3063
 6675TIP3    H241517   1.687   1.555   0.082 -0.0010 -1.4129  0.4360
 6676TIP3   OH241518   5.392   2.829   4.884  0.1045  0.2152  0.3219
 6676TIP3    H141519   5.448   2.797   4.813  0.5523 -1.2226  1.2556
 6676TIP3    H241520   5.303   2.810   4.854  0.2797 -0.2562  0.0791
 6677TIP3   OH241521   2.008   5.286  12.236  0.1741 -0.3819 -0.4172
 6677TIP3    H141522   2.069   5.353  12.267 -1.8699  1.0917  0.6680
 6677TIP3    H241523   2.063   5.209  12.221  2.1260  0.5001  1.5665
 6678TIP3   OH241524   4.521   0.115   5.916 -0.1953  0.4650 -0.1464
 6678TIP3    H141525   4.466   0.161   5.853  0.6369 -0.8063 -1.8609
 6678TIP3    H241526   4.567   0.048   5.865  1.1386 -0.0872  1.6589
 6679TIP3   OH241527   6.250   4.133   0.663 -0.3371 -0.0549 -0.3191
 6679TIP3    H141528   6.201   4.139   0.580 -1.0503 -0.7042  0.0508
 6679TIP3    H241529   6.341   4.130   0.636 -0.4891  1.0892 -1.0275
 6680TIP3   OH241530   3.079   0.814  12.054  0.2468 -0.1987  0.5622
 6680TIP3    H141531   3.111   0.806  12.144  0.4739 -3.4587  0.3268
 6680TIP3    H241532   2.999   0.762  12.053 -0.0753  0.2836 -0.9880
 6681TIP3   OH241533   5.443   2.206   6.112 -0.4335 -0.3643 -0.3932
 6681TIP3    H141534   5.409   2.121   6.140  0.0240 -0.6580 -0.7056
 6681TIP3    H241535   5.419   2.266   6.182 -0.8574 -0.7306 -0.2172
 6682TIP3   OH241536   5.939   4.939  16.053  0.1269  0.6041  0.0200
 6682TIP3    H141537   6.028   4.933  16.018  0.4802 -1.6127  1.1303
 6682TIP3    H241538   5.946   4.907  16.143 -1.8264  0.0752  0.0270
 6683TIP3   OH241539   2.441   6.507  17.042  0.0547 -0.3106 -0.5783
 6683TIP3    H141540   2.353   6.529  17.012 -0.2566  0.2531  0.6522
 6683TIP3    H241541   2.480   6.591  17.065  0.4440 -0.6654  0.0936
 6684TIP3   OH241542   0.033   0.189   5.688 -0.2640 -0.1032 -0.4910
 6684TIP3    H141543  -0.009   0.247   5.751  0.3592 -0.2509  0.0709
 6684TIP3    H241544   0.113   0.235   5.663  0.4615 -0.8994  0.2945
 6685TIP3   OH241545   2.096   4.539   2.740 -0.3252 -0.1906  0.2719
 6685TIP3    H141546   2.155   4.574   2.673  1.0128  0.2561  1.6206
 6685TIP3    H241547   2.101   4.602   2.812 -0.5557 -1.3954  1.3826
 6686TIP3   OH241548   4.292   0.821  13.139 -0.2369 -0.5163  0.3425
 6686TIP3    H141549   4.214   0.853  13.094  0.5068  1.0683  0.1180
 6686TIP3    H241550   4.332   0.761  13.077 -1.7520 -2.1418  0.8431
 6687TIP3   OH241551   6.587   2.098   0.028  0.7929  0.7941  0.5632
 6687TIP3    H141552   6.680   2.118   0.016  0.5493  0.4873 -2.9288
 6687TIP3    H241553   6.570   2.027  -0.034 -2.0036  1.5471  0.3578
 6688TIP3   OH241554   2.933   1.396   3.446 -0.3913  0.1449  0.4486
 6688TIP3    H141555   2.880   1.455   3.393  1.2852  0.7091 -0.6801
 6688TIP3    H241556   2.936   1.315   3.396 -1.7846 -0.5823  1.4738
 6689TIP3   OH241557   2.530   4.026   3.050  0.2965  0.2364  0.5419
 6689TIP3    H141558   2.440   4.029   3.017  0.4386  1.0449  0.1918
 6689TIP3    H241559   2.583   4.023   2.970  0.5994  0.6396  0.7268
 6690TIP3   OH241560   1.933   1.743  12.642  0.1402  0.5536  0.5819
 6690TIP3    H141561   1.885   1.823  12.664 -0.4030  0.4108 -0.0539
 6690TIP3    H241562   2.024   1.763  12.664  0.4474  2.2625 -1.8435
 6691TIP3   OH241563   4.163   6.605  11.161  0.2742 -0.1785  0.0058
 6691TIP3    H141564   4.208   6.520  11.153  0.8255 -0.1141  1.9446
 6691TIP3    H241565   4.161   6.622  11.255 -2.7289  0.4362 -0.0605
 6692TIP3   OH241566   3.880   3.278  12.199  0.2376  0.6625 -0.3183
 6692TIP3    H141567   3.908   3.224  12.272 -2.4578 -1.0807 -0.4288
 6692TIP3    H241568   3.825   3.346  12.238 -0.4295  0.3032 -0.6153
 6693TIP3   OH241569   5.631   3.803  14.594  0.5057 -0.4597  0.1858
 6693TIP3    H141570   5.561   3.739  14.606  1.1612 -1.1673  0.3108
 6693TIP3    H241571   5.633   3.819  14.500  0.1796 -0.4374  0.1817
 6694TIP3   OH241572   1.594   1.654   1.286 -0.1794 -0.2216 -0.2681
 6694TIP3    H141573   1.624   1.583   1.229  0.5463 -1.4888  1.6060
 6694TIP3    H241574   1.641   1.731   1.254  2.3882 -1.4506  0.3240
 6695TIP3   OH241575   6.727   0.706   5.272  0.2011  0.0473 -0.3680
 6695TIP3    H141576   6.732   0.697   5.367 -3.3949 -0.5104 -0.0986
 6695TIP3    H241577   6.698   0.796   5.258  0.3863  0.0231 -0.9630
 6696TIP3   OH241578   1.353   2.921   5.309  0.4533  0.5505  0.1501
 6696TIP3    H141579   1.270   2.968   5.306  1.4465  2.3311 -1.6297
 6696TIP3    H241580   1.335   2.845   5.364 -2.4889  0.5564 -0.6233
 6697TIP3   OH241581   3.483   0.906   3.607 -0.3536  0.0927 -0.2783
 6697TIP3    H141582   3.425   0.939   3.676 -1.6565  0.3519 -1.4608
 6697TIP3    H241583   3.562   0.879   3.654  0.3628  3.7318  0.9441
 6698TIP3   OH241584   0.667   0.026   4.241 -0.2190  0.2768  0.9328
 6698TIP3    H141585   0.611   0.091   4.198 -0.0308  0.7647  1.4223
 6698TIP3    H241586   0.605  -0.034   4.282 -0.4036 -0.1817  0.0206
 6699TIP3   OH241587   3.369   5.849  15.848 -0.1369 -1.0061  0.3231
 6699TIP3    H141588   3.399   5.829  15.937  2.9821  0.5392 -0.2276
 6699TIP3    H241589   3.310   5.923  15.859  2.0259  0.7004  1.0176
 6700TIP3   OH241590   1.337   5.564  14.680  0.3895 -0.0744 -0.2520
 6700TIP3    H141591   1.259   5.553  14.626 -0.5359  0.2328  0.9800
 6700TIP3    H241592   1.392   5.488  14.659  0.0951  0.0710 -1.6465
 6701TIP3   OH241593   4.127   3.968  16.335 -0.2900  0.5671 -0.0665
 6701TIP3    H141594   4.175   4.039  16.377  1.1615 -0.1338 -0.4409
 6701TIP3    H241595   4.115   3.903  16.405 -1.4741  1.0879  0.2371
 6702TIP3   OH241596   6.714   5.756   2.856 -0.1821  0.3509 -0.7648
 6702TIP3    H141597   6.696   5.687   2.792 -0.1232 -0.4771  0.0888
 6702TIP3    H241598   6.781   5.719   2.913  0.6642  1.5465 -0.9478
 6703TIP3   OH241599   6.771   3.632  13.900 -0.7877  0.6246 -0.3987
 6703TIP3    H141600   6.725   3.601  13.823 -1.6032 -1.8093  0.9645
 6703TIP3    H241601   6.705   3.633  13.969  0.6349 -0.6403  1.0623
 6704TIP3   OH241602   1.607   0.479   0.063 -0.1042  0.1991 -0.2657
 6704TIP3    H141603   1.686   0.446   0.106 -0.5016 -0.9557 -0.3856
 6704TIP3    H241604   1.629   0.481  -0.030  0.0540  0.6692 -0.2195
 6705TIP3   OH241605   5.294   0.113   4.017 -0.1043  0.3594  0.0063
 6705TIP3    H141606   5.348   0.192   4.016 -1.3364  1.2571  1.1065
 6705TIP3    H241607   5.215   0.139   3.969 -0.5217 -0.1953  0.3927
 6706TIP3   OH241608   1.873   1.053  12.555 -0.0128  0.2069 -0.2669
 6706TIP3    H141609   1.883   1.130  12.498 -1.0159 -0.9589 -2.1534
 6706TIP3    H241610   1.958   1.010  12.553  0.0375  0.3210 -0.6889
 6707TIP3   OH241611   0.959   6.258   2.963  0.2206 -0.2077 -0.2587
 6707TIP3    H141612   0.948   6.179   2.910  0.7746 -1.5411  1.5192
 6707TIP3    H241613   1.050   6.253   2.994  0.6255  1.7362 -1.0205
 6708TIP3   OH241614   3.093   3.607   1.253  0.2159 -0.6326  0.0891
 6708TIP3    H141615   3.054   3.668   1.315 -1.2931 -0.6847 -0.7344
 6708TIP3    H241616   3.165   3.566   1.300  1.5932  2.0877  0.5248
 6709TIP3   OH241617   0.713   1.297  10.624  0.1557  0.1208 -0.0231
 6709TIP3    H141618   0.627   1.311  10.584 -0.4177 -0.4408  0.9739
 6709TIP3    H241619   0.705   1.335  10.711  0.8018 -0.2610  0.2096
 6710TIP3   OH241620   6.024   5.940   1.856  0.1383 -0.3110 -0.0890
 6710TIP3    H141621   5.975   5.926   1.775  0.2311 -0.9926 -0.0383
 6710TIP3    H241622   5.968   5.995   1.910 -0.1640 -0.3145 -0.4001
 6711TIP3   OH241623   3.495   0.866   2.932 -0.2755 -0.2657 -0.7398
 6711TIP3    H141624   3.554   0.799   2.899 -1.3825 -1.9499  0.5312
 6711TIP3    H241625   3.415   0.819   2.955  0.3241  0.5912  4.2297
 6712TIP3   OH241626   1.100   2.706  11.161 -0.1335 -0.3314  0.1235
 6712TIP3    H141627   1.173   2.656  11.197  1.6734  1.3985 -0.9464
 6712TIP3    H241628   1.116   2.709  11.067 -0.9579  0.9994 -0.0123
 6713TIP3   OH241629   1.075   5.920  11.331 -0.5355 -0.1283 -0.4081
 6713TIP3    H141630   1.152   5.969  11.304 -2.1528  2.4204 -0.7909
 6713TIP3    H241631   1.046   5.874  11.252  1.4539 -2.5220  0.1491
 6714TIP3   OH241632   1.279   1.268   0.103 -0.0398  0.3244 -0.1697
 6714TIP3    H141633   1.313   1.179   0.115  1.2841  0.8080 -0.1435
 6714TIP3    H241634   1.337   1.306   0.037 -0.1201  1.4067  0.3709
 6715TIP3   OH241635   4.171   4.674  16.981  0.3226  0.5033  0.0202
 6715TIP3    H141636   4.174   4.625  16.899 -1.7976  1.0964 -0.4715
 6715TIP3    H241637   4.099   4.634  17.031 -2.3039  3.6885 -0.8943
 6716TIP3   OH241638   5.535   0.929   1.287  0.0773 -0.1439 -0.3893
 6716TIP3    H141639   5.544   0.938   1.382 -1.2502  1.7468 -0.3821
 6716TIP3    H241640   5.578   1.007   1.251 -1.8426  0.6301 -1.1358
 6717TIP3   OH241641   4.868   5.942  13.094 -0.8704  0.3107  0.4161
 6717TIP3    H141642   4.864   5.846  13.090 -1.0646  0.2879  1.1692
 6717TIP3    H241643   4.792   5.968  13.145  1.2454  0.6202  3.6840
 6718TIP3   OH241644   1.506   0.922   4.121  0.3419 -0.1366  0.3124
 6718TIP3    H141645   1.476   0.903   4.210 -0.6132 -1.4117 -0.2616
 6718TIP3    H241646   1.439   0.886   4.064  1.1857  0.2142 -0.9499
 6719TIP3   OH241647   4.496   1.562   1.480 -0.0267 -0.3343  0.2440
 6719TIP3    H141648   4.435   1.514   1.536 -0.3087 -0.0532  0.1842
 6719TIP3    H241649   4.515   1.502   1.408 -0.5614 -0.2746  0.0457
 6720TIP3   OH241650   3.836   1.091   1.811  0.3302  0.2049 -0.0352
 6720TIP3    H141651   3.861   1.051   1.894  0.3069  0.3676  0.0503
 6720TIP3    H241652   3.743   1.111   1.822  0.6577  1.5817  0.4564
 6721TIP3   OH241653   2.808   2.261   0.607  0.0915  0.3869  0.3983
 6721TIP3    H141654   2.805   2.173   0.645 -0.9104  0.3280  0.2323
 6721TIP3    H241655   2.733   2.306   0.646 -0.8638  0.3858 -1.3156
 6722TIP3   OH241656   1.855   0.720   1.541  0.1927  0.2078  0.1974
 6722TIP3    H141657   1.822   0.800   1.583 -0.1822  0.6594 -0.9251
 6722TIP3    H241658   1.785   0.656   1.553 -1.0394  1.0652 -1.8796
 6723TIP3   OH241659   5.932   1.451   5.388 -0.1847 -0.3937 -0.0058
 6723TIP3    H141660   6.017   1.481   5.421 -0.6639 -0.3239  1.1945
 6723TIP3    H241661   5.872   1.462   5.462 -1.7835  1.7227 -1.4931
 6724TIP3   OH241662   2.441   5.923   4.073  0.4410 -0.2357  0.0769
 6724TIP3    H141663   2.384   5.920   3.996 -0.7307 -0.0009  0.9031
 6724TIP3    H241664   2.445   6.016   4.096 -0.3553 -0.4341  1.0914
 6725TIP3   OH241665   5.675   1.846  12.886  0.7838 -0.3519 -0.0832
 6725TIP3    H141666   5.678   1.912  12.816 -0.2045  1.5383  1.5541
 6725TIP3    H241667   5.583   1.824  12.894  1.0597 -1.7725 -0.3670
 6726TIP3   OH241668   1.358   5.800   5.499 -0.5024  0.7640 -0.4531
 6726TIP3    H141669   1.452   5.814   5.508 -0.2059 -0.9328 -0.6471
 6726TIP3    H241670   1.343   5.796   5.404 -0.7183  0.6637 -0.4166
 6727TIP3   OH241671   2.101   4.011  14.625 -0.7805 -0.6877 -0.7931
 6727TIP3    H141672   2.184   4.021  14.579  0.1723  1.5895  1.1842
 6727TIP3    H241673   2.125   3.973  14.709 -0.8630  3.7214  1.5525
 6728TIP3   OH241674   4.582   2.568  12.391 -0.0855 -0.5318  0.8718
 6728TIP3    H141675   4.662   2.614  12.413 -0.2748  0.0372  0.3735
 6728TIP3    H241676   4.608   2.476  12.386  0.9307 -0.1897 -1.0506
 6729TIP3   OH241677   1.202   0.781  10.377 -0.4754 -0.7884 -0.2175
 6729TIP3    H141678   1.155   0.807  10.457 -1.3434 -2.5795 -0.0902
 6729TIP3    H241679   1.283   0.741  10.409  1.0393  1.8827 -0.4237
 6730TIP3   OH241680   0.629   5.022   0.578 -0.6271  0.7370  0.2312
 6730TIP3    H141681   0.600   4.993   0.492  2.4603  0.7823 -0.9421
 6730TIP3    H241682   0.676   5.103   0.562 -0.5576  1.1195  2.0860
 6731TIP3   OH241683   1.495   6.692   6.120  0.6774 -0.2102  0.2402
 6731TIP3    H141684   1.539   6.751   6.059  0.1367  0.6970  0.7074
 6731TIP3    H241685   1.464   6.749   6.190  0.3965 -1.0952  0.8484
 6732TIP3   OH241686   0.007   3.634  13.603 -0.2715 -0.5221 -0.0807
 6732TIP3    H141687  -0.060   3.569  13.624 -0.6782 -0.0344  0.1740
 6732TIP3    H241688  -0.042   3.715  13.590  0.0878 -0.5373 -1.7620
 6733TIP3   OH241689   0.323   5.888   1.869 -0.1752 -0.0580 -0.4954
 6733TIP3    H141690   0.331   5.982   1.852 -0.9439  0.0854 -0.1556
 6733TIP3    H241691   0.411   5.860   1.893  0.2696  0.3637 -1.6002
 6734TIP3   OH241692   0.296   1.939  12.902  0.3966  0.7798  0.0999
 6734TIP3    H141693   0.358   1.914  12.834 -1.8670 -0.9729 -1.4697
 6734TIP3    H241694   0.250   2.015  12.867 -0.8890 -0.2251 -0.5018
 6735TIP3   OH241695   3.381   1.331   2.545 -0.0427  0.0353  0.3547
 6735TIP3    H141696   3.392   1.293   2.632 -0.3002  0.0339  0.3857
 6735TIP3    H241697   3.464   1.313   2.501 -0.3818 -1.1402  0.1571
 6736TIP3   OH241698   5.706   1.236  14.137 -0.1095 -0.0236 -0.4597
 6736TIP3    H141699   5.747   1.283  14.210 -0.7741  0.5613 -0.4559
 6736TIP3    H241700   5.775   1.229  14.071  0.6472 -1.0006  0.4098
 6737TIP3   OH241701   3.894   6.736  12.234 -0.3631  0.5163 -0.0528
 6737TIP3    H141702   3.908   6.768  12.145 -1.2979 -1.5938 -1.0341
 6737TIP3    H241703   3.892   6.641  12.225 -2.5694  0.2845  1.8748
 6738TIP3   OH241704   5.916   4.191  11.038 -0.6060 -0.4562  0.4684
 6738TIP3    H141705   5.955   4.105  11.024  0.1534 -0.3824  1.8878
 6738TIP3    H241706   5.872   4.184  11.123  0.6562  0.9132  1.2983
 6739TIP3   OH241707   3.307   2.775  14.379 -0.1406  0.0335 -0.7340
 6739TIP3    H141708   3.312   2.687  14.343 -0.0850 -0.4445  0.3910
 6739TIP3    H241709   3.399   2.801  14.392 -0.1681 -0.2180  0.0168
 6740TIP3   OH241710   1.782   5.922  14.798  0.2939  0.4076 -0.2334
 6740TIP3    H141711   1.798   5.836  14.759  1.1561 -0.5231  1.9898
 6740TIP3    H241712   1.687   5.931  14.797  0.1245 -1.0103  0.2980
 6741TIP3   OH241713   1.240   5.854   4.827 -0.1361 -0.4163  0.2568
 6741TIP3    H141714   1.310   5.798   4.862 -0.4056  0.0770  1.6283
 6741TIP3    H241715   1.277   5.891   4.747 -0.0219 -2.7184 -0.8423
 6742TIP3   OH241716   5.585   6.273   4.024  0.1228  0.0074  0.3614
 6742TIP3    H141717   5.669   6.314   4.046 -0.1117 -0.1191  1.5899
 6742TIP3    H241718   5.531   6.345   3.993  1.0233 -0.0909 -1.5816
 6743TIP3   OH241719   1.614   3.654   6.521 -0.0002  0.5914 -0.4088
 6743TIP3    H141720   1.679   3.722   6.537 -0.0776  0.6080 -0.1512
 6743TIP3    H241721   1.576   3.676   6.436  0.9289  0.0972 -0.9578
 6744TIP3   OH241722   4.754   1.691  13.807  0.6872 -0.5453  0.0873
 6744TIP3    H141723   4.801   1.715  13.888  2.0857 -1.1215 -0.5105
 6744TIP3    H241724   4.781   1.757  13.744  1.3577 -1.3240 -0.4719
 6745TIP3   OH241725   2.814   0.941  13.099  0.1772 -0.2194  0.1122
 6745TIP3    H141726   2.743   1.005  13.107  1.0561  0.5390  4.6119
 6745TIP3    H241727   2.780   0.862  13.141  0.5374 -1.4444 -1.7617
 6746TIP3   OH241728   2.626   5.821  12.275 -0.2956 -0.2422  0.6184
 6746TIP3    H141729   2.558   5.861  12.220 -0.7327  0.4739  1.6523
 6746TIP3    H241730   2.691   5.890  12.286 -0.5643 -0.1304  1.5855
 6747TIP3   OH241731   3.692   0.150  14.690  0.1265 -0.0894  0.7185
 6747TIP3    H141732   3.637   0.160  14.612  0.5207 -0.1383  0.4341
 6747TIP3    H241733   3.671   0.061  14.722  1.7932 -1.0713 -0.7657
 6748TIP3   OH241734   3.992   4.940   6.857  0.3825 -0.1795  0.1111
 6748TIP3    H141735   4.060   5.004   6.881  0.3595  0.1624 -0.7113
 6748TIP3    H241736   3.912   4.992   6.854  0.3492 -0.2668 -0.4783
 6749TIP3   OH241737   4.427   3.882  10.498 -0.3646  0.9252  0.4226
 6749TIP3    H141738   4.432   3.915  10.408  2.6298 -0.4426 -0.0359
 6749TIP3    H241739   4.496   3.929  10.545  1.2970 -1.6435  0.7523
 6750TIP3   OH241740   5.583   3.242  14.410  0.0093 -0.3605 -0.0629
 6750TIP3    H141741   5.552   3.220  14.323 -1.1371 -0.4071  0.3447
 6750TIP3    H241742   5.576   3.338  14.416  1.6382 -0.1646 -0.5729
 6751TIP3   OH241743   5.164   2.487  16.879  0.5136  0.3622 -0.3702
 6751TIP3    H141744   5.156   2.392  16.893 -4.6093  0.5346 -0.1021
 6751TIP3    H241745   5.209   2.495  16.795  0.6354 -2.3300 -0.6704
 6752TIP3   OH241746   1.670   5.032  16.111  0.5406 -0.1596  0.4270
 6752TIP3    H141747   1.666   4.982  16.192 -0.8598  0.4991  0.7924
 6752TIP3    H241748   1.761   5.061  16.105  0.9935 -1.3897  1.0229
 6753TIP3   OH241749   5.372   0.457  11.846 -0.2213 -0.1775  0.2539
 6753TIP3    H141750   5.290   0.419  11.878  0.3360 -0.0610  1.9353
 6753TIP3    H241751   5.433   0.383  11.843  0.2981  0.1858  1.5142
 6754TIP3   OH241752   4.465   3.959  16.882 -0.4416 -0.0712 -0.4313
 6754TIP3    H141753   4.412   4.031  16.848  0.3704  1.6892  1.7874
 6754TIP3    H241754   4.415   3.927  16.958 -0.0358 -0.8084 -0.4706
 6755TIP3   OH241755   2.791   3.680  12.488 -0.3497  0.3156  0.0497
 6755TIP3    H141756   2.849   3.665  12.562  1.4939  0.9956 -1.1714
 6755TIP3    H241757   2.780   3.775  12.484 -0.2675  0.3053 -0.6416
 6756TIP3   OH241758   2.356   0.906   1.619  0.3241  0.2257 -0.1445
 6756TIP3    H141759   2.355   0.981   1.679  0.2711  0.5232 -0.5127
 6756TIP3    H241760   2.449   0.884   1.610  0.2040 -1.5221  2.1238
 6757TIP3   OH241761   1.634   3.315   5.914  0.2938 -0.3766 -0.0246
 6757TIP3    H141762   1.638   3.228   5.954 -1.2896 -0.4573  0.0064
 6757TIP3    H241763   1.591   3.301   5.830 -0.1403  0.3970  0.0582
 6758TIP3   OH241764   0.500   4.052  12.725  0.3211  0.3625  0.0570
 6758TIP3    H141765   0.543   4.084  12.645 -1.0637 -0.6656 -1.1503
 6758TIP3    H241766   0.433   4.117  12.744  1.4707  1.2788  1.1826
 6759TIP3   OH241767   2.690   2.357  12.746  0.0611 -0.7800  0.1343
 6759TIP3    H141768   2.737   2.282  12.709 -0.0433 -0.9784  0.4054
 6759TIP3    H241769   2.656   2.403  12.669  0.9636 -0.4520 -0.0935
 6760TIP3   OH241770   2.905   0.501   1.097 -0.2803  0.1211 -0.1896
 6760TIP3    H141771   2.842   0.484   1.027  0.9272 -0.5596 -1.1571
 6760TIP3    H241772   2.863   0.465   1.176 -1.5483  0.6644 -0.5877
 6761TIP3   OH241773   5.007   6.276   1.834  0.4955 -0.1686 -0.0658
 6761TIP3    H141774   4.917   6.308   1.833 -0.0212 -1.5585 -0.4404
 6761TIP3    H241775   4.999   6.184   1.858  1.7305 -0.5693 -1.1343
 6762TIP3   OH241776   2.997   3.344   5.589 -0.5026 -0.1385  0.1768
 6762TIP3    H141777   3.061   3.279   5.615  0.3620  0.8272  0.5312
 6762TIP3    H241778   2.932   3.344   5.660 -1.5781 -1.9259 -0.7206
 6763TIP3   OH241779   2.322   3.641  17.017  0.7553 -0.0456 -0.7059
 6763TIP3    H141780   2.317   3.633  17.112 -1.1710  0.9756 -0.6611
 6763TIP3    H241781   2.238   3.605  16.986  0.1166  2.1599 -1.7726
 6764TIP3   OH241782   5.995   2.652   1.029 -0.1989 -0.4544  0.1716
 6764TIP3    H141783   5.943   2.720   0.986 -1.9295 -2.6459 -1.4663
 6764TIP3    H241784   5.961   2.648   1.118 -1.8051 -0.7510 -0.4210
 6765TIP3   OH241785   0.944   1.183  16.333 -0.5576 -0.0032  0.5935
 6765TIP3    H141786   0.903   1.165  16.418  0.3095  0.1080  1.0494
 6765TIP3    H241787   1.038   1.184  16.352 -0.3915  0.7674 -0.2290
 6766TIP3   OH241788   3.236   0.442  14.694 -0.2867  0.1702  0.0373
 6766TIP3    H141789   3.198   0.403  14.615 -0.5839  1.3335 -0.4190
 6766TIP3    H241790   3.293   0.374  14.730 -0.2744 -0.4327 -1.0879
 6767TIP3   OH241791   6.316   2.367  12.132 -0.3890  0.2224 -0.2582
 6767TIP3    H141792   6.343   2.384  12.042 -0.1922  0.2788 -0.1898
 6767TIP3    H241793   6.253   2.436  12.152 -1.3063 -0.4500 -0.7304
 6768TIP3   OH241794   2.365   0.931  16.749  0.7754 -0.4646 -0.1556
 6768TIP3    H141795   2.375   0.907  16.841  1.3129 -1.4006 -0.4519
 6768TIP3    H241796   2.272   0.950  16.740  1.0257  1.7189  1.0608
 6769TIP3   OH241797   2.665   2.210  13.683  0.6722  0.2653 -0.4490
 6769TIP3    H141798   2.671   2.190  13.776  1.4765 -1.0920 -0.7687
 6769TIP3    H241799   2.659   2.125  13.640  1.1767  0.8358 -1.6967
 6770TIP3   OH241800   4.140   2.055  13.634  0.5881 -0.3482  0.7116
 6770TIP3    H141801   4.213   1.994  13.649 -0.1753 -1.2769  0.7667
 6770TIP3    H241802   4.082   2.043  13.710  0.2056  0.1143  0.4967
 6771TIP3   OH241803   1.863   2.950  10.522  0.2940 -0.1051 -0.4299
 6771TIP3    H141804   1.878   2.871  10.575 -1.4758 -0.9497 -1.1094
 6771TIP3    H241805   1.856   3.021  10.587  2.2107 -0.4048  0.1708
 6772TIP3   OH241806   0.326   2.352  12.019  0.2677 -0.0857  0.3188
 6772TIP3    H141807   0.244   2.308  11.998 -0.3162 -0.1409  2.4766
 6772TIP3    H241808   0.301   2.442  12.038  0.5646 -0.2858  1.7614
 6773TIP3   OH241809   4.711   3.958  10.163  0.8514  0.2141 -0.0203
 6773TIP3    H141810   4.717   3.881  10.107  3.1274  1.1660 -1.2369
 6773TIP3    H241811   4.774   3.942  10.233  1.7301  1.1250 -0.5669
 6774TIP3   OH241812   5.498   3.636   3.178  0.0649 -0.1568  0.3141
 6774TIP3    H141813   5.523   3.702   3.242  1.2205 -0.1368 -0.1314
 6774TIP3    H241814   5.408   3.613   3.201 -0.1805  1.1932  0.7926
 6775TIP3   OH241815   3.436   2.864  13.195  0.7535  0.1008  0.3223
 6775TIP3    H141816   3.510   2.868  13.256 -0.3766  0.0275  1.7403
 6775TIP3    H241817   3.359   2.873  13.250 -0.2805  2.8915 -1.3925
 6776TIP3   OH241818   3.133   5.226  12.399 -0.6186  0.0289  0.2578
 6776TIP3    H141819   3.155   5.177  12.478  0.1164  0.5612  0.4023
 6776TIP3    H241820   3.080   5.300  12.430 -0.3909  0.1976  0.2504
 6777TIP3   OH241821   0.629   3.245  13.333  0.5284 -0.1182 -0.3022
 6777TIP3    H141822   0.686   3.203  13.397  3.7750  1.2051 -2.0606
 6777TIP3    H241823   0.612   3.177  13.267  1.1742 -0.1943 -0.3963
 6778TIP3   OH241824   3.566   5.623   1.716  0.1662  0.2546 -0.0916
 6778TIP3    H141825   3.626   5.575   1.774  1.5857  1.6201 -0.3714
 6778TIP3    H241826   3.483   5.626   1.764  0.7738 -0.2771  1.0282
 6779TIP3   OH241827   3.771   6.566  16.078  0.5550 -0.1318 -0.4501
 6779TIP3    H141828   3.824   6.555  16.157 -1.0526  0.6431  0.7879
 6779TIP3    H241829   3.834   6.592  16.010  1.7941  0.5417  0.9095
 6780TIP3   OH241830   6.688   2.117  15.214 -0.1801  0.1320  0.3367
 6780TIP3    H141831   6.771   2.142  15.255 -0.7190  0.7220  1.0941
 6780TIP3    H241832   6.709   2.107  15.122  0.9611 -0.7566  0.6763
 6781TIP3   OH241833   1.065   2.582   4.029 -0.0732 -0.4727 -0.0359
 6781TIP3    H141834   0.970   2.585   4.036 -0.0974  2.0705 -0.4786
 6781TIP3    H241835   1.093   2.526   4.101 -1.7607  1.1035  1.9346
 6782TIP3   OH241836   0.372   1.795   1.697 -0.2763  0.0682 -0.3966
 6782TIP3    H141837   0.448   1.821   1.749  0.1668 -1.8205 -0.0060
 6782TIP3    H241838   0.308   1.865   1.711  1.0730  1.2760 -0.0664
 6783TIP3   OH241839   1.251   3.137   4.176  0.3416  0.2488  0.1172
 6783TIP3    H141840   1.272   3.166   4.087  1.3788 -1.2406 -0.1619
 6783TIP3    H241841   1.251   3.217   4.228  0.5090  1.0450 -1.0662
 6784TIP3   OH241842   0.467   1.912   2.970  0.0279 -0.1603  0.2400
 6784TIP3    H141843   0.449   1.954   2.886  0.2181  0.9987  0.7642
 6784TIP3    H241844   0.399   1.845   2.977 -0.3683  0.1386 -0.5635
 6785TIP3   OH241845   0.452   2.292   4.764  0.2895 -0.3578 -0.1100
 6785TIP3    H141846   0.443   2.223   4.830  0.6234  0.0365  0.3632
 6785TIP3    H241847   0.367   2.335   4.763 -0.0076 -0.9583 -0.6141
 6786TIP3   OH241848   3.088   4.768  12.634  0.4914  0.6193  0.2194
 6786TIP3    H141849   3.124   4.718  12.561 -0.1333  1.0212 -0.3751
 6786TIP3    H241850   2.995   4.778  12.613  0.3781  1.0490  0.8879
 6787TIP3   OH241851   5.193   1.283  15.853 -0.1880  0.4621 -0.2974
 6787TIP3    H141852   5.288   1.287  15.861 -0.3000  0.5040  1.3552
 6787TIP3    H241853   5.171   1.348  15.786  0.8670  1.2307  0.0838
 6788TIP3   OH241854   2.342   2.703  12.739 -0.4784 -0.0515  0.0468
 6788TIP3    H141855   2.404   2.756  12.788 -0.6254  0.1546  0.0132
 6788TIP3    H241856   2.294   2.654  12.805 -0.2663 -0.2239  0.0715
 6789TIP3   OH241857   1.564   6.781   5.728 -0.6558 -0.0495 -0.2161
 6789TIP3    H141858   1.559   6.823   5.642  2.4321 -0.9580 -0.9553
 6789TIP3    H241859   1.603   6.847   5.785 -0.3144 -0.2885 -0.1688
 6790TIP3   OH241860   3.675   1.205   5.171 -0.1218 -0.0712  0.2918
 6790TIP3    H141861   3.757   1.156   5.167 -1.1642 -1.8476 -0.5371
 6790TIP3    H241862   3.656   1.229   5.080 -0.7142 -0.0550  0.4112
 6791TIP3   OH241863   0.368   1.530  15.755 -0.6651 -0.0465  0.2105
 6791TIP3    H141864   0.389   1.479  15.834 -1.0423 -0.0589  0.3062
 6791TIP3    H241865   0.445   1.520  15.699 -0.9256 -1.1183  0.0260
 6792TIP3   OH241866   0.686   6.228   2.779 -0.0204 -0.3422 -0.2824
 6792TIP3    H141867   0.679   6.162   2.710 -0.4655 -2.9772  2.0823
 6792TIP3    H241868   0.780   6.249   2.782  0.0479 -0.4104 -1.4623
 6793TIP3   OH241869   0.069   3.400  11.223 -1.1771  0.2334 -0.0317
 6793TIP3    H141870  -0.009   3.377  11.172  0.2510 -1.0285 -1.7627
 6793TIP3    H241871   0.107   3.474  11.177 -1.2390  0.7439  0.7208
 6794TIP3   OH241872   0.843   3.077   3.340  0.0890  0.3238 -0.5389
 6794TIP3    H141873   0.843   3.164   3.300  0.0306  0.3053 -0.5772
 6794TIP3    H241874   0.872   3.018   3.271 -0.6159  0.2040 -0.7318
 6795TIP3   OH241875   5.275   3.422  14.536  0.3176  0.2264 -0.3590
 6795TIP3    H141876   5.352   3.468  14.570  0.8876 -1.0315  0.0935
 6795TIP3    H241877   5.281   3.434  14.441  2.3334 -1.6672 -0.5558
 6796TIP3   OH241878   1.446   5.890  13.570  0.0885 -0.0029 -0.4904
 6796TIP3    H141879   1.445   5.885  13.666  0.0272 -2.0611 -0.5360
 6796TIP3    H241880   1.535   5.863  13.546 -0.0781 -0.0913 -1.0194
 6797TIP3   OH241881   2.196   4.144   1.756 -0.5833 -1.1835  0.8425
 6797TIP3    H141882   2.285   4.129   1.724 -1.3474 -1.3725 -1.3493
 6797TIP3    H241883   2.156   4.057   1.758 -0.7437 -1.1070  1.8788
 6798TIP3   OH241884   5.972   5.843   4.871  0.6039 -0.1725  0.7245
 6798TIP3    H141885   5.914   5.790   4.817 -0.9071  0.1196  1.9735
 6798TIP3    H241886   5.956   5.813   4.961  0.1376  1.9270  1.4143
 6799TIP3   OH241887   0.637   4.928  16.961  0.3181 -0.0172  0.7193
 6799TIP3    H141888   0.657   4.845  16.918 -0.1128  1.3786 -2.4944
 6799TIP3    H241889   0.548   4.949  16.932  0.8491  2.1040  0.4941
 6800TIP3   OH241890   4.215   0.682  11.665 -0.1572 -0.1977 -0.1420
 6800TIP3    H141891   4.269   0.625  11.720  0.4409  0.7553  0.2676
 6800TIP3    H241892   4.272   0.706  11.592 -0.1850  0.4063  0.0295
 6801TIP3   OH241893   3.415   3.716   2.909  0.0920  0.0396 -1.1393
 6801TIP3    H141894   3.396   3.647   2.845 -2.0230  1.9678 -2.8063
 6801TIP3    H241895   3.344   3.710   2.972 -0.1137  0.6570 -1.3033
 6802TIP3   OH241896   2.318   2.064  15.088  0.1089  0.0693  0.9617
 6802TIP3    H141897   2.397   2.020  15.119  0.3084  0.6402  1.2517
 6802TIP3    H241898   2.299   2.021  15.004  1.8128  1.2145 -0.0619
 6803TIP3   OH241899   5.382   1.457   1.250  0.1717 -0.9017  0.1597
 6803TIP3    H141900   5.465   1.436   1.293  0.8549  3.1578  1.2381
 6803TIP3    H241901   5.400   1.445   1.157  1.9165 -0.4219  0.3989
 6804TIP3   OH241902   3.572   3.755  11.792  0.3169 -0.3330  0.0433
 6804TIP3    H141903   3.518   3.688  11.833 -0.2565 -0.2367 -0.5311
 6804TIP3    H241904   3.510   3.808  11.741  0.9806 -0.3853 -0.8451
 6805TIP3   OH241905   1.072   4.031  12.541 -1.0382  0.2335  0.0107
 6805TIP3    H141906   1.004   4.096  12.523  0.1843  1.3864 -0.6573
 6805TIP3    H241907   1.154   4.078  12.525 -0.0799 -1.1116  0.7981
 6806TIP3   OH241908   2.894   1.088  15.662  0.5457 -0.0817  0.1323
 6806TIP3    H141909   2.974   1.123  15.624  1.4445 -2.1163  0.0005
 6806TIP3    H241910   2.894   0.996  15.636 -2.7776  0.2032 -1.4033
 6807TIP3   OH241911   5.726   4.644   2.583 -0.6604  0.4523 -0.2287
 6807TIP3    H141912   5.815   4.630   2.614 -0.5976 -1.9146 -1.2335
 6807TIP3    H241913   5.732   4.722   2.527  0.9110  0.0537 -0.6717
 6808TIP3   OH241914   4.986   0.892   1.691  0.2263  0.0020 -0.2493
 6808TIP3    H141915   4.909   0.901   1.748  0.3918  1.4007 -0.2215
 6808TIP3    H241916   4.984   0.801   1.663  0.1986 -0.7937  2.1076
 6809TIP3   OH241917   6.058   2.432  16.202 -0.4987 -0.3249 -0.4232
 6809TIP3    H141918   5.971   2.399  16.227 -0.4889  0.1412  0.2555
 6809TIP3    H241919   6.065   2.517  16.245  0.2813 -0.3401 -0.5002
 6810TIP3   OH241920   3.543   2.277  16.538 -0.5592 -0.0325 -0.0788
 6810TIP3    H141921   3.496   2.232  16.608  2.6604 -0.2707  2.1641
 6810TIP3    H241922   3.592   2.208  16.494 -0.5711  0.4817 -0.9242
 6811TIP3   OH241923   2.499   2.719  15.913 -1.0116 -0.6230 -0.2519
 6811TIP3    H141924   2.405   2.700  15.920 -1.1275 -0.2146 -0.6615
 6811TIP3    H241925   2.510   2.801  15.962 -1.3377  0.7398 -2.3424
 6812TIP3   OH241926   4.493   3.205   4.119  0.2821 -0.3329 -0.8254
 6812TIP3    H141927   4.582   3.188   4.088  0.1312 -1.5734 -0.6024
 6812TIP3    H241928   4.468   3.286   4.075  1.2296 -0.3925 -1.5034
 6813TIP3   OH241929   5.242   5.469  11.347  0.0167 -0.4168 -0.5481
 6813TIP3    H141930   5.309   5.513  11.295 -0.0411 -0.3908 -0.5998
 6813TIP3    H241931   5.260   5.376  11.335  1.2461 -0.4273  0.9640
 6814TIP3   OH241932   0.354   6.198  12.615  0.2303  0.6531  0.6686
 6814TIP3    H141933   0.338   6.105  12.597 -1.5229  0.8204  1.2370
 6814TIP3    H241934   0.411   6.226  12.542  0.1155 -0.6526  0.0366
 6815TIP3   OH241935   2.224   3.762   0.938 -0.4456 -0.1852  0.0110
 6815TIP3    H141936   2.171   3.821   0.885  1.7311  2.0249  0.1553
 6815TIP3    H241937   2.310   3.763   0.897  0.4563 -0.8861  1.7847
 6816TIP3   OH241938   0.378   6.666  15.035 -0.2163  1.2134  0.4981
 6816TIP3    H141939   0.391   6.678  14.941 -1.7683  0.2341  0.1277
 6816TIP3    H241940   0.393   6.572  15.049 -0.2292  1.3094  1.1933
 6817TIP3   OH241941   2.519   2.947   4.276  0.4494 -0.4239 -0.2829
 6817TIP3    H141942   2.520   3.037   4.308 -1.4078 -0.4376 -0.1092
 6817TIP3    H241943   2.529   2.955   4.181 -0.5658  0.0340 -0.3625
 6818TIP3   OH241944   4.969   5.803  14.900  0.0532  0.1259 -0.0030
 6818TIP3    H141945   4.912   5.758  14.838  0.0511 -0.0285  0.1105
 6818TIP3    H241946   5.019   5.734  14.942  1.5091  0.3793 -1.2429
 6819TIP3   OH241947   4.240   1.028   3.412  0.4799 -0.3661  0.2185
 6819TIP3    H141948   4.199   1.055   3.494 -1.4490 -0.6820 -0.5750
 6819TIP3    H241949   4.212   0.938   3.400 -0.4556  0.1079 -1.4529
 6820TIP3   OH241950   5.656   6.154   5.681  0.0403 -0.0034 -0.2372
 6820TIP3    H141951   5.725   6.087   5.678 -0.6119 -0.7034  0.0879
 6820TIP3    H241952   5.581   6.112   5.639 -1.3080 -0.6036  2.5713
 6821TIP3   OH241953   2.800   2.964  16.892 -1.0046  0.7907  0.1541
 6821TIP3    H141954   2.851   2.884  16.904  0.3637  1.6203  0.0797
 6821TIP3    H241955   2.739   2.964  16.966  0.1778  0.5427  1.1688
 6822TIP3   OH241956   1.175   5.659  16.537  0.1526 -0.2996 -0.1142
 6822TIP3    H141957   1.140   5.613  16.461  0.6653 -0.1671 -0.4351
 6822TIP3    H241958   1.150   5.750  16.523  0.7869 -0.1730 -0.4413
 6823TIP3   OH241959   5.101   2.550   0.654  0.4104  0.3193 -0.3693
 6823TIP3    H141960   5.155   2.504   0.719  1.4445 -1.2303 -2.2311
 6823TIP3    H241961   5.011   2.532   0.682  0.7910 -1.8967 -0.3312
 6824TIP3   OH241962   1.051   4.308   5.808  0.1764  0.0879  0.0994
 6824TIP3    H141963   0.975   4.354   5.774 -0.3529  0.3366  1.5596
 6824TIP3    H241964   1.024   4.216   5.812 -0.5498  0.3365  1.8183
 6825TIP3   OH241965   6.219   1.869  14.523 -0.5918 -0.1763  0.3156
 6825TIP3    H141966   6.163   1.903  14.593  0.5482  1.4263  0.5025
 6825TIP3    H241967   6.275   1.805  14.567 -1.0293 -0.4405  0.5004
 6826TIP3   OH241968   5.631   1.622  15.164  0.3249  0.0141  0.1541
 6826TIP3    H141969   5.657   1.710  15.138 -0.3361  0.2055  0.1300
 6826TIP3    H241970   5.638   1.622  15.260  2.1207 -0.4906  0.0642
 6827TIP3   OH241971   5.646   1.716  13.727  0.5432 -0.4099  0.9631
 6827TIP3    H141972   5.719   1.722  13.789  1.8313  1.6217 -0.5842
 6827TIP3    H241973   5.585   1.783  13.755  0.9504  0.2546  0.3055
 6828TIP3   OH241974   0.523   0.795  11.493 -0.2304  0.5047  0.3614
 6828TIP3    H141975   0.588   0.809  11.562  0.8044 -1.6964 -0.0781
 6828TIP3    H241976   0.575   0.781  11.413 -1.3699  1.6850 -0.6470
 6829TIP3   OH241977   1.303   1.497  16.119  0.1390  0.0377 -0.4557
 6829TIP3    H141978   1.318   1.572  16.176 -0.0948  1.1063 -1.7392
 6829TIP3    H241979   1.363   1.430  16.150 -0.3754  0.3756  1.3675
 6830TIP3   OH241980   4.376   2.656   2.383 -0.3411 -0.3522 -0.7501
 6830TIP3    H141981   4.380   2.747   2.414 -0.1604 -1.4427  2.9633
 6830TIP3    H241982   4.286   2.646   2.352 -0.1750  1.2264 -1.8829
 6831TIP3   OH241983   6.370   5.740  14.547 -0.1190  0.0342  0.1765
 6831TIP3    H141984   6.340   5.800  14.479  0.2902  1.0585  0.8671
 6831TIP3    H241985   6.290   5.719  14.597 -0.4386 -0.8048 -0.6531
 6832TIP3   OH241986   2.914   1.326   3.042  0.4693 -0.0914  0.2604
 6832TIP3    H141987   2.919   1.244   3.092  1.4837 -1.6662 -2.2162
 6832TIP3    H241988   2.887   1.392   3.106 -0.6182 -2.3784  2.3265
 6833TIP3   OH241989   0.988   5.192   5.848  0.2645  0.0028  0.5839
 6833TIP3    H141990   0.964   5.173   5.939  1.5918 -0.4212  0.8816
 6833TIP3    H241991   1.040   5.116   5.821  1.7364  1.0802  0.2256
 6834TIP3   OH241992   0.783   1.094  15.885  0.0903  0.0094  0.0027
 6834TIP3    H141993   0.813   1.086  15.976 -1.3375  0.5455  0.5499
 6834TIP3    H241994   0.774   1.188  15.871  0.2719 -0.0708 -0.6930
 6835TIP3   OH241995   4.442   0.488   5.086 -0.6403 -0.2292  0.1120
 6835TIP3    H141996   4.411   0.449   5.168 -1.2110 -0.3130 -0.1380
 6835TIP3    H241997   4.482   0.416   5.039 -0.5965 -0.2501  0.1807
 6836TIP3   OH241998   5.159   3.126   1.309  0.0832 -0.6803  0.3406
 6836TIP3    H141999   5.146   3.162   1.221  0.3760 -0.3387  0.4338
 6836TIP3    H242000   5.102   3.049   1.312  0.4940 -1.0252 -0.3402
 6837TIP3   OH242001   1.892   1.379  14.470 -0.4726 -0.8255 -0.5792
 6837TIP3    H142002   1.898   1.449  14.405  1.2029 -1.3514 -1.0381
 6837TIP3    H242003   1.798   1.369  14.485 -0.8126  2.9467  1.1079
 6838TIP3   OH242004   1.441   0.591   0.598 -0.7874 -0.2996  0.1184
 6838TIP3    H142005   1.366   0.597   0.539 -1.4528  0.7090  1.0362
 6838TIP3    H242006   1.446   0.498   0.620 -0.8610 -0.6035 -1.0832
 6839TIP3   OH242007   3.073   2.853  13.604 -0.4780  0.3715 -0.9262
 6839TIP3    H142008   2.998   2.910  13.621 -1.8683 -1.3963 -0.7281
 6839TIP3    H242009   3.114   2.841  13.690  0.8497  2.3142 -1.2230
 6840TIP3   OH242010   5.969   2.407  12.068 -0.1838  0.1890 -0.0412
 6840TIP3    H142011   5.908   2.479  12.052  0.7813  0.7814 -1.1816
 6840TIP3    H242012   5.975   2.362  11.984  0.1339 -0.5154  0.3500
 6841TIP3   OH242013   3.283   6.324  10.728 -0.8453  0.0366 -0.3307
 6841TIP3    H142014   3.313   6.385  10.796 -2.0902 -1.7864  2.0328
 6841TIP3    H242015   3.207   6.367  10.689 -0.2621  1.0240 -0.3986
 6842TIP3   OH242016   3.508   2.205   4.916 -0.1878 -0.5942 -0.1298
 6842TIP3    H142017   3.552   2.123   4.938  0.1279 -0.7984 -1.4458
 6842TIP3    H242018   3.448   2.182   4.845  0.9376  0.5550 -1.5076
 6843TIP3   OH242019   1.377   4.419   0.797 -0.2297  0.2076  0.2924
 6843TIP3    H142020   1.388   4.400   0.704  0.4772 -0.3167  0.4774
 6843TIP3    H242021   1.284   4.442   0.805 -0.4569 -0.3980 -0.4329
 6844TIP3   OH242022   1.093   0.422   6.441 -0.6897 -0.2621 -0.4014
 6844TIP3    H142023   1.081   0.388   6.352 -0.1255 -0.7119 -0.3089
 6844TIP3    H242024   1.017   0.390   6.489  0.1797 -2.0511 -0.1261
 6845TIP3   OH242025   5.614   6.330  11.765  0.1549 -0.4874 -0.0839
 6845TIP3    H142026   5.524   6.362  11.768 -0.0104 -0.8034 -1.1254
 6845TIP3    H242027   5.668   6.408  11.762 -0.0781 -0.2937  0.7200
 6846TIP3   OH242028   4.609   1.078  15.572  0.5024  0.1533  0.3816
 6846TIP3    H142029   4.610   1.130  15.492  1.0279  0.2570  0.4511
 6846TIP3    H242030   4.521   1.040  15.575  0.6121 -0.1760 -0.4409
 6847TIP3   OH242031   2.246   0.818   0.913  0.0593  0.7707  0.2685
 6847TIP3    H142032   2.291   0.797   0.995  1.0994 -0.2002 -0.5076
 6847TIP3    H242033   2.235   0.733   0.870  0.2631  1.3436 -0.9571
 6848TIP3   OH242034   2.239   5.884  15.227 -0.2254 -0.2231 -0.2767
 6848TIP3    H142035   2.216   5.823  15.157 -0.9080  1.3712 -1.4956
 6848TIP3    H242036   2.155   5.905  15.269 -0.0496  0.1459 -0.1059
 6849TIP3   OH242037   5.374   1.309   0.237 -0.6219 -0.4464  0.2033
 6849TIP3    H142038   5.365   1.345   0.325  3.3410  3.8925 -0.8010
 6849TIP3    H242039   5.331   1.373   0.180  0.4849 -0.9361 -1.2491
 6850TIP3   OH242040   3.894   1.567  11.726 -0.3860  0.4827 -0.1285
 6850TIP3    H142041   3.910   1.649  11.773  1.0982  0.2133 -0.1216
 6850TIP3    H242042   3.800   1.569  11.706 -0.6836  1.4685  1.1993
 6851TIP3   OH242043   0.150   6.103   5.448 -0.1561 -0.8778 -0.2129
 6851TIP3    H142044   0.099   6.166   5.396 -0.0642 -0.6521 -0.0312
 6851TIP3    H242045   0.229   6.151   5.472 -0.5411 -0.7250  0.7903
 6852TIP3   OH242046   5.200   5.472   1.381  0.6508  0.1337  0.4443
 6852TIP3    H142047   5.108   5.458   1.405  0.1004  1.2037 -0.9151
 6852TIP3    H242048   5.208   5.567   1.373  2.3247  0.1949  2.1541
 6853TIP3   OH242049   0.557   1.764  15.219 -0.0822 -0.4220 -0.1483
 6853TIP3    H142050   0.624   1.777  15.151 -0.8078  0.0722 -0.7842
 6853TIP3    H242051   0.532   1.672  15.210  0.0563 -0.4431 -0.3359
 6854TIP3   OH242052   4.744   5.326  17.189 -0.2722  0.9644 -0.0163
 6854TIP3    H142053   4.788   5.270  17.253 -1.0584  2.0224  1.4867
 6854TIP3    H242054   4.743   5.273  17.109  0.9153 -0.3107  0.7544
 6855TIP3   OH242055   4.572   5.355   4.068 -0.2424  0.3318 -0.1308
 6855TIP3    H142056   4.564   5.385   4.159 -0.0441  1.0044 -0.3364
 6855TIP3    H242057   4.622   5.423   4.024 -0.8907  0.3268 -0.9017
 6856TIP3   OH242058   4.106   0.002  15.796  0.2650 -0.1642 -0.3242
 6856TIP3    H142059   4.121  -0.055  15.720 -0.1141 -0.6108 -0.0690
 6856TIP3    H242060   4.102   0.090  15.759  3.0088 -0.0124 -0.4755
 6857TIP3   OH242061   1.129   4.311   0.335 -0.3884  0.6920 -0.1610
 6857TIP3    H142062   1.207   4.345   0.292 -0.0038  0.8174  0.6242
 6857TIP3    H242063   1.106   4.233   0.285  0.3574  0.5414 -0.2795
 6858TIP3   OH242064   0.304   2.342  14.383  0.4304 -0.2481 -0.5340
 6858TIP3    H142065   0.347   2.426  14.364  0.3246 -0.4217 -1.6100
 6858TIP3    H242066   0.279   2.348  14.476  0.0514  1.0811 -0.7011
 6859TIP3   OH242067   4.551   6.710   2.387 -0.5909 -0.2462  0.4353
 6859TIP3    H142068   4.640   6.735   2.363 -1.7617  0.9450 -3.4256
 6859TIP3    H242069   4.522   6.778   2.448  0.6127  0.2484  0.4751
 6860TIP3   OH242070   4.596   3.139   0.692 -0.0374  0.3284  0.1489
 6860TIP3    H142071   4.510   3.125   0.733  0.0895 -0.1664  0.2455
 6860TIP3    H242072   4.623   3.226   0.723  0.2772 -0.2430  1.5186
 6861TIP3   OH242073   1.428   5.122   3.953 -0.3247  0.2302 -0.9721
 6861TIP3    H142074   1.490   5.184   3.913 -0.1689  0.5772 -0.1988
 6861TIP3    H242075   1.380   5.086   3.878  0.1381  0.6846 -1.5013
 6862TIP3   OH242076   3.449   2.604  11.963  0.0766  0.8752  0.5074
 6862TIP3    H142077   3.503   2.539  11.917  0.0375 -0.6167  2.4372
 6862TIP3    H242078   3.488   2.688  11.940 -0.6472  0.3764 -3.1016
 6863TIP3   OH242079   2.781   5.725   5.388  0.1588 -0.0451  0.8021
 6863TIP3    H142080   2.797   5.726   5.294 -1.8391 -0.3421  0.3998
 6863TIP3    H242081   2.778   5.818   5.413  0.7548  0.0329  0.5875
 6864TIP3   OH242082   0.050   5.890   1.948 -0.4905  0.5698  0.0098
 6864TIP3    H142083   0.136   5.879   1.907 -0.4907 -0.4705  0.2797
 6864TIP3    H242084   0.041   5.985   1.958 -0.2805  0.8424 -1.9337
 6865TIP3   OH242085   6.552   5.077   1.158  0.1741 -0.3738  0.9749
 6865TIP3    H142086   6.512   5.072   1.245 -1.0426  0.1053  0.4667
 6865TIP3    H242087   6.495   5.024   1.102  0.4298  0.0626  0.2855
 6866TIP3   OH242088   2.879   2.586  16.655 -0.3556  0.1681  0.2390
 6866TIP3    H142089   2.810   2.652  16.668 -0.9846 -0.4374  0.0482
 6866TIP3    H242090   2.861   2.551  16.568 -0.2129 -0.4704  0.4659
 6867TIP3   OH242091   4.118   4.865   4.511 -0.3680 -0.1796  0.1035
 6867TIP3    H142092   4.190   4.917   4.476  0.4312 -2.1720 -1.4041
 6867TIP3    H242093   4.040   4.917   4.493  0.5012  1.1522  0.0163
 6868TIP3   OH242094   3.859   2.701  15.731 -0.3583 -0.4225 -0.1047
 6868TIP3    H142095   3.783   2.670  15.681  0.0760 -0.7121 -0.5868
 6868TIP3    H242096   3.922   2.630  15.726  0.0911 -0.0356 -0.0150
 6869TIP3   OH242097   0.381   6.469   1.868  0.6668  0.2937  0.2890
 6869TIP3    H142098   0.381   6.551   1.819 -0.4868 -0.1974 -0.6011
 6869TIP3    H242099   0.393   6.495   1.959  0.4420  1.4459  0.0093
 6870TIP3   OH242100   3.132   2.393   1.471  0.1356 -0.3333  0.3995
 6870TIP3    H142101   3.193   2.402   1.544 -1.7308  0.3169  2.0032
 6870TIP3    H242102   3.053   2.356   1.511 -0.4793 -1.3235 -1.6059
 6871TIP3   OH242103   1.713   5.529   2.435 -0.5417  0.1437 -0.5145
 6871TIP3    H142104   1.677   5.541   2.347 -1.6093 -0.0707 -0.1226
 6871TIP3    H242105   1.667   5.452   2.470 -1.0585  0.9630  0.6802
 6872TIP3   OH242106   1.251   2.315   0.332  0.2229  0.3184 -0.2957
 6872TIP3    H142107   1.328   2.360   0.297  0.6604 -0.8703 -0.9276
 6872TIP3    H242108   1.252   2.229   0.290  0.1360 -0.7756  1.8076
 6873TIP3   OH242109   5.318   1.219  17.194 -0.2406 -0.3750  0.1214
 6873TIP3    H142110   5.308   1.192  17.285  0.1242  1.2389  0.6717
 6873TIP3    H242111   5.333   1.313  17.198  3.3004 -0.7154 -1.3705
 6874TIP3   OH242112   0.472   3.931   5.822 -0.1700 -0.3879 -0.1852
 6874TIP3    H142113   0.468   3.894   5.734  1.1798  0.3532 -0.5978
 6874TIP3    H242114   0.487   4.025   5.808 -0.9300 -0.0927  0.8353
 6875TIP3   OH242115   4.388   3.545  11.986 -0.2709  0.5145 -0.4181
 6875TIP3    H142116   4.450   3.474  11.967  0.3034  0.8422  0.2050
 6875TIP3    H242117   4.392   3.601  11.908 -1.7212 -0.7923 -1.5187
 6876TIP3   OH242118   1.692   1.624   0.945  0.4486  0.1764 -0.4493
 6876TIP3    H142119   1.735   1.571   1.013 -0.5112 -1.0296 -0.7362
 6876TIP3    H242120   1.617   1.663   0.989 -0.2129 -0.6607 -0.8080
 6877TIP3   OH242121   2.446   3.811   1.198 -0.1470 -0.3294 -0.1427
 6877TIP3    H142122   2.452   3.907   1.195 -0.3789 -0.3316 -1.3644
 6877TIP3    H242123   2.415   3.787   1.111 -2.9801 -1.3511  1.0415
 6878TIP3   OH242124   2.192   3.375   1.631 -0.4190  0.1982 -0.9081
 6878TIP3    H142125   2.202   3.281   1.615 -0.0636  0.1549 -0.4561
 6878TIP3    H242126   2.221   3.387   1.721  0.6500  0.9203 -1.3286
 6879TIP3   OH242127   1.790   2.670  11.895 -0.2477  0.2520 -0.3852
 6879TIP3    H142128   1.811   2.579  11.916  0.1811  0.8157  1.9540
 6879TIP3    H242129   1.835   2.686  11.813  1.4653 -1.0575  0.2308
 6880TIP3   OH242130   4.406   2.274   1.751 -0.6355  0.6023  0.4809
 6880TIP3    H142131   4.389   2.230   1.834  1.9317 -1.4908  0.0511
 6880TIP3    H242132   4.466   2.346   1.773 -0.4582  0.4405  0.5287
 6881TIP3   OH242133   3.714   6.141   5.581  0.0736 -0.3747 -0.0443
 6881TIP3    H142134   3.682   6.122   5.493  0.1275  2.0378 -0.6694
 6881TIP3    H242135   3.779   6.211   5.568 -0.0107  0.1286  1.9132
 6882TIP3   OH242136   0.003   2.874  11.565  0.2452 -0.4334 -0.4077
 6882TIP3    H142137   0.011   2.959  11.609  0.3310 -0.4006 -0.4861
 6882TIP3    H242138  -0.083   2.841  11.591  0.1266 -0.2293 -0.5422
 6883TIP3   OH242139   3.069   4.549  13.965  0.1737  0.4524 -0.3867
 6883TIP3    H142140   3.036   4.499  14.040  1.5058 -0.0486 -0.1032
 6883TIP3    H242141   3.147   4.594  13.998  1.0018 -0.0709 -1.5409
 6884TIP3   OH242142   2.090   6.102   3.542  0.2303  0.0450  0.7628
 6884TIP3    H142143   2.068   6.019   3.583 -2.1021  0.6706  0.9230
 6884TIP3    H242144   2.147   6.079   3.469  0.3401 -1.5760  1.3191
 6885TIP3   OH242145   4.333   3.434   0.918 -0.0406  0.5209  0.3108
 6885TIP3    H142146   4.257   3.487   0.941 -0.6658 -0.7302  1.2238
 6885TIP3    H242147   4.318   3.350   0.962  0.6794 -0.6026 -1.4924
 6886TIP3   OH242148   5.517   4.512   0.069 -0.2666  0.4224 -0.0933
 6886TIP3    H142149   5.532   4.519  -0.025 -0.6841 -1.3542 -0.3269
 6886TIP3    H242150   5.602   4.488   0.105 -0.6432 -1.5717 -0.3993
 6887TIP3   OH242151   2.461   5.180  11.492 -0.0868 -0.0499  0.0993
 6887TIP3    H142152   2.366   5.176  11.482 -0.2609  0.6938  1.2332
 6887TIP3    H242153   2.479   5.130  11.572  0.4509 -0.0419 -0.0128
 6888TIP3   OH242154   2.772   6.428   5.276 -0.4055  0.3307  0.4618
 6888TIP3    H142155   2.807   6.452   5.190  0.5296  1.4583  1.1199
 6888TIP3    H242156   2.677   6.429   5.265 -0.3055  0.9177 -0.4499
 6889TIP3   OH242157   0.234   4.259   6.691 -0.6304 -0.0697  0.4225
 6889TIP3    H142158   0.256   4.352   6.682  0.5144 -0.4168 -0.6024
 6889TIP3    H242159   0.143   4.253   6.661 -0.1435  0.4727 -1.3137
 6890TIP3   OH242160   5.668   1.864  15.713 -0.2969 -0.1666 -0.2929
 6890TIP3    H142161   5.616   1.784  15.704  0.6377 -0.5396 -3.9341
 6890TIP3    H242162   5.719   1.869  15.632  1.6390  2.7952  0.9247
 6891TIP3   OH242163   0.446   1.152   0.536 -0.4924  0.5882 -0.5737
 6891TIP3    H142164   0.513   1.087   0.558 -1.1427 -0.0629 -0.4715
 6891TIP3    H242165   0.478   1.233   0.576 -1.7006 -0.5493  3.1117
 6892TIP3   OH242166   1.458   3.830  15.973 -0.4519 -0.0478 -0.2769
 6892TIP3    H142167   1.428   3.863  15.888  0.9984 -1.2148 -1.2959
 6892TIP3    H242168   1.386   3.774  16.003 -0.9267  0.2736 -0.7914
 6893TIP3   OH242169   6.816   2.638  14.286 -0.3206 -0.3220  0.3490
 6893TIP3    H142170   6.849   2.622  14.374  1.1013 -0.5334 -0.2027
 6893TIP3    H242171   6.890   2.676  14.239 -1.3922  0.8720 -0.4551
 6894TIP3   OH242172   5.544   3.665   1.514 -0.6110 -0.5988  0.2673
 6894TIP3    H142173   5.450   3.650   1.512 -0.9921  1.0431  2.3259
 6894TIP3    H242174   5.558   3.742   1.458 -0.4453 -1.0458 -0.3070
 6895TIP3   OH242175   0.339   5.324   6.377  0.4144  0.1968 -0.4172
 6895TIP3    H142176   0.267   5.354   6.321  1.7842  1.6490 -1.4601
 6895TIP3    H242177   0.313   5.236   6.403 -3.0619  1.5942  1.4983
 6896TIP3   OH242178   1.386   4.270   4.089  0.2778 -0.1235  0.6571
 6896TIP3    H142179   1.349   4.183   4.077 -0.6928  0.5005 -1.2323
 6896TIP3    H242180   1.313   4.323   4.118  0.8198  0.1232  1.6031
 6897TIP3   OH242181   3.318   6.118   5.055  0.3385  0.6317 -0.5534
 6897TIP3    H142182   3.286   6.181   5.119  1.0889  1.0400 -0.5709
 6897TIP3    H242183   3.310   6.033   5.099  0.5795  0.8774 -0.0267
 6898TIP3   OH242184   2.471   5.918   0.516  0.1698 -0.3955 -0.5151
 6898TIP3    H142185   2.517   5.886   0.593 -0.2132  0.7674  0.2341
 6898TIP3    H242186   2.455   6.011   0.535 -1.6262 -0.5309 -1.1491
 6899TIP3   OH242187   2.490   4.025   0.548 -0.1221 -0.1802 -0.0103
 6899TIP3    H142188   2.566   4.083   0.544 -0.0238 -0.2619  0.5303
 6899TIP3    H242189   2.514   3.951   0.492  0.3939 -0.4193  0.5085
 6900TIP3   OH242190   6.703   4.157  13.265 -0.1989  0.4006  0.0905
 6900TIP3    H142191   6.764   4.227  13.288  0.3598 -0.2237  0.5788
 6900TIP3    H242192   6.656   4.189  13.189 -1.9767  2.4946  1.9317
 6901TIP3   OH242193   5.648   3.063   2.845  0.6261 -0.1415  0.1158
 6901TIP3    H142194   5.616   3.076   2.756  0.3116 -1.4764  0.0172
 6901TIP3    H242195   5.673   2.971   2.848  3.1880  0.4875  0.6061
 6902TIP3   OH242196   0.116   1.210  11.386  0.5976  0.3040 -0.1236
 6902TIP3    H142197   0.122   1.246  11.297 -1.5642  0.7187 -0.1487
 6902TIP3    H242198   0.081   1.281  11.439  1.9580  0.0991  1.1369
 6903TIP3   OH242199   5.563   3.256   4.927  0.0675  0.2248  0.4938
 6903TIP3    H142200   5.648   3.220   4.952 -0.9192 -1.4939  1.5183
 6903TIP3    H242201   5.512   3.257   5.007 -0.6318  2.1050  0.0857
 6904TIP3   OH242202   3.602   6.192  15.504  0.2608  0.0743 -0.0607
 6904TIP3    H142203   3.617   6.098  15.508  1.0326  0.1988  0.0599
 6904TIP3    H242204   3.508   6.200  15.487  0.2224 -0.7134 -0.2647
 6905TIP3   OH242205   3.014   4.280   1.579 -0.0813  0.3720 -0.1471
 6905TIP3    H142206   3.033   4.272   1.672 -1.8160 -1.7903  0.1002
 6905TIP3    H242207   2.941   4.342   1.574  0.7878  1.4195 -0.2219
 6906TIP3   OH242208   1.171   6.612   0.558 -0.3235  0.4234  0.2582
 6906TIP3    H142209   1.172   6.539   0.496 -0.9846 -0.3337  1.1148
 6906TIP3    H242210   1.209   6.686   0.509  0.4949 -0.5213 -0.5677
 6907TIP3   OH242211   6.740   2.130  13.975  0.3991  0.4381 -0.2983
 6907TIP3    H142212   6.774   2.185  14.046 -0.6659 -2.4300  2.6688
 6907TIP3    H242213   6.652   2.165  13.959  1.1740  2.0302 -1.3704
 6908TIP3   OH242214   3.384   6.570  15.809 -0.2889  0.3553 -0.0265
 6908TIP3    H142215   3.363   6.661  15.829 -0.2078  0.4706 -0.4598
 6908TIP3    H242216   3.450   6.546  15.874  0.8926  1.1162 -0.9147
 6909TIP3   OH242217   6.486   0.625   0.636  0.4027  0.0878  0.2505
 6909TIP3    H142218   6.442   0.545   0.665  0.7205  0.0654  0.6711
 6909TIP3    H242219   6.575   0.597   0.614  0.6690  0.4190  0.8942
 6910TIP3   OH242220   3.698   1.580   5.862  0.1266  0.2848  0.0040
 6910TIP3    H142221   3.699   1.532   5.944 -0.6305 -0.1122 -0.2147
 6910TIP3    H242222   3.635   1.534   5.807  1.5437 -0.2462 -1.2707
 6911TIP3   OH242223   2.731   2.821   4.840 -0.1208  0.3276  0.1279
 6911TIP3    H142224   2.670   2.830   4.913 -1.1094 -1.7751 -0.3656
 6911TIP3    H242225   2.688   2.760   4.780  1.1368  1.1729 -1.7138
 6912TIP3   OH242226   3.325   1.244   1.769  0.0380  0.0245 -0.2372
 6912TIP3    H142227   3.304   1.252   1.862  0.0930  0.6005 -0.2712
 6912TIP3    H242228   3.307   1.331   1.733  0.6738 -0.0043 -0.6325
 6913TIP3   OH242229   3.252   3.507   4.626 -0.0591 -0.0268 -0.3087
 6913TIP3    H142230   3.313   3.580   4.620  0.5544 -0.4995  0.0249
 6913TIP3    H242231   3.279   3.459   4.704  0.3004 -1.2698 -1.1560
 6914TIP3   OH242232   2.228   0.003  16.839  0.3029 -0.3916 -0.0179
 6914TIP3    H142233   2.303   0.044  16.883  0.5840  0.3368 -1.1377
 6914TIP3    H242234   2.157   0.008  16.903 -0.0555  3.0356 -0.4945
 6915TIP3   OH242235   0.263   6.290   2.352 -0.2861 -0.1492 -0.5431
 6915TIP3    H142236   0.208   6.212   2.354 -0.9415  0.2876 -1.0343
 6915TIP3    H242237   0.208   6.358   2.312  0.5733  0.3229 -0.9630
 6916TIP3   OH242238   0.899   5.363  16.989 -0.0239 -0.4138  0.3446
 6916TIP3    H142239   0.904   5.268  16.978  0.7545 -0.7623  3.0536
 6916TIP3    H242240   0.833   5.376  17.056 -0.8178  1.0755 -0.6838
 6917TIP3   OH242241   6.716   0.585   1.743 -0.7087 -0.2454  0.1541
 6917TIP3    H142242   6.647   0.631   1.791 -1.6822 -2.3239  0.9035
 6917TIP3    H242243   6.668   0.523   1.687  0.5200 -0.9819 -0.1265
 6918TIP3   OH242244   3.923   6.330  14.165  0.1757  0.2394  0.5578
 6918TIP3    H142245   3.926   6.269  14.238 -0.7616 -0.6265 -0.0910
 6918TIP3    H242246   3.853   6.296  14.109 -1.3151  2.6638  0.8247
 6919TIP3   OH242247   0.896   2.382  15.201  0.1930 -0.1125  0.3235
 6919TIP3    H142248   0.963   2.443  15.234  0.9840 -0.5218 -0.4655
 6919TIP3    H242249   0.826   2.438  15.169  0.3372  0.3444  0.7950
 6920TIP3   OH242250   4.202   5.905  14.307 -0.4416  0.6376  0.0882
 6920TIP3    H142251   4.253   5.831  14.273  1.3020  1.9000 -0.1708
 6920TIP3    H242252   4.190   5.884  14.400  0.1250  0.0868  0.0453
 6921TIP3   OH242253   3.099   3.189   2.978  0.0638  0.2530  0.4878
 6921TIP3    H142254   3.034   3.142   2.926  0.4088  0.3388 -0.0225
 6921TIP3    H242255   3.052   3.266   3.011  0.2115  0.9334 -0.8283
 6922TIP3   OH242256   5.653   5.480  12.951  0.1037  0.3068 -0.4735
 6922TIP3    H142257   5.627   5.432  13.029  0.9500 -0.3451 -0.5713
 6922TIP3    H242258   5.747   5.460  12.941 -0.2966 -0.8522 -2.5054
 6923TIP3   OH242259   5.708   0.396   2.311 -0.3011  0.1567  0.1548
 6923TIP3    H142260   5.636   0.414   2.371 -0.9407 -0.3498 -0.4273
 6923TIP3    H242261   5.748   0.481   2.294  0.5478  0.1867  2.0680
 6924TIP3   OH242262   2.824   1.084  13.815 -0.5778  0.1650  0.1087
 6924TIP3    H142263   2.856   1.131  13.893  0.7439 -0.4368 -0.0614
 6924TIP3    H242264   2.728   1.089  13.823 -0.4741  1.4299  0.9705
 6925TIP3   OH242265   2.464   3.046   2.547 -0.3400 -0.2382  0.1754
 6925TIP3    H142266   2.492   3.136   2.534  0.2121 -0.4825 -0.3823
 6925TIP3    H242267   2.515   2.995   2.483 -2.7971 -0.5883 -1.6622
 6926TIP3   OH242268   5.163   0.001  12.983 -0.5006  0.3571  0.2986
 6926TIP3    H142269   5.147  -0.087  13.015 -1.7357  0.0765 -1.0129
 6926TIP3    H242270   5.117   0.006  12.900 -0.4347  2.2360  0.3195
 6927TIP3   OH242271   1.617   6.389  17.167  0.4908 -0.2844  0.3527
 6927TIP3    H142272   1.567   6.378  17.086  1.0872 -0.5875  0.0207
 6927TIP3    H242273   1.557   6.360  17.236  0.7388 -2.2002 -0.1799
 6928TIP3   OH242274   3.172   3.938  11.091 -0.1583 -0.2723 -0.2506
 6928TIP3    H142275   3.267   3.951  11.088 -0.2125  0.7215  1.2843
 6928TIP3    H242276   3.138   3.996  11.023  0.2692  0.2248 -0.0517
 6929TIP3   OH242277   3.426   5.817  12.692 -0.1526 -0.1070 -0.1240
 6929TIP3    H142278   3.383   5.773  12.766 -0.9580  1.0879  0.1583
 6929TIP3    H242279   3.354   5.840  12.634  0.3401  0.1479 -0.6351
 6930TIP3   OH242280   6.499   4.310   5.411  0.4532  0.0285  0.0784
 6930TIP3    H142281   6.522   4.380   5.350  1.5904  0.1545  0.6259
 6930TIP3    H242282   6.513   4.229   5.361  2.1884  0.0974  0.3730
 6931TIP3   OH242283   4.555   6.817  12.495  0.5195 -0.1207 -0.7469
 6931TIP3    H142284   4.549   6.749  12.562 -0.0877  1.3741  0.7659
 6931TIP3    H242285   4.468   6.819  12.455 -0.2592  1.3695  0.8919
 6932TIP3   OH242286   0.940   4.049   5.834  0.4516 -0.1722 -0.4207
 6932TIP3    H142287   0.943   3.994   5.912 -0.8820  0.9736  0.4790
 6932TIP3    H242288   0.891   3.997   5.770 -0.7069 -0.0967  0.3825
 6933TIP3   OH242289   1.285   0.660  13.366  0.1797  0.0907  0.3282
 6933TIP3    H142290   1.209   0.699  13.411 -1.0401 -0.3095 -1.3141
 6933TIP3    H242291   1.312   0.588  13.423  0.1338  0.9889  1.5432
 6934TIP3   OH242292   3.074   5.312  16.342 -0.6583 -0.5728  0.3768
 6934TIP3    H142293   3.083   5.344  16.252 -1.1305 -1.0548  0.1511
 6934TIP3    H242294   3.120   5.376  16.395 -0.3734 -0.2816 -0.2117
 6935TIP3   OH242295   1.794   4.964  12.003 -0.3533  0.3596 -0.1454
 6935TIP3    H142296   1.856   4.964  11.930 -2.3318 -1.2067 -1.9730
 6935TIP3    H242297   1.774   4.872  12.018 -2.7079  0.8112 -0.1282
 6936TIP3   OH242298   0.903   3.660  15.187 -0.5009 -0.3575 -0.3429
 6936TIP3    H142299   0.879   3.679  15.096  2.0507 -1.4196 -1.3287
 6936TIP3    H242300   0.925   3.745  15.224 -2.3558  0.1928 -0.4316
 6937TIP3   OH242301   6.376   0.565  13.660  0.1145  0.1295 -0.0611
 6937TIP3    H142302   6.390   0.644  13.608  1.1534  0.4836  0.7423
 6937TIP3    H242303   6.462   0.525  13.668  0.2975  0.9015  2.6730
 6938TIP3   OH242304   0.448   0.413  16.706  0.0646  0.0975 -0.3048
 6938TIP3    H142305   0.464   0.468  16.783 -0.9125 -0.1675  0.0998
 6938TIP3    H242306   0.500   0.454  16.637 -0.8082  1.6998 -0.0693
 6939TIP3   OH242307   4.181   4.310   4.003 -0.4473 -0.1539  0.0716
 6939TIP3    H142308   4.136   4.240   4.050  0.2028  0.0379  1.0299
 6939TIP3    H242309   4.122   4.334   3.931 -1.4569 -0.5033  0.7613
 6940TIP3   OH242310   5.882   0.893   5.121  0.4775  0.3268  0.3475
 6940TIP3    H142311   5.821   0.843   5.175  2.8812  0.4527  3.4913
 6940TIP3    H242312   5.931   0.826   5.073 -0.4825  0.0819 -0.3045
 6941TIP3   OH242313   5.216   2.399   3.293  0.3092 -0.3669 -0.1729
 6941TIP3    H142314   5.226   2.304   3.284 -0.9843 -0.4450 -1.0150
 6941TIP3    H242315   5.167   2.410   3.374  1.4819 -0.3356  0.5507
 6942TIP3   OH242316   0.448   3.052  14.909  0.0052 -0.5129 -0.3330
 6942TIP3    H142317   0.396   3.048  14.990  0.8795 -1.6777  0.2059
 6942TIP3    H242318   0.384   3.074  14.841 -0.4662  2.2119  0.8818
 6943TIP3   OH242319   2.636   2.492   5.449  0.1590 -0.2499  0.1627
 6943TIP3    H142320   2.708   2.509   5.510 -0.0428  2.7910 -0.3115
 6943TIP3    H242321   2.560   2.475   5.505  0.7071 -1.1119  0.6756
 6944TIP3   OH242322   1.534   1.048  12.235 -0.1329  0.2065 -0.0308
 6944TIP3    H142323   1.523   1.007  12.149  0.6037 -0.9080  0.3856
 6944TIP3    H242324   1.445   1.070  12.263 -0.3148  1.3000 -1.4033
 6945TIP3   OH242325   5.953   5.181  12.700 -0.8436 -0.2088  0.2176
 6945TIP3    H142326   5.921   5.102  12.656 -0.6768 -0.3289  0.3170
 6945TIP3    H242327   5.987   5.151  12.783  2.4157 -0.5428 -1.1134
 6946TIP3   OH242328   1.722   0.191  14.878 -0.3383  0.6899  0.4151
 6946TIP3    H142329   1.683   0.254  14.817 -2.0865  0.9749  1.7577
 6946TIP3    H242330   1.661   0.187  14.951 -0.3895 -2.6922  0.3582
 6947TIP3   OH242331   3.766   3.205   3.104 -0.9955 -0.0734  0.3240
 6947TIP3    H142332   3.847   3.252   3.085 -2.4842  2.5859  0.0521
 6947TIP3    H242333   3.735   3.175   3.018 -1.9546  1.9291 -0.0917
 6948TIP3   OH242334   4.308   1.130   4.017  0.6688  0.4722  0.0280
 6948TIP3    H142335   4.338   1.049   3.976  1.3600  1.1645 -0.8903
 6948TIP3    H242336   4.297   1.191   3.944 -2.2406  0.5151  0.4158
 6949TIP3   OH242337   4.530   4.110  15.982 -0.7069  0.2248  0.2647
 6949TIP3    H142338   4.593   4.038  15.980 -0.3870  0.5158 -1.1034
 6949TIP3    H242339   4.575   4.181  16.027 -1.0327 -0.4147  1.6451
 6950TIP3   OH242340   1.807   5.869   0.938  0.4833  0.1854 -0.2117
 6950TIP3    H142341   1.765   5.783   0.925 -3.5383  2.1779 -2.1619
 6950TIP3    H242342   1.870   5.876   0.867  0.3394 -0.8451 -0.4579
 6951TIP3   OH242343   0.066   2.718  16.916 -0.5090 -0.7077  1.0754
 6951TIP3    H142344   0.070   2.813  16.930  0.0696 -0.7487  1.2332
 6951TIP3    H242345   0.115   2.704  16.835 -1.8228 -0.7265  0.2624
 6952TIP3   OH242346   1.477   3.990   2.306  0.0744  0.3837  0.3096
 6952TIP3    H142347   1.457   3.949   2.222  2.1201  1.2132 -0.6410
 6952TIP3    H242348   1.436   3.932   2.371  1.6623 -2.4315 -1.0203
 6953TIP3   OH242349   1.901   0.071  10.553  0.2936 -0.2459  0.2315
 6953TIP3    H142350   1.900  -0.013  10.597 -0.4020 -1.6260 -2.2383
 6953TIP3    H242351   1.814   0.108  10.570  0.5545 -0.0384  1.2034
 6954TIP3   OH242352   2.319   0.929  13.526 -0.3715 -0.8514 -0.4067
 6954TIP3    H142353   2.331   0.836  13.542 -1.6726 -0.8722  0.6351
 6954TIP3    H242354   2.225   0.939  13.511 -0.5401  0.5244  1.2885
 6955TIP3   OH242355   5.127   2.744  11.962  1.1997  0.0400 -0.2485
 6955TIP3    H142356   5.101   2.684  12.031 -0.4449  0.1515 -0.7304
 6955TIP3    H242357   5.220   2.761  11.979  1.8046 -2.7821 -0.2407
 6956TIP3   OH242358   0.297   6.744   3.931 -0.8759 -0.2383 -0.2648
 6956TIP3    H142359   0.235   6.746   3.859 -1.1796  0.4519  0.0060
 6956TIP3    H242360   0.268   6.813   3.990 -0.1818 -0.2808  0.1442
 6957TIP3   OH242361   3.740   2.155  16.203 -0.5853  0.3177 -0.0950
 6957TIP3    H142362   3.685   2.086  16.240  0.4650  0.4859  1.8691
 6957TIP3    H242363   3.819   2.110  16.173 -0.8581  0.3759 -0.9332
 6958TIP3   OH242364   6.098   0.606   0.886 -0.0800 -0.2851 -0.4457
 6958TIP3    H142365   6.075   0.692   0.920  0.7175 -0.9343  1.9284
 6958TIP3    H242366   6.083   0.546   0.959  1.4318 -1.8567 -1.3440
 6959TIP3   OH242367   6.690   4.567   1.535 -0.7008  0.0169  0.6356
 6959TIP3    H142368   6.679   4.598   1.445 -1.2066  1.5162  1.1812
 6959TIP3    H242369   6.771   4.516   1.533 -1.8235 -1.8383 -1.0963
 6960TIP3   OH242370   5.085   1.185  13.475  0.6077  0.3807 -0.2168
 6960TIP3    H142371   5.123   1.102  13.504 -0.3014 -0.2695 -0.8493
 6960TIP3    H242372   5.141   1.213  13.402  0.9757  0.3842  0.0629
 6961TIP3   OH242373   0.314   6.240  15.969 -0.6534  0.1696  0.2083
 6961TIP3    H142374   0.345   6.296  16.040 -0.9755 -0.5667  0.9464
 6961TIP3    H242375   0.341   6.152  15.995  0.4788  0.0375 -1.2762
 6962TIP3   OH242376   5.446   5.573   3.464  0.1072 -0.2025 -0.1155
 6962TIP3    H142377   5.396   5.598   3.386 -2.0378  1.4702  1.6653
 6962TIP3    H242378   5.497   5.651   3.485 -0.9843  0.1776  1.3071
 6963TIP3   OH242379   4.969   6.610  12.117  0.1443 -0.4171  0.5239
 6963TIP3    H142380   4.897   6.649  12.166 -1.1051 -0.4513 -1.2304
 6963TIP3    H242381   4.928   6.565  12.043  2.0023  0.2771 -1.0250
 6964TIP3   OH242382   0.140   5.445  16.684 -0.1459 -0.0707  0.1320
 6964TIP3    H142383   0.127   5.370  16.742  0.9777  0.2978  0.9027
 6964TIP3    H242384   0.232   5.438  16.657 -0.4772  0.1203 -1.1060
 6965TIP3   OH242385   4.189   5.736   1.440  0.3255 -0.1899 -0.1325
 6965TIP3    H142386   4.193   5.721   1.535  1.0620 -0.7115 -0.2332
 6965TIP3    H242387   4.134   5.813   1.430 -0.5913 -0.7183  0.6622
 6966TIP3   OH242388   4.156   3.736   5.065  0.2573  0.4332 -0.2497
 6966TIP3    H142389   4.179   3.770   4.978 -0.0057  0.7752 -0.1890
 6966TIP3    H242390   4.128   3.813   5.114  0.9769  0.3322  0.3346
 6967TIP3   OH242391   2.312   6.344   3.211  0.2919 -0.0133 -0.3311
 6967TIP3    H142392   2.221   6.344   3.181  0.0006 -0.0992  0.5245
 6967TIP3    H242393   2.364   6.340   3.130 -0.4702 -0.9686 -0.7919
 6968TIP3   OH242394   3.796   6.132   1.774  0.6726 -0.2764  0.0821
 6968TIP3    H142395   3.708   6.132   1.737  0.6096  0.2456  0.2223
 6968TIP3    H242396   3.819   6.225   1.783  1.4168 -0.4080 -0.3662
 6969TIP3   OH242397   5.729   6.102   5.299 -0.1411  0.4684 -0.1839
 6969TIP3    H142398   5.704   6.035   5.236 -0.1706 -0.5772  0.9107
 6969TIP3    H242399   5.718   6.185   5.251 -0.3678 -0.2745 -1.4643
 6970TIP3   OH242400   0.287   5.367   5.731  0.4173  0.3026  0.3343
 6970TIP3    H142401   0.196   5.339   5.730  0.0913  1.2865 -0.8560
 6970TIP3    H242402   0.288   5.445   5.787  0.2317  1.0868 -0.7104
 6971TIP3   OH242403   3.456   0.483   4.276  0.3904 -0.2280 -0.6196
 6971TIP3    H142404   3.435   0.455   4.365 -0.1710 -0.3279 -0.7855
 6971TIP3    H242405   3.491   0.572   4.287 -1.1072  0.3641 -0.4404
 6972TIP3   OH242406   2.012   1.640  13.794  0.4081  0.4916  0.7171
 6972TIP3    H142407   1.961   1.662  13.716  0.8997  1.0896  0.5554
 6972TIP3    H242408   1.984   1.551  13.816  0.1596  0.3645 -0.0580
 6973TIP3   OH242409   3.941   6.102   0.701  0.4169  0.1486  0.4743
 6973TIP3    H142410   3.975   6.073   0.617  2.3701 -1.1808  1.6578
 6973TIP3    H242411   3.959   6.029   0.761 -0.1409  1.3965  2.2368
 6974TIP3   OH242412   1.238   4.682  13.877  0.2603 -0.4580 -0.0080
 6974TIP3    H142413   1.332   4.692  13.860 -0.0196 -0.7053 -1.9429
 6974TIP3    H242414   1.220   4.740  13.951  1.5509  1.2509 -0.9795
 6975TIP3   OH242415   5.313   5.176  16.257 -0.2443  0.6778 -0.2332
 6975TIP3    H142416   5.283   5.245  16.316  1.1239  1.4339 -0.3764
 6975TIP3    H242417   5.370   5.121  16.311 -2.4038 -1.2474  0.2691
 6976TIP3   OH242418   1.785   2.626  14.284  0.4320 -0.5151  0.4679
 6976TIP3    H142419   1.820   2.660  14.202  0.7085  0.7921  1.1132
 6976TIP3    H242420   1.805   2.532  14.281 -0.7148 -0.7576 -1.5348
 6977TIP3   OH242421   5.545   0.457  14.490  0.2894  0.0901  0.1773
 6977TIP3    H142422   5.483   0.444  14.419  0.7959  0.0020 -0.2532
 6977TIP3    H242423   5.593   0.536  14.466  0.5489 -0.0098  0.3613
 6978TIP3   OH242424   5.855   0.878   3.873  0.0427  0.7277 -0.4736
 6978TIP3    H142425   5.916   0.818   3.830 -0.6106  0.5436 -1.1670
 6978TIP3    H242426   5.801   0.914   3.802 -0.4859  1.0867  0.0887
 6979TIP3   OH242427   6.230   1.352   1.764  0.7333 -0.1754  0.3831
 6979TIP3    H142428   6.254   1.399   1.683  1.4526 -1.0733  0.0583
 6979TIP3    H242429   6.155   1.299   1.739  1.4323 -1.0424  0.0776
 6980TIP3   OH242430   3.540   2.432  17.174  0.5805 -0.0085 -0.4754
 6980TIP3    H142431   3.565   2.478  17.254  0.8184 -0.8790 -0.0293
 6980TIP3    H242432   3.593   2.352  17.175 -0.8513 -1.0094 -0.4561
 6981TIP3   OH242433   4.781   2.731  10.978  0.6719 -0.1342  0.2650
 6981TIP3    H142434   4.791   2.805  10.918 -0.1913 -1.0497 -1.0425
 6981TIP3    H242435   4.797   2.654  10.925  0.3506 -0.9577  1.3236
 6982TIP3   OH242436   3.596   3.778   3.664  0.1062  0.0895 -0.1416
 6982TIP3    H142437   3.617   3.837   3.736 -2.3809  1.1959 -0.2369
 6982TIP3    H242438   3.576   3.836   3.591 -1.7072 -0.8207 -0.4305
 6983TIP3   OH242439   1.761   2.545   4.445 -0.9377  1.1176 -0.4129
 6983TIP3    H142440   1.787   2.460   4.410  0.5312  1.2271  0.3552
 6983TIP3    H242441   1.684   2.526   4.499  0.6643 -0.1365  1.5534
 6984TIP3   OH242442   3.680   4.525   4.441  0.2427 -0.5004  0.0710
 6984TIP3    H142443   3.748   4.483   4.389  0.0792 -0.4658 -0.1748
 6984TIP3    H242444   3.651   4.599   4.388 -0.4006 -0.8630 -0.1052
 6985TIP3   OH242445   0.928   0.483   3.182  0.0579 -0.2278 -0.2444
 6985TIP3    H142446   0.923   0.502   3.089  0.5886 -1.4861 -0.5514
 6985TIP3    H242447   0.838   0.467   3.209  0.0579 -1.5454 -0.9373
 6986TIP3   OH242448   1.888   5.047  11.722  0.0044 -0.2843 -0.0578
 6986TIP3    H142449   1.872   4.955  11.700 -0.7739 -0.2015  0.1150
 6986TIP3    H242450   1.819   5.095  11.676  1.2214  0.3613 -1.2453
 6987TIP3   OH242451   0.080   6.799  16.665 -0.1208 -0.5540 -0.0542
 6987TIP3    H142452   0.139   6.855  16.614 -0.6337 -1.3026 -1.5440
 6987TIP3    H242453   0.030   6.860  16.719  0.6750  0.2452 -0.1899
 6988TIP3   OH242454   0.900   4.270  14.303 -0.2691 -0.4545 -0.0677
 6988TIP3    H142455   0.934   4.357  14.324 -0.5668 -0.1171 -0.9405
 6988TIP3    H242456   0.826   4.258  14.362  0.8491 -0.8748  1.3105
 6989TIP3   OH242457   2.332   5.917  10.432 -0.1557 -0.0842 -0.9562
 6989TIP3    H142458   2.326   6.009  10.459  0.2209 -0.4430  0.4275
 6989TIP3    H242459   2.426   5.897  10.435 -0.4162 -1.2738  1.5751
 6990TIP3   OH242460   5.909   4.893   2.761  0.0454  0.2128 -0.3532
 6990TIP3    H142461   5.999   4.923   2.752 -0.4670  2.0602  0.1179
 6990TIP3    H242462   5.881   4.874   2.671  1.2423 -1.6373 -0.3988
 6991TIP3   OH242463   3.942   4.201  16.496  0.5167 -0.4995 -0.2619
 6991TIP3    H142464   3.967   4.293  16.505  1.3278 -0.8215  0.9347
 6991TIP3    H242465   3.927   4.190  16.402  0.3515  0.8627 -0.4166
 6992TIP3   OH242466   6.430   4.617  15.200  0.1827  0.3056  0.5113
 6992TIP3    H142467   6.386   4.576  15.126 -0.6986 -0.4685  1.4294
 6992TIP3    H242468   6.410   4.710  15.191  1.5435  0.4932 -1.1547
 6993TIP3   OH242469   4.895   1.281   1.380 -0.5859 -0.5230 -0.5285
 6993TIP3    H142470   4.801   1.295   1.384 -0.7946 -2.0307  1.7458
 6993TIP3    H242471   4.915   1.226   1.456  2.4414  1.5791  0.4283
 6994TIP3   OH242472   0.109   6.228  12.775  0.2724  0.2293 -0.2258
 6994TIP3    H142473   0.044   6.282  12.730 -0.4499 -0.4644 -0.0305
 6994TIP3    H242474   0.166   6.196  12.705 -0.5590 -0.4515 -0.6127
 6995TIP3   OH242475   4.426   6.475   3.547  0.1199  0.0148 -0.4866
 6995TIP3    H142476   4.492   6.487   3.479 -0.3066  1.5848 -0.6605
 6995TIP3    H242477   4.476   6.451   3.625  0.8208  0.3609 -0.8220
 6996TIP3   OH242478   1.372   4.476  14.343  0.5345  0.5797 -0.5226
 6996TIP3    H142479   1.315   4.400  14.358  0.3806  0.6632 -0.6720
 6996TIP3    H242480   1.445   4.464  14.404  0.5998  0.2215 -0.6698
 6997TIP3   OH242481   4.306   5.148   5.876 -0.1783  0.1529 -0.0804
 6997TIP3    H142482   4.217   5.183   5.868 -0.7172 -1.0382  0.3670
 6997TIP3    H242483   4.296   5.054   5.858  0.7156 -0.2884  1.5389
 6998TIP3   OH242484   0.169   0.270  11.655  0.1926  0.3486  0.5096
 6998TIP3    H142485   0.209   0.187  11.681  1.9503  1.1751  0.6207
 6998TIP3    H242486   0.166   0.265  11.559 -1.8829 -0.7524  0.5764
 6999TIP3   OH242487   3.408   3.150  14.790  0.5365  0.3507 -0.3611
 6999TIP3    H142488   3.413   3.080  14.855 -0.5594 -1.5854 -2.2071
 6999TIP3    H242489   3.483   3.206  14.808  0.9571 -0.7907  1.7541
 7000TIP3   OH242490   2.088   3.946  13.972  0.3220 -0.2711  0.3627
 7000TIP3    H142491   2.000   3.919  13.946  0.4596 -0.5704  0.1925
 7000TIP3    H242492   2.076   4.030  14.016  0.3779  2.0498 -3.5919
 7001TIP3   OH242493   5.736   5.660   0.556 -0.0749  0.2906 -0.5870
 7001TIP3    H142494   5.686   5.651   0.637 -1.0560 -2.8575 -1.4118
 7001TIP3    H242495   5.681   5.715   0.500 -1.2187 -0.6447 -0.4151
 7002TIP3   OH242496   3.861   6.640   2.716 -0.2030  0.4165  0.4040
 7002TIP3    H142497   3.950   6.607   2.707 -0.1578  0.3715  0.9910
 7002TIP3    H242498   3.809   6.587   2.656  0.3279  1.1303 -0.7317
 7003TIP3   OH242499   2.578   2.444  16.002 -0.1897 -0.2018  0.2085
 7003TIP3    H142500   2.587   2.516  15.940  2.6991  0.7265  1.5526
 7003TIP3    H242501   2.631   2.373  15.966 -1.4732 -1.0293 -0.1411
 7004TIP3   OH242502   0.883   1.686  11.319  0.4123 -0.0933 -0.3907
 7004TIP3    H142503   0.853   1.660  11.406 -0.5453  0.0340 -0.6744
 7004TIP3    H242504   0.972   1.720  11.334  0.5519 -0.7639  0.4165
 7005TIP3   OH242505   5.436   2.484   1.002  0.2823 -0.2456  0.2040
 7005TIP3    H142506   5.524   2.461   1.032 -0.3712 -0.9637  1.6209
 7005TIP3    H242507   5.391   2.516   1.080  0.2827  3.4883 -1.0851
 7006TIP3   OH242508   1.218   2.600   2.768  0.0344  0.3493  0.0415
 7006TIP3    H142509   1.169   2.624   2.847  1.0095 -1.8290  1.4093
 7006TIP3    H242510   1.306   2.633   2.784 -0.2264  1.7391 -1.1395
 7007TIP3   OH242511   5.186   4.558   2.055 -0.4315 -0.0094 -0.2123
 7007TIP3    H142512   5.181   4.473   2.012 -0.4380 -0.3357  0.4249
 7007TIP3    H242513   5.275   4.590   2.035 -0.6204  0.0881 -0.9098
 7008TIP3   OH242514   6.420   1.537  13.077  0.1100  0.1321  0.0110
 7008TIP3    H142515   6.482   1.605  13.104  0.8952 -0.4545 -0.2796
 7008TIP3    H242516   6.388   1.499  13.159 -0.4266  0.9209  0.1787
 7009TIP3   OH242517   4.714   1.124  11.278 -0.2385  0.1835  0.2171
 7009TIP3    H142518   4.805   1.094  11.273  0.6504  2.4751  0.9285
 7009TIP3    H242519   4.693   1.150  11.188  0.2172  0.6342  0.2301
 7010TIP3   OH242520   1.313   1.260  16.887 -0.1183 -0.1019 -0.3800
 7010TIP3    H142521   1.229   1.304  16.876  0.4396  1.4294  0.8742
 7010TIP3    H242522   1.377   1.324  16.855  0.7877  0.4955  2.3291
 7011TIP3   OH242523   0.283   2.282   0.993 -0.2440  0.2324 -0.0998
 7011TIP3    H142524   0.282   2.364   1.041 -2.1246  0.2199 -0.0737
 7011TIP3    H242525   0.221   2.225   1.038 -0.5879 -0.4601 -1.3831
 7012TIP3   OH242526   3.153   0.516   5.503  0.4562 -0.1067 -0.1137
 7012TIP3    H142527   3.067   0.560   5.505 -0.5909 -2.0030  2.4524
 7012TIP3    H242528   3.195   0.542   5.585  2.9203  1.6488 -1.7983
 7013TIP3   OH242529   3.810   6.518   6.413 -0.0733 -0.1631  0.4512
 7013TIP3    H142530   3.824   6.450   6.478  0.1208 -0.3922  0.1714
 7013TIP3    H242531   3.781   6.594   6.464 -2.3551 -1.0525  0.5666
 7014TIP3   OH242532   3.843   6.092   2.473  0.3013 -0.3397  0.5245
 7014TIP3    H142533   3.845   6.068   2.381 -0.9268 -1.7343  0.8176
 7014TIP3    H242534   3.753   6.123   2.488  1.1680  2.3700  0.7220
 7015TIP3   OH242535   0.864   6.346  14.224 -0.0217  0.1594  0.5828
 7015TIP3    H142536   0.781   6.302  14.205  0.1945 -0.0427  0.1168
 7015TIP3    H242537   0.911   6.284  14.279 -0.2068  0.3066  0.9138
 7016TIP3   OH242538   5.212   2.626  14.291 -0.1846 -0.4735 -0.0241
 7016TIP3    H142539   5.127   2.640  14.248  0.2825 -1.6714 -1.4045
 7016TIP3    H242540   5.198   2.550  14.348  0.3113 -1.6115 -1.3713
 7017TIP3   OH242541   6.742   0.306  15.694  0.2551 -0.1341  0.2839
 7017TIP3    H142542   6.791   0.337  15.617  0.6117 -1.6411 -0.1308
 7017TIP3    H242543   6.673   0.370  15.705  0.4850  0.3812 -1.0165
 7018TIP3   OH242544   4.465   4.821   4.289 -0.6263  0.2556  0.3218
 7018TIP3    H142545   4.526   4.894   4.285 -0.3304 -0.0070  0.0434
 7018TIP3    H242546   4.469   4.791   4.380 -0.5474  0.4129  0.3704
 7019TIP3   OH242547   5.894   0.190  11.787 -0.2559  0.4421 -0.0030
 7019TIP3    H142548   5.918   0.237  11.706  0.5437  3.6497  1.9041
 7019TIP3    H242549   5.809   0.227  11.811 -1.1803 -1.5381 -0.0313
 7020TIP3   OH242550   5.163   3.067  16.183  0.2090  0.8834  0.0553
 7020TIP3    H142551   5.097   3.060  16.252 -0.0476 -2.3460 -0.3900
 7020TIP3    H242552   5.118   3.043  16.103  1.4967  0.4438 -0.5708
 7021TIP3   OH242553   5.029   4.055   0.122  0.6142  0.4110 -0.1106
 7021TIP3    H142554   5.020   4.089   0.212 -0.4445 -1.2422  0.4664
 7021TIP3    H242555   4.947   4.079   0.080  0.2145 -0.6280  0.0439
 7022TIP3   OH242556   0.571   3.946  13.969  0.2046 -0.1723  0.1747
 7022TIP3    H142557   0.602   3.883  13.904 -0.2906 -0.6423  0.3889
 7022TIP3    H242558   0.562   4.028  13.921 -3.2993 -1.1852 -1.2354
 7023TIP3   OH242559   6.818   0.305  17.051  0.1264  0.1474 -0.1172
 7023TIP3    H142560   6.750   0.370  17.035 -2.2681 -1.9546  0.8817
 7023TIP3    H242561   6.807   0.240  16.981  0.0434 -1.0251  0.9544
 7024TIP3   OH242562   3.354   1.906  12.146 -0.2043  0.3406 -0.1841
 7024TIP3    H142563   3.437   1.945  12.173 -0.3079  0.2955  0.2063
 7024TIP3    H242564   3.288   1.966  12.181 -0.4341 -1.0255  1.8847
 7025TIP3   OH242565   6.155   1.130  16.246 -0.1460  0.3133  0.5378
 7025TIP3    H142566   6.076   1.077  16.232 -0.8357  1.1759  1.0337
 7025TIP3    H242567   6.124   1.220  16.239  0.3673  0.7207  2.7902
 7026TIP3   OH242568   5.619   4.285  14.995 -0.1306 -0.6109  0.2777
 7026TIP3    H142569   5.715   4.293  14.997 -0.1963  0.2836  2.1219
 7026TIP3    H242570   5.589   4.365  14.952 -0.1305  0.9946  3.0626
 7027TIP3   OH242571   6.790   4.897   6.820 -0.0598  0.3776 -0.4109
 7027TIP3    H142572   6.739   4.832   6.771 -0.9134  1.5188 -1.0664
 7027TIP3    H242573   6.850   4.934   6.756  1.1096 -0.4145  0.1848
 7028TIP3   OH242574   0.895   1.142  14.006 -0.2424 -0.2974  0.3113
 7028TIP3    H142575   0.945   1.192  13.942 -0.6902  0.4068  0.4992
 7028TIP3    H242576   0.845   1.079  13.953  2.1697 -2.2885  0.2290
 7029TIP3   OH242577   6.152   5.552   0.126  0.2979 -0.3958  0.5838
 7029TIP3    H142578   6.189   5.613   0.061 -0.9522  1.0710  1.1643
 7029TIP3    H242579   6.129   5.608   0.200 -0.7755 -1.6195  1.2027
 7030TIP3   OH242580   0.692   3.275  10.585 -1.0177 -0.3851 -0.0445
 7030TIP3    H142581   0.776   3.293  10.626 -0.8167  0.3983 -0.7803
 7030TIP3    H242582   0.637   3.350  10.609 -1.8108 -1.2963  1.1686
 7031TIP3   OH242583   3.567   2.452   4.679  0.3924 -0.2628  0.2594
 7031TIP3    H142584   3.592   2.535   4.720  0.6217 -0.2703  0.1377
 7031TIP3    H242585   3.642   2.395   4.694 -0.5921 -1.1373  2.2256
 7032TIP3   OH242586   6.381   5.117  16.014  0.0643  0.1504 -0.2809
 7032TIP3    H142587   6.366   5.188  15.952 -1.5051  1.0754  1.0632
 7032TIP3    H242588   6.438   5.155  16.081  1.7774 -0.8492 -1.1136
 7033TIP3   OH242589   1.815   3.379  15.204 -0.5389 -0.9073  0.1649
 7033TIP3    H142590   1.814   3.286  15.180 -0.5406 -1.1679  1.1299
 7033TIP3    H242591   1.797   3.425  15.122  2.4302 -1.5807 -0.9863
 7034TIP3   OH242592   4.006   0.889   6.553  0.4848 -0.1007  0.2071
 7034TIP3    H142593   4.088   0.871   6.505 -0.4782 -1.0117 -1.1645
 7034TIP3    H242594   3.965   0.804   6.564 -0.1143  0.3094  1.2134
 7035TIP3   OH242595   5.805   4.243   2.351  0.0350  0.0909  0.6864
 7035TIP3    H142596   5.900   4.244   2.364 -0.1093  3.0544  2.2187
 7035TIP3    H242597   5.781   4.334   2.337 -2.6044 -0.6002  0.1480
 7036TIP3   OH242598   2.589   4.105   5.999  0.0431  0.0971 -0.0954
 7036TIP3    H142599   2.512   4.054   6.024 -1.4116  1.2993 -1.8529
 7036TIP3    H242600   2.555   4.194   5.983  2.2398  1.3123  1.4902
 7037TIP3   OH242601   0.916   4.563  12.538 -0.3741  0.3770 -0.1792
 7037TIP3    H142602   0.981   4.586  12.471  1.3510  0.7604  1.5468
 7037TIP3    H242603   0.853   4.636  12.535  0.5085  1.1605 -0.3640
 7038TIP3   OH242604   6.672   4.134   4.533 -0.2815  0.2690  0.5801
 7038TIP3    H142605   6.751   4.083   4.551 -0.1408  0.3972  0.3310
 7038TIP3    H242606   6.601   4.082   4.571 -0.1009  0.0559  0.6298
 7039TIP3   OH242607   5.721   2.518   2.824  0.1238 -0.1377 -0.2707
 7039TIP3    H142608   5.704   2.495   2.733 -1.2685 -2.1089  0.4125
 7039TIP3    H242609   5.756   2.438   2.863  0.1983  0.5141  1.0646
 7040TIP3   OH242610   0.939   4.362   5.056 -0.5976 -0.4297  1.0077
 7040TIP3    H142611   0.862   4.330   5.102 -1.7912  1.0920  0.1643
 7040TIP3    H242612   0.967   4.288   5.002 -1.4419 -1.0157  1.3525
 7041TIP3   OH242613   2.607   1.086   4.339 -0.2735  0.0716 -0.4392
 7041TIP3    H142614   2.580   1.061   4.427 -0.8571 -1.9814 -1.1241
 7041TIP3    H242615   2.568   1.018   4.283 -0.6719  1.7970 -2.3718
 7042TIP3   OH242616   2.860   5.150   4.641  0.6918 -0.3721 -0.1202
 7042TIP3    H142617   2.816   5.152   4.726  1.8462  1.7759  0.4958
 7042TIP3    H242618   2.789   5.158   4.577 -0.2702 -2.8617  0.5228
 7043TIP3   OH242619   6.732   0.135   5.160 -0.2516  0.4827  0.3940
 7043TIP3    H142620   6.689   0.220   5.145 -0.2441  0.3550 -0.3788
 7043TIP3    H242621   6.753   0.103   5.072  1.6840  0.6702  0.7426
 7044TIP3   OH242622   4.463   5.890   3.677 -0.8060 -0.1814 -0.3613
 7044TIP3    H142623   4.404   5.853   3.742  0.8352 -0.0142  1.3212
 7044TIP3    H242624   4.438   5.982   3.671 -0.5657 -0.0521  0.5413
 7045TIP3   OH242625   4.252   3.384   2.056  0.0432 -0.0577 -0.2739
 7045TIP3    H142626   4.163   3.369   2.024  0.1573  0.1852 -0.7169
 7045TIP3    H242627   4.271   3.475   2.031 -0.8339  1.0828  2.8212
 7046TIP3   OH242628   3.742   2.994   6.016 -0.0598  0.1121  0.3936
 7046TIP3    H142629   3.686   3.071   6.025  0.4539  0.3637  1.6174
 7046TIP3    H242630   3.793   2.992   6.097  0.7702 -0.8523 -0.1353
 7047TIP3   OH242631   4.503   4.403  15.377 -0.0913  0.3676  0.0608
 7047TIP3    H142632   4.444   4.330  15.359  0.8172 -0.3967  0.1164
 7047TIP3    H242633   4.462   4.478  15.333 -1.3865 -0.0117  0.5715
 7048TIP3   OH242634   4.038   1.134  12.518  0.1549 -0.1689 -0.4662
 7048TIP3    H142635   4.058   1.063  12.579  0.0862 -0.2607 -0.5487
 7048TIP3    H242636   4.043   1.214  12.571  0.7202 -0.1922 -0.4854
 7049TIP3   OH242637   6.504   1.435  12.512 -0.4726 -0.4940 -0.3366
 7049TIP3    H142638   6.445   1.483  12.571  0.2084 -1.0759  0.8739
 7049TIP3    H242639   6.521   1.495  12.440 -3.0002 -0.5089 -1.0449
 7050TIP3   OH242640   0.293   5.352  15.505 -0.2176  0.4585 -0.1471
 7050TIP3    H142641   0.377   5.385  15.475  0.2481  0.0718  0.6684
 7050TIP3    H242642   0.297   5.257  15.490 -1.1911  0.6209 -1.6607
 7051TIP3   OH242643   2.260   0.024   2.950 -0.6415 -0.5070  0.0518
 7051TIP3    H142644   2.328   0.017   3.017 -0.1371 -1.6867 -0.5587
 7051TIP3    H242645   2.265  -0.059   2.902 -1.2151  0.1685 -1.2263
 7052TIP3   OH242646   3.921   1.808  14.986  0.0257  0.1964 -0.3718
 7052TIP3    H142647   3.877   1.802  15.071 -1.2174  1.2884 -0.9090
 7052TIP3    H242648   3.854   1.783  14.922  0.9053 -0.4861 -1.0638
 7053TIP3   OH242649   5.151   0.431   3.184 -0.1233  0.5529 -0.4133
 7053TIP3    H142650   5.119   0.481   3.259 -1.6111  1.7929 -1.8136
 7053TIP3    H242651   5.199   0.494   3.131 -1.1566  0.3090 -1.6948
 7054TIP3   OH242652   1.348   1.199   5.424 -0.0713  0.5799 -0.4728
 7054TIP3    H142653   1.350   1.225   5.516  0.3067 -0.9032 -0.0391
 7054TIP3    H242654   1.324   1.279   5.377  0.1678  1.4662  0.8665
 7055TIP3   OH242655   0.298   0.831  15.035  0.6848 -0.6464 -0.1469
 7055TIP3    H142656   0.281   0.737  15.032  1.0395 -0.6985 -0.5467
 7055TIP3    H242657   0.257   0.866  14.956 -0.6267 -0.2613  0.6708
 7056TIP3   OH242658   6.584   2.749   5.263  0.5715 -0.1547  0.2130
 7056TIP3    H142659   6.570   2.655   5.254  0.8846 -0.1367 -0.5184
 7056TIP3    H242660   6.636   2.758   5.343 -0.4894 -0.4976  0.9586
 7057TIP3   OH242661   0.945   1.655  14.818 -0.3653  0.3766 -0.0846
 7057TIP3    H142662   0.886   1.669  14.893  0.0142  0.0580  0.2798
 7057TIP3    H242663   0.886   1.644  14.743 -0.7203  2.4400 -0.1556
 7058TIP3   OH242664   0.766   1.201  13.423 -0.0412 -0.0693 -0.1862
 7058TIP3    H142665   0.754   1.225  13.515  2.4919  0.3180  0.1160
 7058TIP3    H242666   0.844   1.249  13.396 -0.9937  0.1731 -2.6964
 7059TIP3   OH242667   4.721   0.486  14.659 -0.0141 -0.3667  0.1725
 7059TIP3    H142668   4.676   0.476  14.576 -1.8742  0.0279  1.0766
 7059TIP3    H242669   4.760   0.574  14.656 -1.4760  0.3095  0.3279
 7060TIP3   OH242670   1.501   5.631  12.542  0.0538 -0.2925  0.1386
 7060TIP3    H142671   1.469   5.716  12.569 -1.0507 -0.7915  0.4600
 7060TIP3    H242672   1.475   5.623  12.450  0.5039 -0.1242 -0.0044
 7061TIP3   OH242673   5.563   1.522   2.776  0.0945 -0.5069 -0.3716
 7061TIP3    H142674   5.600   1.538   2.863  1.4715 -2.2291 -0.5713
 7061TIP3    H242675   5.470   1.510   2.792  0.1565  0.2103  0.7097
 7062TIP3   OH242676   3.705   3.689   0.544  0.0059 -0.1263  0.0904
 7062TIP3    H142677   3.691   3.615   0.485 -1.4270 -1.2450  1.7464
 7062TIP3    H242678   3.629   3.688   0.602 -0.5314  3.2267 -0.3663
 7063TIP3   OH242679   2.422   0.847   1.902  0.2236  0.2903  0.0486
 7063TIP3    H142680   2.438   0.753   1.888 -1.2644 -0.5551  3.1805
 7063TIP3    H242681   2.510   0.885   1.908  0.8672 -1.0858 -0.1363
 7064TIP3   OH242682   4.324   4.079  16.508  0.0297 -0.2957  0.2114
 7064TIP3    H142683   4.281   4.040  16.583  0.5115  0.5120  0.9251
 7064TIP3    H242684   4.417   4.063  16.522  0.2007  0.7343  0.3069
 7065TIP3   OH242685   1.551   5.160  13.140 -0.2702 -0.1109 -0.2231
 7065TIP3    H142686   1.638   5.122  13.147 -1.0646 -1.7303  2.3912
 7065TIP3    H242687   1.564   5.253  13.156  1.0705 -0.1468 -0.9821
 7066TIP3   OH242688   4.982   3.030  11.665 -0.2062  0.2143 -0.1499
 7066TIP3    H142689   4.904   2.980  11.691 -0.0163 -0.3989 -0.7419
 7066TIP3    H242690   5.018   3.061  11.748 -1.0791  0.5156  0.1324
 7067TIP3   OH242691   3.116   1.343  11.104 -0.6968 -0.2367  0.1193
 7067TIP3    H142692   3.168   1.389  11.038 -0.6451 -1.1837 -0.5265
 7067TIP3    H242693   3.165   1.263  11.121 -0.4328  0.2318  1.7282
 7068TIP3   OH242694   6.652   1.304  16.910 -0.0179 -0.6839  0.1453
 7068TIP3    H142695   6.582   1.368  16.917 -0.6570 -1.1989 -1.2217
 7068TIP3    H242696   6.724   1.341  16.962 -1.7342 -0.8438  2.8482
 7069TIP3   OH242697   3.429   3.756   0.105  0.2212 -0.3456 -0.0025
 7069TIP3    H142698   3.455   3.681   0.158 -0.7338 -0.4495  0.3404
 7069TIP3    H242699   3.494   3.760   0.035  1.1477 -0.5759  0.8253
 7070TIP3   OH242700   3.399   1.029   2.580 -0.4160 -0.1780  0.5538
 7070TIP3    H142701   3.396   0.998   2.670 -0.9273  0.7941  0.8801
 7070TIP3    H242702   3.348   0.965   2.531  0.8999 -1.4175  0.7101
 7071TIP3   OH242703   5.716   0.887  14.349  0.2979 -0.4981  0.0772
 7071TIP3    H142704   5.663   0.904  14.272  0.1929 -0.3363  0.1851
 7071TIP3    H242705   5.699   0.961  14.407  1.7600  0.3242 -0.4794
 7072TIP3   OH242706   0.722   4.696  16.868  0.0370 -0.3359 -0.0414
 7072TIP3    H142707   0.749   4.605  16.865  0.5921 -0.1688 -0.2270
 7072TIP3    H242708   0.786   4.742  16.813  1.2082  0.5174  1.9316
 7073TIP3   OH242709   3.791   0.116   0.400 -0.1831  0.1915 -0.6821
 7073TIP3    H142710   3.844   0.176   0.348  2.2027 -0.2799  1.0609
 7073TIP3    H242711   3.835   0.112   0.485 -0.9038 -3.1225 -0.3292
 7074TIP3   OH242712   0.611   2.012  12.355 -0.4267  0.7192 -0.2322
 7074TIP3    H142713   0.684   2.048  12.305  1.2687 -1.0485  0.8388
 7074TIP3    H242714   0.570   1.949  12.295  0.5967 -0.2170  0.0307
 7075TIP3   OH242715   3.781   3.294   5.208  0.5402 -0.4624 -0.2537
 7075TIP3    H142716   3.815   3.357   5.272  0.8694 -0.3757 -0.5145
 7075TIP3    H242717   3.697   3.265   5.246 -0.5811  1.5666 -1.0356
 7076TIP3   OH242718   3.938   3.579   4.330 -0.1754 -0.7123  0.6760
 7076TIP3    H142719   3.972   3.542   4.413  2.9871 -0.6841 -0.4545
 7076TIP3    H242720   3.883   3.652   4.357 -0.4995 -1.6619  2.7928
 7077TIP3   OH242721   1.581   0.255   2.383  0.0917 -0.0883  0.4487
 7077TIP3    H142722   1.566   0.225   2.472 -2.3114  1.8490  0.8279
 7077TIP3    H242723   1.499   0.235   2.337 -0.1796  2.2696 -0.2512
 7078TIP3   OH242724   4.608   1.090   4.407  0.2779 -0.6759 -0.6849
 7078TIP3    H142725   4.583   1.106   4.316 -0.7452 -3.1954 -0.9068
 7078TIP3    H242726   4.697   1.055   4.402  0.6088  0.1285 -0.6038
 7079TIP3   OH242727   4.037   0.361  12.792  0.2268  0.1413  0.5972
 7079TIP3    H142728   4.072   0.275  12.768  0.2175 -0.0528  1.2641
 7079TIP3    H242729   3.960   0.372  12.736 -0.3790 -0.7375  1.2291
 7080TIP3   OH242730   6.516   5.325   4.213 -0.1563  0.4818  0.4316
 7080TIP3    H142731   6.524   5.375   4.294 -2.8210  2.0381 -0.1274
 7080TIP3    H242732   6.600   5.338   4.168  1.2157 -0.1097  2.6977
 7081TIP3   OH242733   6.190   3.845   2.908  0.1939  0.3188 -0.4512
 7081TIP3    H142734   6.125   3.908   2.879  0.7287  0.6819 -0.8844
 7081TIP3    H242735   6.174   3.767   2.855 -1.1001 -0.2904  0.7608
 7082TIP3   OH242736   1.440   0.881   1.473  0.0989 -0.1465  0.3177
 7082TIP3    H142737   1.447   0.825   1.396 -1.1332  0.5897 -0.3468
 7082TIP3    H242738   1.519   0.936   1.469  1.6262 -2.1302  1.2846
 7083TIP3   OH242739   0.333   3.129  15.185  0.4194 -0.6968  0.8699
 7083TIP3    H142740   0.385   3.206  15.163 -0.1108 -0.8962 -1.3207
 7083TIP3    H242741   0.275   3.158  15.255 -0.3765  1.1787 -0.4925
 7084TIP3   OH242742   1.872   5.567  17.151  0.0398 -0.3132  0.3450
 7084TIP3    H142743   1.948   5.513  17.133 -0.3370 -0.9175  0.5465
 7084TIP3    H242744   1.822   5.566  17.069  0.7201  0.8885 -0.1161
 7085TIP3   OH242745   1.786   0.645  15.766 -0.3216  0.0974 -0.2109
 7085TIP3    H142746   1.768   0.551  15.758 -0.1831 -0.0473  1.0461
 7085TIP3    H242747   1.721   0.676  15.829  0.8300  0.4631  0.8456
 7086TIP3   OH242748   3.214   0.668   3.216  0.3782 -0.1034  0.1069
 7086TIP3    H142749   3.246   0.751   3.182  2.8592 -1.6721 -1.7601
 7086TIP3    H242750   3.252   0.660   3.303  1.0314  0.2319 -0.1445
 7087TIP3   OH242751   6.386   0.494   5.462  0.2372 -0.0105  0.6229
 7087TIP3    H142752   6.410   0.541   5.382 -0.6037 -0.6934 -0.0559
 7087TIP3    H242753   6.329   0.423   5.432  0.8401 -0.9980  1.6950
 7088TIP3   OH242754   2.148   2.801   5.012 -0.5540 -0.0042 -0.3343
 7088TIP3    H142755   2.217   2.774   4.952 -1.3629 -0.1637 -1.2270
 7088TIP3    H242756   2.095   2.722   5.025  1.1280 -0.7621  2.8276
 7089TIP3   OH242757   4.462   1.878   2.184 -0.3876 -0.1690 -0.4752
 7089TIP3    H142758   4.401   1.815   2.146 -0.4178 -0.6667  0.3801
 7089TIP3    H242759   4.410   1.928   2.247  0.0251 -0.4117  0.0581
 7090TIP3   OH242760   3.488   1.560   0.213 -0.0510  0.0104  0.3224
 7090TIP3    H142761   3.565   1.569   0.158  0.4971 -0.9174  0.9092
 7090TIP3    H242762   3.521   1.523   0.295 -1.1916 -0.9169  0.3921
 7091TIP3   OH242763   0.542   1.353  14.889 -0.1492 -0.0817 -0.6023
 7091TIP3    H142764   0.623   1.383  14.847  0.4381 -2.3029 -1.1814
 7091TIP3    H242765   0.482   1.337  14.817 -0.0604 -1.3053 -0.4284
 7092TIP3   OH242766   1.556   1.354   4.428 -0.3837 -0.6267  0.4038
 7092TIP3    H142767   1.571   1.263   4.455  0.2111 -0.4919  0.5212
 7092TIP3    H242768   1.553   1.350   4.332  0.7632 -0.6065  0.3526
 7093TIP3   OH242769   6.380   1.629  15.554  0.2226 -0.3456 -0.2818
 7093TIP3    H142770   6.393   1.707  15.607  0.8794  0.3084 -1.3636
 7093TIP3    H242771   6.350   1.562  15.616 -0.8351  0.8858  0.5898
 7094TIP3   OH242772   0.995   2.957  13.648 -0.2190  0.6250  0.2064
 7094TIP3    H142773   0.916   2.923  13.691 -0.0961 -0.5010 -0.4373
 7094TIP3    H242774   1.019   3.034  13.701 -1.2821  0.5207  0.8820
 7095TIP3   OH242775   3.349   3.725   2.133 -0.0947 -0.5934 -0.4802
 7095TIP3    H142776   3.423   3.665   2.147  0.7122  0.1333 -1.4508
 7095TIP3    H242777   3.313   3.697   2.049  0.8375  0.7884 -1.3846
 7096TIP3   OH242778   2.884   1.784  14.037  0.3707  0.5561  0.2473
 7096TIP3    H142779   2.794   1.774  14.066  0.9202 -0.1972  1.8153
 7096TIP3    H242780   2.878   1.829  13.953 -1.4535  0.4695  0.3053
 7097TIP3   OH242781   3.031   5.848   6.652 -0.2112 -0.1992 -0.4793
 7097TIP3    H142782   2.992   5.773   6.607  0.9718 -0.2896 -1.4146
 7097TIP3    H242783   3.123   5.823   6.665  0.3042  1.2207 -1.1505
 7098TIP3   OH242784   2.907   4.021   5.860  0.0586  0.0478  0.2510
 7098TIP3    H142785   2.995   4.011   5.823  0.9605  0.3313  2.2047
 7098TIP3    H242786   2.881   3.931   5.882  0.9381  0.1668  1.9392
 7099TIP3   OH242787   4.937   6.415   6.248  0.3971  0.8951  0.0654
 7099TIP3    H142788   4.908   6.487   6.304 -2.2407 -0.2360  0.3122
 7099TIP3    H242789   4.943   6.454   6.161  0.2729  1.6949  0.4027
 7100TIP3   OH242790   5.177   1.724   1.935  0.7219 -0.3659 -0.3618
 7100TIP3    H142791   5.132   1.695   2.014 -0.6213 -2.6050 -1.8486
 7100TIP3    H242792   5.197   1.816   1.951 -2.7460  0.2685  1.1415
 7101TIP3   OH242793   4.325   0.878   5.579  0.4436 -0.5724 -0.0972
 7101TIP3    H142794   4.347   0.804   5.523 -2.7486 -0.9749 -1.0473
 7101TIP3    H242795   4.348   0.850   5.667  1.4102 -1.7467 -0.6918
 7102TIP3   OH242796   1.776   1.136   6.214 -0.1897  1.0204  0.0576
 7102TIP3    H142797   1.770   1.221   6.255 -0.7315  0.6804  0.6983
 7102TIP3    H242798   1.692   1.126   6.167 -1.2999 -0.2555  2.1790
 7103TIP3   OH242799   6.239   4.652   0.982 -0.1513  0.1603  0.5462
 7103TIP3    H142800   6.166   4.696   1.025 -1.4104 -1.0834 -0.2353
 7103TIP3    H242801   6.246   4.568   1.027  0.8840  0.3009  0.6742
 7104TIP3   OH242802   6.012   3.106   1.726  0.4401 -0.6810  0.2179
 7104TIP3    H142803   6.042   3.086   1.637  1.5188  2.4567 -0.2464
 7104TIP3    H242804   5.916   3.105   1.720  0.4989 -0.6780 -0.9571
 7105TIP3   OH242805   2.216   1.304  14.763 -0.5994 -0.4844 -0.1563
 7105TIP3    H142806   2.182   1.383  14.721 -0.8210 -1.0281 -1.0416
 7105TIP3    H242807   2.294   1.281  14.712 -1.6071 -1.8938 -1.1358
 7106TIP3   OH242808   3.062   0.494   3.080  0.5633 -0.3076  0.0029
 7106TIP3    H142809   3.143   0.533   3.114 -0.1035  0.0034  1.2889
 7106TIP3    H242810   2.999   0.503   3.152 -0.1872 -1.9599 -0.3988
 7107TIP3   OH242811   2.761   6.566   4.078 -0.3166 -0.1441  0.1661
 7107TIP3    H142812   2.849   6.598   4.094 -0.5350  1.2693 -1.1974
 7107TIP3    H242813   2.704   6.640   4.100 -1.0143 -0.4186 -0.6409
 7108TIP3   OH242814   6.637   2.872   2.407 -0.4634  0.4054  0.0897
 7108TIP3    H142815   6.611   2.799   2.463  0.7904 -0.7632 -0.7887
 7108TIP3    H242816   6.726   2.851   2.380 -1.2502  0.5407 -2.9356
 7109TIP3   OH242817   3.731   3.287  15.623  0.6657 -0.1663 -0.1775
 7109TIP3    H142818   3.649   3.290  15.673  0.8163  2.4678  0.0564
 7109TIP3    H242819   3.798   3.271  15.690  0.4225 -2.4900 -0.3892
 7110TIP3   OH242820   2.785   3.303  16.532 -0.5363  0.3826 -0.0375
 7110TIP3    H142821   2.873   3.341  16.532  0.1122 -0.9997 -0.9472
 7110TIP3    H242822   2.754   3.314  16.442  0.5134 -2.8663 -0.9550
 7111TIP3   OH242823   0.982   4.165  16.381  0.5202 -0.6681 -0.8486
 7111TIP3    H142824   1.044   4.156  16.309  0.8230 -2.5224 -0.4005
 7111TIP3    H242825   1.033   4.140  16.459  0.1802  1.1889  0.0288
 7112TIP3   OH242826   1.057   0.812  13.872  0.3608 -0.2977  0.5800
 7112TIP3    H142827   1.143   0.849  13.892 -0.3030  1.7035 -0.0629
 7112TIP3    H242828   1.062   0.789  13.780  0.0698  0.2390  0.4289
 7113TIP3   OH242829   6.680   0.440   1.973 -0.3112  0.5423 -0.3380
 7113TIP3    H142830   6.610   0.376   1.964 -0.1239  0.1939  0.5558
 7113TIP3    H242831   6.689   0.479   1.886 -0.7768 -0.2784 -0.7628
 7114TIP3   OH242832   2.462   6.333  11.407 -0.0624 -0.3329 -0.2174
 7114TIP3    H142833   2.478   6.422  11.375  0.5567  0.4718  2.1594
 7114TIP3    H242834   2.369   6.318  11.388 -0.5662  1.4239  0.6789
 7115TIP3   OH242835   5.029   2.324  13.230  0.6214  0.3095  0.1133
 7115TIP3    H142836   5.035   2.341  13.324 -0.5410  0.0574  0.2443
 7115TIP3    H242837   5.017   2.229  13.223 -0.4839  0.4654 -0.2201
 7116TIP3   OH242838   5.071   0.290  13.622 -0.2725  0.3890 -0.6968
 7116TIP3    H142839   5.158   0.254  13.602 -1.3989 -0.8935 -4.0551
 7116TIP3    H242840   5.065   0.369  13.567 -0.9994  0.8716  0.0511
 7117TIP3   OH242841   6.818   3.226   1.596 -0.2913  0.4694 -0.3809
 7117TIP3    H142842   6.865   3.305   1.623  1.3716 -0.3682 -0.6786
 7117TIP3    H242843   6.887   3.160   1.586 -1.4192 -0.5127 -2.0070
 7118TIP3   OH242844   3.337   4.820  16.370 -0.2493 -0.4958 -0.3469
 7118TIP3    H142845   3.269   4.755  16.351  1.3986 -2.1896 -0.8379
 7118TIP3    H242846   3.391   4.821  16.290  0.4126  0.6627  0.0928
 7119TIP3   OH242847   2.608   1.889   0.971  0.0331 -0.6252  0.1649
 7119TIP3    H142848   2.524   1.855   0.941  0.1748 -1.7200  0.9239
 7119TIP3    H242849   2.589   1.933   1.054  0.0560  0.0155 -0.1664
 7120TIP3   OH242850   0.225   1.440  10.512  0.3242  0.0074  0.5066
 7120TIP3    H142851   0.191   1.402  10.594  1.0326  0.0907  0.8473
 7120TIP3    H242852   0.170   1.404  10.444  0.8688 -1.5075  0.8428
 7121TIP3   OH242853   0.215   1.326  12.508 -0.3004 -0.0104 -0.0727
 7121TIP3    H142854   0.120   1.320  12.501 -0.0859 -3.5313 -2.4011
 7121TIP3    H242855   0.241   1.379  12.433 -0.3817 -0.2559 -0.2771
 7122TIP3   OH242856   2.071   5.815   1.727 -0.2031  0.3022  0.1838
 7122TIP3    H142857   1.986   5.851   1.751 -0.0840  1.4078 -0.9768
 7122TIP3    H242858   2.097   5.864   1.649  0.7861 -1.0979 -0.4054
 7123TIP3   OH242859   1.997   6.764   1.017 -0.0627  0.1124  0.2739
 7123TIP3    H142860   1.993   6.736   0.926  0.8809 -0.4040  0.3832
 7123TIP3    H242861   1.905   6.772   1.044 -0.3972  2.2074 -1.2836
 7124TIP3   OH242862   0.950   5.122  14.281  0.3871  0.9704 -0.3764
 7124TIP3    H142863   0.898   5.049  14.315 -0.1304  1.7554  0.5825
 7124TIP3    H242864   0.886   5.190  14.261  0.9376  1.5367 -0.2737
 7125TIP3   OH242865   6.075   3.350  15.134 -0.4616 -0.3881  0.5682
 7125TIP3    H142866   6.009   3.314  15.075  0.3345  0.6566 -1.0322
 7125TIP3    H242867   6.047   3.440  15.149  1.3792  0.6324 -1.5051
 7126TIP3   OH242868   3.532   6.157   0.097  0.2120 -0.1871 -0.4312
 7126TIP3    H142869   3.588   6.181   0.171 -0.3796  0.9441 -0.3375
 7126TIP3    H242870   3.443   6.160   0.133  0.0824 -3.0343 -0.2737
 7127TIP3   OH242871   3.298   1.445  10.866 -0.1607  0.1454 -0.2480
 7127TIP3    H142872   3.368   1.455  10.802  0.0285 -1.4288 -0.3252
 7127TIP3    H242873   3.222   1.488  10.826  0.0908 -0.3553 -1.2831
 7128TIP3   OH242874   5.774   6.336   1.252 -0.3586 -0.2572  0.6038
 7128TIP3    H142875   5.842   6.375   1.307 -0.2821  0.3376  0.1048
 7128TIP3    H242876   5.791   6.371   1.165 -1.5829  0.2738  0.5542
 7129TIP3   OH242877   2.159   2.039   5.208 -0.3657  0.1767 -0.4063
 7129TIP3    H142878   2.251   2.054   5.231 -0.3308 -0.8774  0.1900
 7129TIP3    H242879   2.155   2.054   5.114  0.3397  0.5945 -0.3765
 7130TIP3   OH242880   0.689   3.457  13.966 -0.0466  0.0771  0.2384
 7130TIP3    H142881   0.614   3.459  14.025  0.6520  0.5336  1.1358
 7130TIP3    H242882   0.721   3.366  13.972  0.7898  0.4366  1.5831
 7131TIP3   OH242883   1.043   0.686  11.940  0.4776 -0.1611 -0.5876
 7131TIP3    H142884   1.065   0.722  11.855  3.4950 -2.1656 -0.8242
 7131TIP3    H242885   1.096   0.736  12.002  0.2327 -0.3648 -0.2035
 7132TIP3   OH242886   6.605   1.698  10.890  0.0588 -0.3091  0.0317
 7132TIP3    H142887   6.671   1.766  10.897 -0.4690  0.3361 -0.9762
 7132TIP3    H242888   6.639   1.637  10.825 -0.9551  0.8065 -1.6056
 7133TIP3   OH242889   5.836   1.321   1.844 -0.1219  0.1889 -0.4205
 7133TIP3    H142890   5.910   1.280   1.799 -1.7223 -1.9903 -1.2282
 7133TIP3    H242891   5.765   1.321   1.780 -1.6950 -0.6067  1.2215
 7134TIP3   OH242892   0.937   3.915   3.023 -0.1666 -0.3921  0.4312
 7134TIP3    H142893   0.968   4.003   3.003 -2.0354  0.3344  0.5341
 7134TIP3    H242894   0.967   3.862   2.948  0.5258  0.4204  0.1163
 7135TIP3   OH242895   4.231   1.759   4.565 -0.2729 -0.6757 -0.4281
 7135TIP3    H142896   4.140   1.732   4.578  0.1407 -1.7025  0.5899
 7135TIP3    H242897   4.226   1.851   4.541 -1.6649 -1.1227 -2.0747
 7136TIP3   OH242898   2.881   6.578   5.053  0.0892 -0.2750  0.2077
 7136TIP3    H142899   2.852   6.669   5.056 -0.0010 -0.3288  1.4933
 7136TIP3    H242900   2.952   6.573   5.117  1.8293 -0.5413 -1.6717
 7137TIP3   OH242901   3.542   2.701  13.008 -0.0121  0.1270  0.2354
 7137TIP3    H142902   3.518   2.610  12.991 -1.2897  0.2101  1.4610
 7137TIP3    H242903   3.466   2.739  13.053  0.1965  2.0171 -0.8926
 7138TIP3   OH242904   0.685   6.452   4.361 -0.3076  0.3810 -0.0107
 7138TIP3    H142905   0.744   6.515   4.319 -0.9198  0.1726 -1.1980
 7138TIP3    H242906   0.742   6.403   4.420  0.3885  1.3066  0.1235
 7139TIP3   OH242907   0.076   6.804  13.206 -0.0650  0.1589 -0.2489
 7139TIP3    H142908   0.037   6.829  13.122  1.4795  2.0353 -0.4874
 7139TIP3    H242909   0.010   6.828  13.271 -0.5204  0.4616 -0.8139
 7140TIP3   OH242910   2.834   2.592   5.081  0.4798  0.8279 -0.2092
 7140TIP3    H142911   2.745   2.618   5.056  0.0007 -0.5280  0.0325
 7140TIP3    H242912   2.839   2.609   5.175  0.6809  1.4349 -0.3229
 7141TIP3   OH242913   1.669   0.228   5.792  0.2802  0.0973 -0.1202
 7141TIP3    H142914   1.631   0.315   5.802  1.3235  0.5993 -0.4644
 7141TIP3    H242915   1.699   0.225   5.701  1.5255 -0.0951  0.2841
 7142TIP3   OH242916   3.362   5.871  13.189  0.9610 -0.0085  0.1733
 7142TIP3    H142917   3.441   5.818  13.198  0.7403 -0.1422  1.4131
 7142TIP3    H242918   3.348   5.910  13.275  0.0450  0.5469 -0.2065
 7143TIP3   OH242919   3.335   3.184  13.738 -0.2053  0.0779 -0.1112
 7143TIP3    H142920   3.285   3.266  13.748 -2.8701 -1.5800  1.6284
 7143TIP3    H242921   3.338   3.148  13.827  0.4187 -1.9502 -0.9183
 7144TIP3   OH242922   2.579   0.152   5.287  0.1043 -0.0236  0.4713
 7144TIP3    H142923   2.669   0.128   5.312  0.1290 -0.2085  0.2037
 7144TIP3    H242924   2.547   0.078   5.237 -0.5001 -0.3212  1.2713
 7145TIP3   OH242925   4.446   2.190  10.969  0.2944  0.0250 -0.0384
 7145TIP3    H142926   4.460   2.110  10.919  0.9209  0.2780 -0.2828
 7145TIP3    H242927   4.488   2.174  11.053  0.0766 -0.0505  0.0534
 7146TIP3   OH242928   6.700   4.155   2.570 -0.2517 -0.6087  0.3123
 7146TIP3    H142929   6.724   4.202   2.650  1.3395 -0.1795 -0.3737
 7146TIP3    H242930   6.639   4.213   2.525  0.9087  0.3797 -0.0423
 7147TIP3   OH242931   1.624   5.006  12.221 -0.2083 -0.5479 -0.5748
 7147TIP3    H142932   1.562   4.998  12.148 -0.2615  1.2172 -0.7762
 7147TIP3    H242933   1.708   4.984  12.182 -0.4929 -1.4981 -0.6756
 7148TIP3   OH242934   2.953   5.368   1.756 -0.3527  0.3246 -0.1264
 7148TIP3    H142935   2.877   5.314   1.737 -0.6539  1.3552 -2.0799
 7148TIP3    H242936   2.920   5.434   1.817 -1.0697  0.7959 -1.0003
 7149TIP3   OH242937   5.764   3.349   3.762 -0.1001  0.4384  0.0037
 7149TIP3    H142938   5.674   3.337   3.732 -0.6935  1.3409  1.3702
 7149TIP3    H242939   5.773   3.443   3.775  0.5334  0.2062  1.4027
 7150TIP3   OH242940   5.529   2.554  16.338 -0.1369  0.8558  0.5551
 7150TIP3    H142941   5.529   2.605  16.257 -2.2454  0.6069  0.3347
 7150TIP3    H242942   5.560   2.616  16.405 -0.5326  1.7591 -0.0763
 7151TIP3   OH242943   1.317   1.140  11.753 -0.1590 -1.1039  0.5658
 7151TIP3    H142944   1.239   1.194  11.767 -0.0182 -0.8834  0.4804
 7151TIP3    H242945   1.362   1.141  11.838  0.7493  0.3164  0.0952
 7152TIP3   OH242946   1.044   4.393  11.635 -0.3063  0.5726  0.1801
 7152TIP3    H142947   1.022   4.385  11.727  0.1521 -0.6948  0.1929
 7152TIP3    H242948   0.963   4.422  11.593 -0.0173  3.2360  1.2228
 7153TIP3   OH242949   4.438   4.149   0.421  0.0454  0.6277  0.6230
 7153TIP3    H142950   4.491   4.211   0.470  2.1664 -2.6230  2.8801
 7153TIP3    H242951   4.363   4.131   0.478  0.5121 -0.3178  0.9654
 7154TIP3   OH242952   6.094   0.164  14.776 -0.2780 -0.9146  0.3652
 7154TIP3    H142953   6.105   0.174  14.870 -0.3048 -2.0058  0.5011
 7154TIP3    H242954   6.093   0.253  14.742  1.2500 -0.5275  1.2247
 7155TIP3   OH242955   1.780   5.284   5.533  0.0077 -0.0768 -0.1255
 7155TIP3    H142956   1.790   5.346   5.462 -1.6090  0.9760  0.5207
 7155TIP3    H242957   1.686   5.273   5.544  0.2314 -1.5280  0.7538
 7156TIP3   OH242958   5.970   5.451  16.680 -0.4349 -0.3655  0.3131
 7156TIP3    H142959   6.018   5.435  16.761 -1.5971 -2.4090  0.6612
 7156TIP3    H242960   6.031   5.426  16.611  0.3639  0.8453  0.5610
 7157TIP3   OH242961   3.549   4.134   1.272 -0.3941 -0.0367  0.6178
 7157TIP3    H142962   3.596   4.056   1.302 -0.9089 -0.5763  0.0200
 7157TIP3    H242963   3.543   4.124   1.177 -3.9230 -1.2584  0.8271
 7158TIP3   OH242964   3.746   1.268  15.270  0.8857 -0.1723  0.1015
 7158TIP3    H142965   3.745   1.186  15.320  1.5235 -1.0442 -1.2567
 7158TIP3    H242966   3.673   1.260  15.209 -1.1299  1.7189  2.0658
 7159TIP3   OH242967   2.337   0.824   1.158 -0.2126 -0.7728  0.2443
 7159TIP3    H142968   2.375   0.738   1.177  3.0900  0.7901  1.3759
 7159TIP3    H242969   2.351   0.874   1.238  1.9185  2.0782 -1.7321
 7160TIP3   OH242970   3.999   6.680  13.748 -0.6802 -0.9428  0.0532
 7160TIP3    H142971   3.994   6.613  13.817  0.2239 -3.1436 -1.8787
 7160TIP3    H242972   4.084   6.664  13.706 -2.7127 -2.3329 -4.0063
 7161TIP3   OH242973   4.110   2.050  16.544  0.1339 -0.6149 -0.2244
 7161TIP3    H142974   4.115   2.106  16.466 -0.5600  0.3221  0.3882
 7161TIP3    H242975   4.072   2.106  16.612 -2.5675 -2.4089 -0.1222
 7162TIP3   OH242976   1.190   2.418  16.716 -0.0780  0.6968  0.1174
 7162TIP3    H142977   1.164   2.466  16.637 -0.9123  1.1772  0.6680
 7162TIP3    H242978   1.190   2.326  16.689 -2.4256  0.6413  0.0587
 7163TIP3   OH242979   2.218   6.262  14.417 -0.1575 -0.3993  0.3352
 7163TIP3    H142980   2.213   6.195  14.349  1.0829  0.6677 -0.8897
 7163TIP3    H242981   2.312   6.272  14.434 -0.3696  0.3677  1.1722
 7164TIP3   OH242982   4.638   5.057  13.312  1.0022 -0.0649  0.3334
 7164TIP3    H142983   4.560   5.004  13.296  0.6900  0.5464 -0.2069
 7164TIP3    H242984   4.709   5.008  13.271  0.7888 -0.2661  0.1977
 7165TIP3   OH242985   6.748   2.162  16.937  0.3135 -0.0207 -0.4245
 7165TIP3    H142986   6.742   2.067  16.947  0.0009  0.1685  1.7343
 7165TIP3    H242987   6.800   2.191  17.012  2.7983  1.3216 -2.5162
 7166TIP3   OH242988   0.873   5.313  12.806  0.5761  0.6385  0.4491
 7166TIP3    H142989   0.835   5.259  12.875  0.5363  1.8711  1.4264
 7166TIP3    H242990   0.956   5.345  12.842  1.1043  0.4160 -0.5115
 7167TIP3   OH242991   0.442   0.143   2.915 -0.1033  0.1095  0.0267
 7167TIP3    H142992   0.371   0.121   2.976 -0.9102  0.3155 -0.8038
 7167TIP3    H242993   0.477   0.226   2.948 -0.4858  0.1838  0.2590
 7168TIP3   OH242994   4.801   1.138  15.987  0.7622 -0.0741 -0.4433
 7168TIP3    H142995   4.803   1.127  15.892 -0.6728 -0.8634 -0.4040
 7168TIP3    H242996   4.883   1.099  16.017  0.0630 -2.2783 -1.1573
 7169TIP3   OH242997   6.449   2.151   5.441  0.2914  0.2305 -0.3816
 7169TIP3    H142998   6.522   2.200   5.478  0.0054  1.1104 -0.9677
 7169TIP3    H242999   6.488   2.068   5.413  1.4455  1.3540 -2.2915
 7170TIP3   OH243000   1.127   0.191  12.380  0.3292 -0.1497  0.8417
 7170TIP3    H143001   1.122   0.276  12.337 -0.9983 -0.4228  0.3921
 7170TIP3    H243002   1.149   0.130  12.309  0.1079 -0.3291  0.9249
 7171TIP3   OH243003   3.361   0.332   0.414 -0.1704  0.8124 -0.1277
 7171TIP3    H143004   3.441   0.350   0.364 -0.0226  0.1866 -0.1181
 7171TIP3    H243005   3.388   0.346   0.505  0.0492  0.1653 -0.0917
 7172TIP3   OH243006   6.735   0.644   5.580  0.0333  0.0186 -0.3989
 7172TIP3    H143007   6.821   0.609   5.602 -0.0579 -1.0172 -1.5936
 7172TIP3    H243008   6.678   0.567   5.575 -1.7408  0.8187  3.2769
 7173TIP3   OH243009   3.777   4.393  17.236 -0.7526  0.6743 -0.0247
 7173TIP3    H143010   3.778   4.448  17.314 -0.9501  0.0520  0.4291
 7173TIP3    H243011   3.843   4.326  17.253 -1.0658  0.3099 -0.2266
 7174TIP3   OH243012   2.324   1.369  15.791 -0.0181 -0.6850  0.3234
 7174TIP3    H143013   2.272   1.402  15.864 -0.6002 -1.3901  0.2431
 7174TIP3    H243014   2.281   1.405  15.713  1.6076  1.4922  0.3362
 7175TIP3   OH243015   5.050   2.338  14.792 -0.0730 -0.2553 -0.2443
 7175TIP3    H143016   5.132   2.308  14.832 -0.0964 -1.7334 -1.2143
 7175TIP3    H243017   5.041   2.284  14.713 -2.2280 -0.5035  0.1092
 7176TIP3   OH243018   3.192   4.264  16.552  0.0013  0.1390  0.3417
 7176TIP3    H143019   3.257   4.329  16.524 -0.2140 -0.0509 -0.6329
 7176TIP3    H243020   3.201   4.262  16.648  1.2854  0.2700  0.2500
 7177TIP3   OH243021   5.851   5.769  13.182 -0.1244  0.1892  0.1139
 7177TIP3    H143022   5.909   5.810  13.247 -0.4528  0.2183  0.3880
 7177TIP3    H243023   5.884   5.679  13.175  0.0303  0.2403  0.1811
 7178TIP3   OH243024   2.479   2.650   3.517 -0.2610  0.0133  0.0156
 7178TIP3    H143025   2.447   2.738   3.534 -0.1755  0.0303  0.0939
 7178TIP3    H243026   2.457   2.601   3.596 -0.1807  0.0016  0.0314
 7179TIP3   OH243027   3.517   0.350  15.297 -0.1465 -0.6362  0.0902
 7179TIP3    H143028   3.517   0.446  15.293  0.6500 -0.6488 -0.7245
 7179TIP3    H243029   3.584   0.329  15.361 -0.6715 -0.6510  0.6430
 7180TIP3   OH243030   5.498   5.725  12.996  0.3142 -0.1274 -0.0196
 7180TIP3    H143031   5.552   5.658  12.953  0.4679  0.3369 -0.5537
 7180TIP3    H243032   5.424   5.739  12.937 -0.6572 -1.0856  0.9204
 7181TIP3   OH243033   2.872   1.792   4.194 -0.3040 -0.3155  0.0512
 7181TIP3    H143034   2.783   1.777   4.227 -0.4360  0.4202  0.0591
 7181TIP3    H243035   2.929   1.744   4.254 -0.3912  2.3297  2.4759
 7182TIP3   OH243036   4.168   2.408   1.502 -0.2659 -0.1380 -0.1310
 7182TIP3    H143037   4.143   2.466   1.573  0.3207  0.3766 -0.3405
 7182TIP3    H243038   4.254   2.438   1.474 -0.1054 -0.8801 -0.4831
 7183TIP3   OH243039   5.204   1.940  11.724 -0.2104 -0.0289  0.3143
 7183TIP3    H143040   5.116   1.916  11.697  0.0866 -1.8650  0.8150
 7183TIP3    H243041   5.193   1.979  11.811 -0.5070 -0.4083  0.4477
 7184TIP3   OH243042   1.948   4.628  15.323 -0.0618 -0.1025 -0.4494
 7184TIP3    H143043   1.969   4.538  15.350 -0.8389 -0.8967 -2.3008
 7184TIP3    H243044   2.033   4.667  15.304  0.2938 -0.3843  0.5048
 7185TIP3   OH243045   4.972   3.502   3.347 -0.4885  0.4288  0.8027
 7185TIP3    H143046   4.950   3.479   3.437 -1.3337 -0.2178  0.4432
 7185TIP3    H243047   4.929   3.435   3.293 -0.4845  1.1310 -0.1108
 7186TIP3   OH243048   5.793   1.386  17.124 -0.2594 -0.0875  0.4871
 7186TIP3    H143049   5.815   1.307  17.074 -0.2903 -0.0358  0.3923
 7186TIP3    H243050   5.720   1.360  17.180  1.0139 -0.7133  1.9307
 7187TIP3   OH243051   3.489   4.050  15.538  0.0553  1.0279  0.1809
 7187TIP3    H143052   3.565   4.047  15.480 -1.2686  0.5542 -1.6278
 7187TIP3    H243053   3.497   4.133  15.584  2.0333  0.6594  0.5891
 7188TIP3   OH243054   0.916   5.508   5.861  0.5039 -0.3430 -0.5347
 7188TIP3    H143055   0.943   5.489   5.772  2.3053 -0.8268  0.0700
 7188TIP3    H243056   0.984   5.468   5.916 -1.9519 -2.4321  1.1733
 7189TIP3   OH243057   4.094   1.624  14.876 -0.4521  0.4126 -0.8018
 7189TIP3    H143058   4.043   1.694  14.917 -0.0203  0.7643 -0.8656
 7189TIP3    H243059   4.183   1.637  14.907 -0.3600 -0.0876 -0.8462
 7190TIP3   OH243060   5.775   3.295  13.532 -0.0132 -0.3177  0.2034
 7190TIP3    H143061   5.773   3.347  13.451 -3.2712 -0.9751 -0.2803
 7190TIP3    H243062   5.757   3.358  13.601  2.2653  0.1574  0.4305
 7191TIP3   OH243063   1.218   2.265   2.977 -0.3678  0.4392 -0.3515
 7191TIP3    H143064   1.124   2.260   2.990 -0.6679 -1.8062 -2.7369
 7191TIP3    H243065   1.252   2.291   3.063 -2.8480 -2.9408  1.9428
 7192TIP3   OH243066   5.432   4.117   3.268  0.3459  0.7735 -0.2082
 7192TIP3    H143067   5.419   4.071   3.350 -0.4603  0.7698 -0.3257
 7192TIP3    H243068   5.499   4.067   3.222 -1.1369 -0.8513 -0.7341
 7193TIP3   OH243069   1.078   4.332  16.857  0.2488  1.0492 -0.1941
 7193TIP3    H143070   1.159   4.335  16.807  1.1805  0.6236  1.2177
 7193TIP3    H243071   1.087   4.254  16.913 -2.1346 -0.3681 -1.6006
 7194TIP3   OH243072   2.348   3.246  15.431  0.4449 -0.2191 -0.2744
 7194TIP3    H143073   2.435   3.284  15.443 -0.4549  2.3822 -1.3912
 7194TIP3    H243074   2.288   3.318  15.444 -1.8576 -2.5042  3.3625
 7195TIP3   OH243075   6.636   5.251   4.917 -0.2807 -0.2352  0.0074
 7195TIP3    H143076   6.707   5.243   4.981  0.6266  1.9536 -0.6387
 7195TIP3    H243077   6.676   5.226   4.834 -0.3281  0.6849 -0.3065
 7196TIP3   OH243078   0.894   4.385  13.736  0.1872  0.0767 -0.4539
 7196TIP3    H143079   0.955   4.443  13.781  1.3942 -0.5479 -1.2139
 7196TIP3    H243080   0.948   4.309  13.711 -0.6185  0.0213 -2.1745
 7197TIP3   OH243081   0.341   3.111  12.883  0.0929 -0.2173 -0.5140
 7197TIP3    H143082   0.309   3.112  12.973  2.6541  3.1922  0.5783
 7197TIP3    H243083   0.272   3.153  12.832 -0.4595 -0.1213  0.2948
 7198TIP3   OH243084   4.329   6.679   2.229  0.4275  0.4278  0.6577
 7198TIP3    H143085   4.339   6.668   2.135  1.3771  1.4112  0.6161
 7198TIP3    H243086   4.414   6.654   2.265  0.6611  1.7545  1.0728
 7199TIP3   OH243087   5.575   4.642   6.778  0.3205  0.5577 -0.4956
 7199TIP3    H143088   5.503   4.687   6.823  0.4984  0.3299  0.0211
 7199TIP3    H243089   5.623   4.713   6.735  1.5531  1.1238  1.6401
 7200TIP3   OH243090   0.004   4.325   5.423 -0.1836 -0.2320 -0.0493
 7200TIP3    H143091  -0.051   4.309   5.500  1.6737 -2.4351  0.9518
 7200TIP3    H243092   0.023   4.419   5.425 -0.2775 -0.2187  2.1406
 7201TIP3   OH243093   4.276   4.625   6.309  0.1175  0.2940 -0.0763
 7201TIP3    H143094   4.242   4.535   6.302 -0.5941  0.4843  0.7316
 7201TIP3    H243095   4.298   4.635   6.401  0.0023  1.0140 -0.1251
 7202TIP3   OH243096   5.530   2.221   1.263 -0.0035  0.0902 -0.4861
 7202TIP3    H143097   5.475   2.147   1.236 -0.3583 -0.0436  0.5723
 7202TIP3    H243098   5.618   2.197   1.234 -0.3289 -0.1425 -1.3132
 7203TIP3   OH243099   1.583   6.231  13.497  0.6144  0.4911  0.6678
 7203TIP3    H143100   1.560   6.167  13.430 -1.0832  0.9486  0.7534
 7203TIP3    H243101   1.533   6.310  13.472  2.6241  1.7969  0.5617
 7204TIP3   OH243102   0.858   3.490   4.653  0.0101 -0.1224  0.1047
 7204TIP3    H143103   0.828   3.581   4.651  1.2261  0.3518  1.7092
 7204TIP3    H243104   0.778   3.439   4.671 -0.8128  0.5074 -1.5172
 7205TIP3   OH243105   4.011   5.985  14.125  0.2152 -0.4854  0.7513
 7205TIP3    H143106   3.981   5.901  14.091 -0.9139 -0.1733  0.9514
 7205TIP3    H243107   4.089   5.963  14.177  1.2064 -1.1144 -0.9320
 7206TIP3   OH243108   4.068   4.294   4.446  0.2660  0.1740  0.8955
 7206TIP3    H143109   4.110   4.213   4.419  0.5360  1.2258 -2.1349
 7206TIP3    H243110   4.131   4.335   4.505  1.5180 -0.3724 -0.0188
 7207TIP3   OH243111   4.881   2.406   1.844 -0.4276 -0.3288 -0.4168
 7207TIP3    H143112   4.829   2.342   1.795  0.6137  0.1216 -2.2076
 7207TIP3    H243113   4.958   2.356   1.872 -1.5086 -0.8656  1.7969
 7208TIP3   OH243114   1.540   4.790  14.209  0.4522 -0.0950 -0.0035
 7208TIP3    H143115   1.446   4.787  14.192  0.3792  3.0475 -0.6830
 7208TIP3    H243116   1.581   4.774  14.123  0.4690  0.4660 -0.1042
 7209TIP3   OH243117   3.621   1.950   3.305  0.1143 -0.3446  0.2967
 7209TIP3    H143118   3.538   1.981   3.340  0.2922  1.7514 -0.9705
 7209TIP3    H243119   3.684   1.964   3.377 -0.3396 -0.5457  0.7381
 7210TIP3   OH243120   3.352   4.664  11.806  0.0042  0.1834 -0.1181
 7210TIP3    H143121   3.333   4.740  11.751 -0.1407  0.0089 -0.3113
 7210TIP3    H243122   3.299   4.676  11.884  0.9956  0.9656  0.4573
 7211TIP3   OH243123   4.521   0.669   2.098  0.0078  0.4934  0.2356
 7211TIP3    H143124   4.486   0.645   2.184  1.0063 -0.4198  0.4074
 7211TIP3    H243125   4.607   0.628   2.095 -1.3887 -2.8123 -2.6242
 7212TIP3   OH243126   2.529   5.818  14.349  0.7362 -0.2741 -0.1681
 7212TIP3    H143127   2.526   5.726  14.324 -3.4902 -0.9135  1.8534
 7212TIP3    H243128   2.512   5.818  14.443  1.7040  2.5555  0.1030
 7213TIP3   OH243129   5.212   6.004  14.165 -0.4237  0.1187 -0.4251
 7213TIP3    H143130   5.233   5.916  14.196 -1.8589 -0.4718 -1.0087
 7213TIP3    H243131   5.132   6.027  14.212  1.6794  2.5696  2.2874
 7214TIP3   OH243132   0.811   6.474   1.509 -0.5509  1.1425 -0.5912
 7214TIP3    H143133   0.785   6.477   1.600 -1.8811  0.4005 -0.9251
 7214TIP3    H243134   0.861   6.555   1.495  1.2664  0.4306  1.2244
 7215TIP3   OH243135   5.797   3.769   0.444 -0.1650  0.0758  0.0307
 7215TIP3    H143136   5.762   3.695   0.394  1.3643 -1.2186  0.8015
 7215TIP3    H243137   5.891   3.768   0.426  0.1323  0.7648  1.4098
 7216TIP3   OH243138   1.433   0.309   1.094  0.7339  0.2649 -0.5328
 7216TIP3    H143139   1.492   0.331   1.166 -0.8962 -1.2107  1.3356
 7216TIP3    H243140   1.412   0.394   1.054  1.2367  1.1824  1.0640
 7217TIP3   OH243141   6.394   5.667   3.024 -0.0489  0.2041  0.7638
 7217TIP3    H143142   6.324   5.659   3.089  1.4824  1.9241  2.7786
 7217TIP3    H243143   6.457   5.727   3.064  2.6893 -1.4030 -0.8603
 7218TIP3   OH243144   1.913   3.498  16.392 -0.4814 -0.0360  0.0579
 7218TIP3    H143145   1.946   3.526  16.477 -2.7226  0.6045  0.7837
 7218TIP3    H243146   1.868   3.415  16.409 -2.3614  0.8915 -0.1034
 7219TIP3   OH243147   2.498   0.593   5.523 -1.0183 -0.1962  0.6588
 7219TIP3    H143148   2.416   0.623   5.562 -2.2762 -0.4077 -1.6664
 7219TIP3    H243149   2.474   0.515   5.473  0.6723 -0.4337  0.1648
 7220TIP3   OH243150   6.644   1.458  15.966 -0.0193 -0.4032 -0.2379
 7220TIP3    H143151   6.591   1.483  16.041  0.6753  1.0288 -0.1902
 7220TIP3    H243152   6.628   1.526  15.900  0.2835 -0.9954 -0.9462
 7221TIP3   OH243153   5.739   4.780  14.444 -0.5457 -0.3283 -0.1518
 7221TIP3    H143154   5.805   4.730  14.492  1.4347  1.7904 -0.4243
 7221TIP3    H243155   5.657   4.761  14.488  0.6127 -1.3661  1.6989
 7222TIP3   OH243156   3.108   6.769  12.112  0.6023 -0.6877 -0.9574
 7222TIP3    H143157   3.176   6.749  12.049 -0.7112  0.5064 -2.8690
 7222TIP3    H243158   3.078   6.684  12.144  2.0275 -1.2674 -1.1004
 7223TIP3   OH243159   2.466   4.098   1.081 -0.2062  0.2466 -0.2321
 7223TIP3    H143160   2.499   4.175   1.127  0.4982  0.7992 -1.6046
 7223TIP3    H243161   2.373   4.117   1.065 -0.2306  0.4459  0.1283
 7224TIP3   OH243162   4.875   6.098  17.232 -0.4939 -0.1288  0.5457
 7224TIP3    H143163   4.898   6.191  17.236  1.3598 -0.5797  1.2458
 7224TIP3    H243164   4.923   6.058  17.304 -0.0766 -1.8722 -0.6367
 7225TIP3   OH243165   2.458   1.475  16.160 -0.2801 -0.2281  0.4532
 7225TIP3    H143166   2.538   1.466  16.109 -0.3366 -0.8024  0.4618
 7225TIP3    H243167   2.411   1.547  16.119 -0.3673 -0.7437 -0.3564
 7226TIP3   OH243168   4.983   6.021   1.996 -0.0827 -0.4477  0.2798
 7226TIP3    H143169   4.892   5.991   2.006 -0.3277 -0.1281 -0.8303
 7226TIP3    H243170   5.015   6.030   2.086 -0.5503 -2.3454  0.6769
 7227TIP3   OH243171   2.106   5.533  10.475  0.0950  0.1088  0.2625
 7227TIP3    H143172   2.092   5.617  10.431  2.2240 -0.9203 -2.7874
 7227TIP3    H243173   2.020   5.491  10.473 -1.0705  2.1658  2.0519
 7228TIP3   OH243174   4.951   1.807   0.762 -0.2202 -0.1952  0.2936
 7228TIP3    H143175   4.896   1.811   0.840  1.4873  2.7012  1.5152
 7228TIP3    H243176   4.892   1.780   0.692 -2.0496 -1.8808  2.3397
 7229TIP3   OH243177   5.667   0.374  16.923 -0.0753 -0.2251  0.0665
 7229TIP3    H143178   5.633   0.394  16.836  3.3127  0.6332 -1.2379
 7229TIP3    H243179   5.658   0.456  16.972  1.2057  0.4034 -0.7030
 7230TIP3   OH243180   3.755   4.711   3.942 -0.3508 -0.5258 -0.0223
 7230TIP3    H143181   3.773   4.644   4.008  0.1629 -0.2843  0.0897
 7230TIP3    H243182   3.799   4.789   3.975  0.2978 -0.5156 -0.8806
 7231TIP3   OH243183   3.880   3.676  10.438  0.0229 -0.0380  0.7386
 7231TIP3    H143184   3.787   3.682  10.458 -0.7037  1.1021 -2.3107
 7231TIP3    H243185   3.891   3.590  10.397 -0.1419  0.5457 -0.5892
 7232TIP3   OH243186   1.516   0.545   2.151 -0.0949  0.6766 -0.1355
 7232TIP3    H143187   1.573   0.620   2.170  1.6258 -0.8594  1.1989
 7232TIP3    H243188   1.567   0.492   2.090 -0.1402 -0.6167  0.9051
 7233TIP3   OH243189   3.839   0.049  13.657  0.2433  0.0903  0.7688
 7233TIP3    H143190   3.893  -0.028  13.676  2.7568  2.3126  3.4367
 7233TIP3    H243191   3.770   0.048  13.723 -0.6321 -0.5594 -0.1132
 7234TIP3   OH243192   5.458   5.737  14.993  0.1222  0.6526  0.0950
 7234TIP3    H143193   5.378   5.790  14.985  0.7590  1.6157 -0.0386
 7234TIP3    H243194   5.430   5.648  14.972 -0.8713  1.0138 -0.1760
 7235TIP3   OH243195   1.447   0.878  13.087 -0.6051 -0.0268 -0.4742
 7235TIP3    H143196   1.485   0.829  13.160  3.0649  3.9741  0.7126
 7235TIP3    H243197   1.379   0.932  13.128  1.1946  1.9335  0.1340
 7236TIP3   OH243198   6.188   5.091  14.933 -0.4056  1.0167 -0.8901
 7236TIP3    H143199   6.146   5.174  14.910 -0.6486  1.1852  0.1247
 7236TIP3    H243200   6.149   5.066  15.016 -1.4652 -0.9283 -1.9121
 7237TIP3   OH243201   6.263   6.106  11.440 -0.1444  0.4763  0.2742
 7237TIP3    H143202   6.291   6.029  11.390 -0.6759  1.1270 -1.0774
 7237TIP3    H243203   6.242   6.072  11.527 -0.1641 -0.8667 -0.2317
 7238TIP3   OH243204   2.750   4.090   5.636 -0.3397 -0.4503  0.1100
 7238TIP3    H143205   2.710   4.003   5.625  0.6268 -0.9136  0.0680
 7238TIP3    H243206   2.793   4.086   5.721 -1.1798  0.3721  0.5820
 7239TIP3   OH243207   2.843   0.162   1.914  0.4176 -0.6664 -0.6536
 7239TIP3    H143208   2.932   0.180   1.885  0.9648  1.7393  2.0352
 7239TIP3    H243209   2.853   0.110   1.994 -0.6175 -0.7982 -0.5897
 7240TIP3   OH243210   1.271   6.567   6.353  0.1817 -0.3972 -0.2867
 7240TIP3    H143211   1.255   6.473   6.354  2.0763 -0.7865 -1.3467
 7240TIP3    H243212   1.358   6.578   6.391  0.0249  0.9266 -0.2368
 7241TIP3   OH243213   4.057   0.546  11.461  0.3214  0.4913  0.2448
 7241TIP3    H143214   4.028   0.584  11.378  1.6805  0.1335 -0.4112
 7241TIP3    H243215   4.102   0.618  11.506  1.8329  0.0171 -0.4680
 7242TIP3   OH243216   2.536   2.156   0.245 -0.0887  0.5478 -0.0021
 7242TIP3    H143217   2.536   2.166   0.150 -0.6014 -0.0239 -0.0739
 7242TIP3    H243218   2.627   2.167   0.271 -0.1903  2.4242 -0.3537
 7243TIP3   OH243219   5.191   4.704   3.426  0.3922  0.3886 -0.0701
 7243TIP3    H143220   5.128   4.736   3.361 -0.0842 -1.4787 -0.5840
 7243TIP3    H243221   5.180   4.763   3.501 -3.5169 -0.9670  0.7047
 7244TIP3   OH243222   0.071   4.521   4.712 -0.2237  0.1182  0.4674
 7244TIP3    H143223   0.011   4.449   4.692  0.6994 -0.6101  0.2879
 7244TIP3    H243224   0.112   4.543   4.628  0.5654 -0.1287  0.7799
 7245TIP3   OH243225   4.053   3.195  14.665  0.5147  0.7472 -0.1127
 7245TIP3    H143226   4.023   3.155  14.583  0.1858 -0.4399  0.5626
 7245TIP3    H243227   4.009   3.280  14.668 -1.2929 -0.1479 -0.0827
 7246TIP3   OH243228   2.006   3.091  11.613  0.3617 -0.3259 -0.0792
 7246TIP3    H143229   2.059   3.171  11.609 -0.5446  0.3400  0.8370
 7246TIP3    H243230   1.950   3.095  11.536 -0.8285  0.7687  0.8123
 7247TIP3   OH243231   1.859   5.458  10.883 -0.0586 -0.8817 -0.5200
 7247TIP3    H143232   1.796   5.402  10.837 -0.1623 -0.3325 -1.0589
 7247TIP3    H243233   1.944   5.421  10.859 -0.0448  0.0499 -2.1079
 7248TIP3   OH243234   0.542   6.286   3.640 -0.5629  0.0767  0.0776
 7248TIP3    H143235   0.633   6.299   3.666 -0.9550  0.2205  1.4549
 7248TIP3    H243236   0.495   6.276   3.723 -2.0700  1.6773 -0.5387
 7249TIP3   OH243237   0.914   2.813  11.394  0.1929 -0.2433 -0.2868
 7249TIP3    H143238   0.976   2.824  11.466 -0.3541  1.1958  0.0045
 7249TIP3    H243239   0.847   2.879  11.410  0.2698  0.4002 -2.3278
 7250TIP3   OH243240   2.819   5.519  16.105  0.8060  0.3881  0.1067
 7250TIP3    H143241   2.802   5.608  16.077 -0.0355 -0.0630 -0.8848
 7250TIP3    H243242   2.876   5.483  16.037  2.0385  0.4802  1.0514
 7251TIP3   OH243243   1.028   1.110  12.465 -0.6067  0.4744  0.5187
 7251TIP3    H143244   0.985   1.025  12.456 -0.9885  0.4126  2.5502
 7251TIP3    H243245   1.060   1.130  12.377 -2.7922 -0.5371 -0.5840
 7252TIP3   OH243246   6.536   4.171  11.123 -0.3598  0.4215  0.0749
 7252TIP3    H143247   6.572   4.087  11.093 -0.0772  0.5133  0.1486
 7252TIP3    H243248   6.529   4.224  11.044  2.8860  1.6069  0.4360
 7253TIP3   OH243249   3.733   1.935  11.137 -0.4986 -0.3125 -0.6092
 7253TIP3    H143250   3.822   1.967  11.119 -0.4466  0.6109  1.1253
 7253TIP3    H243251   3.710   1.974  11.221 -2.8838  0.1138 -1.4054
 7254TIP3   OH243252   1.376   2.081   0.701  0.4828  0.6399  0.2167
 7254TIP3    H143253   1.457   2.054   0.745 -0.1990  0.2759  1.2882
 7254TIP3    H243254   1.362   2.171   0.732 -0.4496  0.0933  1.4627
 7255TIP3   OH243255   4.044   0.586   1.048  0.2147  0.1046 -0.2539
 7255TIP3    H143256   4.074   0.500   1.020  2.1292  0.0319  1.7560
 7255TIP3    H243257   4.013   0.573   1.137 -2.4564  0.9511 -0.9893
 7256TIP3   OH243258   2.329   0.191   6.910 -0.0339  0.1472  0.3362
 7256TIP3    H143259   2.358   0.280   6.930  1.8205 -0.3754  0.2409
 7256TIP3    H243260   2.410   0.139   6.912 -0.8924 -1.3158 -0.8199
 7257TIP3   OH243261   3.240   0.512  10.908 -0.0296 -0.5676  0.0025
 7257TIP3    H143262   3.241   0.605  10.886 -0.6569 -0.1921  1.4312
 7257TIP3    H243263   3.147   0.489  10.909  0.0744 -0.9897  0.4566
 7258TIP3   OH243264   2.851   0.422  10.801  0.3751 -0.0260  0.5437
 7258TIP3    H143265   2.884   0.500  10.846  0.1651  0.4708 -0.1480
 7258TIP3    H243266   2.756   0.431  10.803  0.3419 -0.3639  0.6273
 7259TIP3   OH243267   0.545   5.895   2.793  0.0628 -0.1362 -0.0399
 7259TIP3    H143268   0.514   5.910   2.883  1.8097  0.2896  0.5368
 7259TIP3    H243269   0.584   5.978   2.767  3.1728 -1.3405  0.3667
 7260TIP3   OH243270   5.622   1.813   4.277  0.2234 -0.2905 -0.5244
 7260TIP3    H143271   5.667   1.850   4.353  0.0369 -0.9078 -0.1068
 7260TIP3    H243272   5.567   1.885   4.245  0.0985 -0.1049  0.0885
 7261TIP3   OH243273   4.944   3.390  17.003 -1.0831  0.0430 -0.0096
 7261TIP3    H143274   4.987   3.429  16.927 -1.8096 -0.3494 -0.6326
 7261TIP3    H243275   4.899   3.463  17.045 -0.2478  0.3605  0.3565
 7262TIP3   OH243276   5.484   0.420  11.374 -0.0171 -0.1315 -0.3020
 7262TIP3    H143277   5.434   0.420  11.293 -1.4183  1.6829  0.5019
 7262TIP3    H243278   5.449   0.346  11.424 -3.3297  2.0926  0.9863
 7263TIP3   OH243279   3.933   0.023   2.550 -0.1622 -0.4627 -0.2745
 7263TIP3    H143280   3.900  -0.026   2.475  0.6809  0.2800 -1.1529
 7263TIP3    H243281   3.925  -0.037   2.624 -2.7412 -0.5794 -0.5617
 7264TIP3   OH243282   2.842   0.477   3.835 -0.4645  0.3451  0.0856
 7264TIP3    H143283   2.908   0.511   3.774 -0.4565 -3.0564 -2.0797
 7264TIP3    H243284   2.761   0.478   3.785 -0.6879 -1.4683  0.3434
 7265TIP3   OH243285   2.482   5.282  14.264  0.0790  0.7410  0.3497
 7265TIP3    H143286   2.387   5.294  14.268 -0.0214  0.5546 -1.1854
 7265TIP3    H243287   2.503   5.238  14.346 -1.0505  1.4182  1.0421
 7266TIP3   OH243288   5.670   3.170  14.682  0.4414 -0.3707  0.6404
 7266TIP3    H143289   5.685   3.222  14.603 -1.1468  0.7797  1.0516
 7266TIP3    H243290   5.653   3.234  14.751 -0.1061 -1.3952  1.4919
 7267TIP3   OH243291   3.687   1.585   1.733  0.1051  0.5267  0.3293
 7267TIP3    H143292   3.740   1.519   1.689 -2.1002 -1.2063  0.0755
 7267TIP3    H243293   3.628   1.618   1.665 -1.4678 -0.1590  1.3110
 7268TIP3   OH243294   3.711   3.403   1.621 -0.3900  0.1405  0.0362
 7268TIP3    H143295   3.707   3.428   1.529 -0.1163 -0.5034 -0.1618
 7268TIP3    H243296   3.738   3.482   1.667 -0.9115  0.5685 -0.3905
 7269TIP3   OH243297   5.555   1.008  14.150  0.3316 -0.5273 -0.2518
 7269TIP3    H143298   5.540   0.948  14.077 -0.4032  0.0570 -0.5918
 7269TIP3    H243299   5.612   1.076  14.113 -1.0153  0.4190 -0.6405
 7270TIP3   OH243300   1.492   6.583   3.412  0.0702  0.2648 -0.7633
 7270TIP3    H143301   1.471   6.495   3.443 -0.5166  0.2518 -1.1868
 7270TIP3    H243302   1.520   6.630   3.490 -0.9650  0.1150 -0.2955
 7271TIP3   OH243303   5.288   3.471  15.504  0.2033 -0.0617  0.4546
 7271TIP3    H143304   5.234   3.440  15.577  0.6504 -1.5018  0.2098
 7271TIP3    H243305   5.316   3.391  15.459  0.7973  0.7509 -0.6817
 7272TIP3   OH243306   5.999   6.798  15.184  0.2758 -0.4101 -0.2395
 7272TIP3    H143307   5.962   6.792  15.272 -1.8424 -0.7539 -1.0854
 7272TIP3    H243308   6.044   6.714  15.172  0.2547 -0.5160  0.3925
 7273TIP3   OH243309   1.977   3.375  12.816  0.3654  0.3723  0.0132
 7273TIP3    H143310   2.033   3.343  12.887  0.7217  0.2642 -0.3167
 7273TIP3    H243311   1.976   3.470  12.827 -0.1588  0.3078  0.5912
 7274TIP3   OH243312   5.617   6.586  12.217  0.1498 -0.2103 -0.0018
 7274TIP3    H143313   5.586   6.547  12.135 -0.5677 -1.8647  1.0126
 7274TIP3    H243314   5.624   6.680  12.198  0.5241 -0.6167 -2.0972
 7275TIP3   OH243315   6.076   2.406  15.154  0.3255 -0.1526  0.2029
 7275TIP3    H143316   6.092   2.497  15.177  1.8459 -0.4886  0.5870
 7275TIP3    H243317   6.128   2.392  15.075  0.1254 -0.6989  0.1620
 7276TIP3   OH243318   4.914   6.354  15.285  0.2035  0.2147  0.0007
 7276TIP3    H143319   4.870   6.440  15.287 -1.6665 -0.6295  3.1597
 7276TIP3    H243320   4.846   6.293  15.258  1.6914 -0.3312 -2.8818
 7277TIP3   OH243321   2.749   6.478  14.978  0.4531 -0.1839  0.4566
 7277TIP3    H143322   2.754   6.452  14.885 -0.3083  1.7063 -0.1588
 7277TIP3    H243323   2.661   6.449  15.005  0.5918 -0.5410  0.5282
 7278TIP3   OH243324   1.112   1.769  11.704 -0.4504  0.3725  0.0538
 7278TIP3    H143325   1.185   1.823  11.734  0.5783 -0.4668 -0.8832
 7278TIP3    H243326   1.103   1.701  11.770  1.3807 -1.0791 -1.0674
 7279TIP3   OH243327   2.748   4.343  14.164 -0.1965 -0.2647 -0.2019
 7279TIP3    H143328   2.716   4.331  14.074  1.1422  2.9142 -1.2581
 7279TIP3    H243329   2.843   4.351  14.154 -0.1247  1.2124  1.3151
 7280TIP3   OH243330   0.648   5.808   1.090  0.7361 -0.1642  0.2794
 7280TIP3    H143331   0.723   5.867   1.082 -0.2506  1.2684  1.1541
 7280TIP3    H243332   0.572   5.866   1.091 -0.5993 -1.6700 -2.5161
 7281TIP3   OH243333   3.335   2.225  14.816  0.1968  0.4323 -0.0833
 7281TIP3    H143334   3.301   2.301  14.770  1.7815  0.9579 -0.4580
 7281TIP3    H243335   3.396   2.184  14.755  1.9167  0.8192  1.2706
 7282TIP3   OH243336   3.549   1.978  16.282 -0.7949 -0.0024  0.5379
 7282TIP3    H143337   3.572   1.886  16.273 -0.6239  0.0414  0.5216
 7282TIP3    H243338   3.453   1.979  16.286 -0.8637 -0.0520 -0.8766
 7283TIP3   OH243339   5.573   5.540   3.088  0.7477 -1.1937 -0.2425
 7283TIP3    H143340   5.577   5.625   3.132  1.2747 -1.2562 -0.1606
 7283TIP3    H243341   5.484   5.534   3.055  1.0369 -0.0926 -1.2863
 7284TIP3   OH243342   3.530   5.954   1.739 -0.0404 -0.8568  0.4801
 7284TIP3    H143343   3.459   6.019   1.742  0.1171 -0.6977  0.7921
 7284TIP3    H243344   3.488   5.875   1.703  0.4757  0.2999 -3.0294
 7285TIP3   OH243345   4.969   3.441  15.593 -0.4585  0.0412  0.5148
 7285TIP3    H143346   5.028   3.516  15.594  0.9451 -1.0124 -0.2845
 7285TIP3    H243347   4.999   3.388  15.520 -0.9454 -1.6833  1.5205
 7286TIP3   OH243348   5.329   6.552  11.431 -0.2733 -0.2239 -0.2807
 7286TIP3    H143349   5.423   6.539  11.418 -0.5426 -1.2484 -1.3916
 7286TIP3    H243350   5.306   6.624  11.372 -0.6168 -1.6982 -2.0519
 7287TIP3   OH243351   0.225   4.200  12.652 -0.1000 -1.0541  0.1705
 7287TIP3    H143352   0.249   4.204  12.559 -2.2272 -3.5575 -0.6055
 7287TIP3    H243353   0.150   4.259  12.660  1.3657  0.8235  0.8721
 7288TIP3   OH243354   1.511   2.892  15.988 -0.6168  0.3707 -0.0931
 7288TIP3    H143355   1.522   2.822  16.052 -3.2410  0.3916  0.5167
 7288TIP3    H243356   1.464   2.851  15.915 -0.9481  1.1680 -0.3400
 7289TIP3   OH243357   3.001   1.846   6.252  0.6750  0.5173 -0.2014
 7289TIP3    H143358   2.915   1.883   6.270  0.3786 -0.6783  0.9899
 7289TIP3    H243359   3.045   1.913   6.199 -1.6455  0.3233 -2.6010
 7290TIP3   OH243360   3.805   3.230  16.638  0.2006 -0.0351  1.0069
 7290TIP3    H143361   3.710   3.229  16.633  0.0748 -2.8393  2.0591
 7290TIP3    H243362   3.828   3.143  16.670  3.2395 -0.1997 -1.1326
 7291TIP3   OH243363   2.321   2.782   0.726  0.4465  0.0150 -0.4335
 7291TIP3    H143364   2.249   2.786   0.663 -0.4468  0.7670  0.6035
 7291TIP3    H243365   2.279   2.760   0.809  1.2878  1.4000  0.3845
 7292TIP3   OH243366   4.482   0.671  11.308  0.0501  0.2487 -0.6041
 7292TIP3    H143367   4.476   0.722  11.228 -1.0097  0.3929 -0.4509
 7292TIP3    H243368   4.428   0.594  11.292 -1.9702  1.2911  0.6749
 7293TIP3   OH243369   1.310   3.881   1.013 -0.0238 -0.5891 -0.5475
 7293TIP3    H143370   1.397   3.857   1.046  0.9824  3.2178 -0.0099
 7293TIP3    H243371   1.252   3.870   1.088  0.1726 -1.9437 -0.5578
 7294TIP3   OH243372   4.196   0.439   5.508 -0.0304  0.4756 -0.1073
 7294TIP3    H143373   4.130   0.385   5.464 -0.5214  1.8491 -1.1410
 7294TIP3    H243374   4.161   0.454   5.595 -0.7253  0.5581 -0.3954
 7295TIP3   OH243375   0.482   0.312   1.353  0.0097 -0.1160  1.0196
 7295TIP3    H143376   0.435   0.234   1.382  0.8603 -0.0935  2.5396
 7295TIP3    H243377   0.574   0.293   1.372  0.4221  0.5612 -0.2349
 7296TIP3   OH243378   3.092   3.245  11.452 -0.2428  0.7466  0.1046
 7296TIP3    H143379   3.113   3.328  11.408 -3.4576  2.6590  1.8169
 7296TIP3    H243380   3.164   3.232  11.514  0.5190  2.0793 -0.4506
 7297TIP3   OH243381   1.683   2.336   0.928 -0.0085  0.4563  0.1300
 7297TIP3    H143382   1.631   2.286   0.991 -0.7175  2.7433  1.4359
 7297TIP3    H243383   1.661   2.297   0.843  0.1373 -1.9768  1.1159
 7298TIP3   OH243384   2.374   3.016  11.210  0.2752 -0.4307  0.4063
 7298TIP3    H143385   2.302   3.025  11.273  0.3698 -0.3750  0.5071
 7298TIP3    H243386   2.431   2.949  11.249  0.5846 -0.0445  0.6156
 7299TIP3   OH243387   5.296   0.914   4.174  0.1464 -0.2122  0.3128
 7299TIP3    H143388   5.375   0.859   4.181  1.8675  2.3033  2.6881
 7299TIP3    H243389   5.228   0.864   4.220  1.3745 -0.8260  1.5328
 7300TIP3   OH243390   0.600   2.651  12.802 -0.6883 -0.3204 -0.1409
 7300TIP3    H143391   0.587   2.743  12.776 -0.8781 -0.7717 -1.7700
 7300TIP3    H243392   0.527   2.633  12.861 -0.0117  0.8884  1.1233
 7301TIP3   OH243393   4.770   4.871   5.345 -0.1573  0.1113 -0.3807
 7301TIP3    H143394   4.752   4.831   5.430  1.7009 -0.1222 -0.0616
 7301TIP3    H243395   4.706   4.832   5.285 -0.2177 -1.1859  0.5123
 7302TIP3   OH243396   5.694   2.238  12.881  0.0008 -0.1098 -0.1870
 7302TIP3    H143397   5.679   2.332  12.890  1.7150  0.1648  0.2090
 7302TIP3    H243398   5.640   2.198  12.949 -0.2893  0.6456  0.0336
 7303TIP3   OH243399   5.695   3.740  13.211 -0.3610  0.0193  0.3541
 7303TIP3    H143400   5.773   3.744  13.266 -0.4983  1.1188  0.4962
 7303TIP3    H243401   5.729   3.748  13.122 -0.1789 -1.3047  0.2768
 7304TIP3   OH243402   2.475   4.323  11.766 -0.0539  0.4235  0.4857
 7304TIP3    H143403   2.420   4.255  11.727  0.8413 -1.4589  2.3064
 7304TIP3    H243404   2.424   4.353  11.842 -0.1755  1.3972  0.0356
 7305TIP3   OH243405   2.809   4.444  12.974  0.1941  0.0278 -0.3634
 7305TIP3    H143406   2.835   4.535  12.968  0.7158 -0.2063 -2.2442
 7305TIP3    H243407   2.717   4.444  12.946 -0.2443  0.1359  1.0069
 7306TIP3   OH243408   6.318   6.217  16.640 -0.2249 -0.5332  0.4330
 7306TIP3    H143409   6.258   6.196  16.711  1.9559  0.0105  2.5958
 7306TIP3    H243410   6.371   6.138  16.628 -0.0616 -0.3619 -0.0390
 7307TIP3   OH243411   3.263   0.681   2.909 -0.1926 -0.1404  0.3810
 7307TIP3    H143412   3.298   0.668   2.821 -1.7743 -0.5426 -0.2197
 7307TIP3    H243413   3.181   0.729   2.896 -0.6887 -0.6154  1.5825
 7308TIP3   OH243414   4.023   2.380  13.238  0.3526 -0.1982  0.3025
 7308TIP3    H143415   4.044   2.304  13.184  0.7241 -0.5058  0.8559
 7308TIP3    H243416   3.944   2.355  13.286 -1.5643  1.0728 -1.9968
 7309TIP3   OH243417   0.985   1.206   2.161  0.1243 -0.3369  0.1446
 7309TIP3    H143418   0.972   1.299   2.147  0.5324 -0.2296  0.4381
 7309TIP3    H243419   1.059   1.201   2.222  1.6413 -0.8772 -1.6056
 7310TIP3   OH243420   5.446   3.080   5.280  0.1673 -0.2653 -0.3422
 7310TIP3    H143421   5.409   3.167   5.265  3.4333  1.2150 -0.5249
 7310TIP3    H243422   5.369   3.022   5.284 -2.1572  2.6282  0.2826
 7311TIP3   OH243423   3.949   1.237   4.618 -0.2160 -0.5017  0.3085
 7311TIP3    H143424   3.877   1.295   4.643  2.2788  2.9545  0.2185
 7311TIP3    H243425   3.969   1.261   4.528  0.0346 -2.6145 -0.2513
 7312TIP3   OH243426   5.285   3.809   4.503 -0.2277 -0.4769 -0.0226
 7312TIP3    H143427   5.367   3.828   4.458 -1.3461 -1.5258 -2.7963
 7312TIP3    H243428   5.299   3.723   4.542  0.1814 -0.4099 -0.0183
 7313TIP3   OH243429   1.594   5.779  13.287 -0.1245 -0.2995  0.0382
 7313TIP3    H143430   1.668   5.781  13.226  0.9529  2.3257  1.2707
 7313TIP3    H243431   1.631   5.744  13.368 -0.5596 -0.2009  0.2816
 7314TIP3   OH243432   6.591   0.601  15.206  0.0256 -0.0911  0.3086
 7314TIP3    H143433   6.513   0.656  15.211  1.8914  2.7385  0.8729
 7314TIP3    H243434   6.558   0.511  15.204 -3.2355  0.9921 -0.5850
 7315TIP3   OH243435   2.487   2.701   6.311  0.2447  0.3163  0.0156
 7315TIP3    H143436   2.533   2.620   6.290 -1.6642 -1.0153  0.7521
 7315TIP3    H243437   2.396   2.684   6.287 -0.3163  2.0147  0.7915
 7316TIP3   OH243438   5.851   3.453  11.170  0.2455 -0.1574  0.0811
 7316TIP3    H143439   5.838   3.537  11.126  1.3407 -0.6086 -1.1776
 7316TIP3    H243440   5.808   3.389  11.112  1.6098 -0.7498 -0.3277
 7317TIP3   OH243441   6.461   3.624   2.262 -0.4366 -0.0318  0.4424
 7317TIP3    H143442   6.384   3.622   2.206  0.1247  0.3360 -0.3718
 7317TIP3    H243443   6.533   3.598   2.204  0.1080  0.0299  1.0795
 7318TIP3   OH243444   4.612   2.282  12.048  0.8220  0.1187 -0.0182
 7318TIP3    H143445   4.647   2.289  12.136  0.6846  0.3084  0.0211
 7318TIP3    H243446   4.581   2.191  12.042  1.3619 -0.0632 -0.0732
 7319TIP3   OH243447   4.355   3.785  14.410  0.2665  0.5426 -0.2749
 7319TIP3    H143448   4.267   3.794  14.373 -0.3954 -1.8813  0.5305
 7319TIP3    H243449   4.414   3.800  14.335 -0.7638  2.6316 -0.7327
 7320TIP3   OH243450   1.671   2.898   3.682 -0.4161 -0.0283  0.1425
 7320TIP3    H143451   1.623   2.849   3.749 -0.3647 -0.8938 -0.4260
 7320TIP3    H243452   1.761   2.866   3.689 -0.5632 -0.7217 -0.8350
 7321TIP3   OH243453   2.148   4.366   6.510  0.0650 -0.6390 -0.4746
 7321TIP3    H143454   2.189   4.283   6.535  1.5570  0.2462  0.1915
 7321TIP3    H243455   2.156   4.421   6.588 -1.6134 -0.1117 -0.6511
 7322TIP3   OH243456   5.096   3.675   5.224 -0.3068  0.1585  0.3401
 7322TIP3    H143457   5.144   3.598   5.256 -0.8262 -0.5748 -0.5759
 7322TIP3    H243458   5.118   3.680   5.132 -3.5763 -1.5593 -0.7189
 7323TIP3   OH243459   4.557   1.051   5.256 -0.2200 -0.1165  0.4993
 7323TIP3    H143460   4.576   1.120   5.320  1.0523  0.2377 -0.2218
 7323TIP3    H243461   4.517   1.097   5.182  0.0010 -0.2608  0.2909
 7324TIP3   OH243462   1.053   5.958   0.369  0.0606  0.4183  0.0390
 7324TIP3    H143463   1.049   5.967   0.274  0.9642  1.0752  0.0577
 7324TIP3    H243464   1.145   5.970   0.391 -0.2098  0.7266  1.0486
 7325TIP3   OH243465   4.314   0.265   4.567 -0.0939 -0.6481  0.0481
 7325TIP3    H143466   4.302   0.346   4.516 -0.6140 -0.3321  0.6485
 7325TIP3    H243467   4.251   0.204   4.529  0.1162 -0.6892 -0.2375
 7326TIP3   OH243468   2.828   4.630  13.840  0.4333  0.3469  0.4662
 7326TIP3    H143469   2.831   4.725  13.852  0.1299  0.6047 -1.1888
 7326TIP3    H243470   2.903   4.597  13.890  0.3372  1.4205  1.3398
 7327TIP3   OH243471   4.700   3.588  15.232  0.0609  0.3220 -0.6908
 7327TIP3    H143472   4.617   3.627  15.205  0.2624  0.6969 -0.7810
 7327TIP3    H243473   4.752   3.584  15.152 -0.0713 -0.4273 -0.7420
 7328TIP3   OH243474   6.475   5.232  14.349  0.0927 -0.0569  0.5362
 7328TIP3    H143475   6.506   5.167  14.412  2.0196  2.4634  2.4192
 7328TIP3    H243476   6.380   5.233  14.362  0.0249 -2.1968  0.6467
 7329TIP3   OH243477   2.735   5.823   3.399 -0.2326 -0.2565 -0.0180
 7329TIP3    H143478   2.649   5.781   3.395 -0.8667  0.9844 -0.1296
 7329TIP3    H243479   2.796   5.753   3.421 -1.4109 -0.9806  1.0299
 7330TIP3   OH243480   0.302   5.122  17.245  0.3006  0.2944 -0.3549
 7330TIP3    H143481   0.298   5.099  17.338 -0.4953  1.1759 -0.1504
 7330TIP3    H243482   0.242   5.062  17.203  0.3714  0.1443 -0.2435
 7331TIP3   OH243483   0.885   1.285  13.157  0.3381  0.6121  0.3279
 7331TIP3    H143484   0.957   1.288  13.220  0.4899 -3.1525  0.5819
 7331TIP3    H243485   0.916   1.335  13.082  2.7710  0.1006  0.9006
 7332TIP3   OH243486   0.188   1.274  15.729  0.5270 -0.1943 -0.6043
 7332TIP3    H143487   0.195   1.345  15.792 -0.3338  0.1667 -0.9031
 7332TIP3    H243488   0.200   1.194  15.781 -1.6140  0.0137  0.3174
 7333TIP3   OH243489   0.016   6.380  16.899  0.0429 -0.2480  0.4571
 7333TIP3    H143490   0.111   6.373  16.910  0.0935  0.4284  0.5301
 7333TIP3    H243491   0.002   6.472  16.877 -0.5193 -0.5383 -0.4318
 7334TIP3   OH243492   4.192   2.953   3.645  0.2581 -0.0002 -0.1884
 7334TIP3    H143493   4.283   2.928   3.661  0.7317  1.3388 -0.6869
 7334TIP3    H243494   4.172   3.017   3.713 -0.8832 -1.4695  0.9492
 7335TIP3   OH243495   0.199   1.738  15.072 -0.0242 -0.0899 -0.0288
 7335TIP3    H143496   0.288   1.738  15.036 -0.1614 -2.6556 -0.5612
 7335TIP3    H243497   0.210   1.763  15.163  1.0638  0.8643 -0.3946
 7336TIP3   OH243498   5.479   4.273  14.303 -0.4576  0.3715  0.3784
 7336TIP3    H143499   5.411   4.307  14.245  0.1341 -0.0599 -0.5826
 7336TIP3    H243500   5.540   4.228  14.245 -0.2519 -0.7318  1.4210
 7337TIP3   OH243501   5.767   0.709   1.484 -0.2255 -0.6752 -0.0033
 7337TIP3    H143502   5.714   0.636   1.516 -0.2389 -0.8739 -0.4659
 7337TIP3    H243503   5.712   0.786   1.499 -1.4384 -1.0495 -2.0758
 7338TIP3   OH243504   6.264   6.528   4.160 -0.6967  0.2867 -0.0484
 7338TIP3    H143505   6.353   6.506   4.187  0.0298  0.0429 -2.3905
 7338TIP3    H243506   6.261   6.624   4.164 -0.1852  0.3195 -0.3124
 7339TIP3   OH243507   6.657   0.035  11.493  0.5769  0.8157 -0.3996
 7339TIP3    H143508   6.619   0.091  11.425  0.3898  0.5207 -0.5388
 7339TIP3    H243509   6.642   0.083  11.574 -0.5295  0.4831 -0.3937
 7340TIP3   OH243510   6.504   1.591   4.262 -0.2488  0.0855 -0.1126
 7340TIP3    H143511   6.436   1.563   4.323 -1.5860  1.8988 -0.6682
 7340TIP3    H243512   6.457   1.644   4.197  1.6512  1.1461 -0.6968
 7341TIP3   OH243513   2.676   5.331  11.710 -0.0717  0.0302 -0.3712
 7341TIP3    H143514   2.717   5.380  11.638 -0.1134  1.1893  0.3620
 7341TIP3    H243515   2.703   5.241  11.696 -1.9005 -0.2044 -3.1062
 7342TIP3   OH243516   0.551   6.535  12.536 -0.3320  0.1690  0.0092
 7342TIP3    H143517   0.589   6.521  12.622 -1.3040  0.1979  0.4523
 7342TIP3    H243518   0.458   6.551  12.552 -0.7445 -0.8988 -1.1108
 7343TIP3   OH243519   4.552   5.817   1.742 -0.4414 -0.1922  0.3011
 7343TIP3    H143520   4.618   5.873   1.699 -1.0636  0.1433 -0.2324
 7343TIP3    H243521   4.599   5.736   1.759  0.1506  0.0774  0.0253
 7344TIP3   OH243522   4.009   1.222   3.902 -0.0285  0.1491 -0.2170
 7344TIP3    H143523   4.038   1.144   3.854  0.2947  0.7351 -0.9850
 7344TIP3    H243524   4.080   1.284   3.892 -1.0858  1.2357 -1.2340
 7345TIP3   OH243525   3.699   1.544  13.284 -0.2554  0.1177 -0.3087
 7345TIP3    H143526   3.676   1.565  13.194  1.5063  0.1639 -0.7924
 7345TIP3    H243527   3.747   1.461  13.278  0.5718  0.5151  0.4566
 7346TIP3   OH243528   6.107   3.497   5.222  0.0191 -0.0912 -0.0910
 7346TIP3    H143529   6.167   3.446   5.167 -0.4671 -0.6805 -0.0714
 7346TIP3    H243530   6.038   3.436   5.247 -0.3139  0.4469  0.3302
 7347TIP3   OH243531   5.492   3.618  12.538 -0.0773  0.5697  0.9140
 7347TIP3    H143532   5.490   3.705  12.577 -2.0650 -0.0425  2.3806
 7347TIP3    H243533   5.408   3.609  12.494  0.1944 -0.5217  0.5752
 7348TIP3   OH243534   0.911   6.296  11.741 -0.1439 -0.0821 -0.4039
 7348TIP3    H143535   0.891   6.389  11.751  0.3901  0.3043 -2.5372
 7348TIP3    H243536   0.853   6.252  11.804 -2.3608  1.4905 -1.2261
 7349TIP3   OH243537   5.268   5.354   5.177  0.1802 -0.3404  0.1515
 7349TIP3    H143538   5.281   5.446   5.198 -2.3878  0.0582  0.2862
 7349TIP3    H243539   5.258   5.311   5.262  1.2071 -0.7553  0.0815
 7350TIP3   OH243540   4.746   2.252   3.012  0.5727  0.3930 -0.3421
 7350TIP3    H143541   4.727   2.160   2.992  0.6190  0.5809 -1.2743
 7350TIP3    H243542   4.827   2.249   3.063 -0.1512 -0.1742  0.8265
 7351TIP3   OH243543   1.624   3.961   2.733  0.5554  0.2783  0.6726
 7351TIP3    H143544   1.713   3.988   2.755  1.0463 -2.1518  2.1136
 7351TIP3    H243545   1.611   3.880   2.784 -1.9719 -0.1870 -0.5741
 7352TIP3   OH243546   1.620   1.701  12.759  0.5476  0.0686 -0.3034
 7352TIP3    H143547   1.683   1.723  12.828 -1.0177 -0.5276  1.3692
 7352TIP3    H243548   1.648   1.754  12.684  2.5150  0.4663  0.6421
 7353TIP3   OH243549   6.386   2.893   5.885  0.2306 -0.1197 -0.4524
 7353TIP3    H143550   6.390   2.977   5.930  0.8127  0.0594 -0.8328
 7353TIP3    H243551   6.339   2.836   5.946  0.1547  0.3785 -0.0349
 7354TIP3   OH243552   5.633   2.995   2.273 -0.4328 -0.3052 -0.0260
 7354TIP3    H143553   5.695   3.016   2.202  1.7224  1.3687  2.1843
 7354TIP3    H243554   5.587   3.078   2.289 -2.3705 -1.1777 -0.6851
 7355TIP3   OH243555   5.945   2.179   1.780 -0.3315  0.0480  0.3917
 7355TIP3    H143556   5.887   2.118   1.735 -0.3313 -1.6558  2.5528
 7355TIP3    H243557   5.963   2.247   1.715  1.2258 -3.1617 -2.8537
 7356TIP3   OH243558   2.027   3.117   1.151  0.4967 -0.3133  0.4432
 7356TIP3    H143559   2.071   3.185   1.203  1.6875  0.1642 -1.1081
 7356TIP3    H243560   1.944   3.102   1.197  0.4734  1.7320  1.1939
 7357TIP3   OH243561   2.580   0.401   0.645  0.1715  0.0608  0.6061
 7357TIP3    H143562   2.545   0.418   0.557 -0.2940  2.1951  1.1474
 7357TIP3    H243563   2.673   0.382   0.631 -0.0107 -0.1316 -0.3895
 7358TIP3   OH243564   1.421   6.358  16.958 -0.2447  0.6375 -0.2870
 7358TIP3    H143565   1.345   6.306  16.930 -1.0931  2.1056 -0.8382
 7358TIP3    H243566   1.464   6.383  16.877  0.0600  0.9336 -0.0362
 7359TIP3   OH243567   4.517   2.997  12.695  0.3693  0.1287 -0.4501
 7359TIP3    H143568   4.492   3.077  12.741 -1.1188 -1.1635  1.1012
 7359TIP3    H243569   4.613   2.994  12.704  0.4954  1.8693 -0.8224
 7360TIP3   OH243570   6.814   5.130   0.855  0.7964  0.4253  0.0411
 7360TIP3    H143571   6.869   5.142   0.932  0.3460 -0.3542  0.4945
 7360TIP3    H243572   6.843   5.198   0.794  0.6978  1.4969  1.1478
 7361TIP3   OH243573   1.707   3.270   1.116  0.1648  0.2250 -0.4400
 7361TIP3    H143574   1.799   3.296   1.110  0.7461 -1.3524  0.9147
 7361TIP3    H243575   1.674   3.274   1.026  1.7818 -0.0003 -1.0687
 7362TIP3   OH243576   6.044   1.967  15.250  0.0911 -0.4370  0.2022
 7362TIP3    H143577   6.137   1.975  15.228 -0.1484 -0.5574 -0.8986
 7362TIP3    H243578   6.024   2.049  15.296  0.3933  0.2615 -0.8739
 7363TIP3   OH243579   2.874   4.748   3.540 -0.0845 -0.0641  0.2454
 7363TIP3    H143580   2.802   4.699   3.500 -0.1492  0.3793 -0.1816
 7363TIP3    H243581   2.833   4.798   3.611 -0.3839  0.9484 -0.6140
 7364TIP3   OH243582   4.540   3.263   4.875 -0.2665 -0.4330  0.5444
 7364TIP3    H143583   4.575   3.232   4.958 -0.0584 -2.2411 -0.1854
 7364TIP3    H243584   4.614   3.264   4.815 -0.0400  2.4880  0.7372
 7365TIP3   OH243585   3.674   2.205  17.184 -0.4439  0.4640 -0.3560
 7365TIP3    H143586   3.758   2.189  17.140 -1.1729 -1.0322 -1.2756
 7365TIP3    H243587   3.649   2.120  17.219 -1.5514  0.9156 -0.0246
 7366TIP3   OH243588   1.853   4.112   4.437 -0.5540 -0.4355  0.1521
 7366TIP3    H143589   1.836   4.191   4.386  0.9532  0.1121  0.4203
 7366TIP3    H243590   1.915   4.062   4.383 -2.4557 -2.0964 -0.6052
 7367TIP3   OH243591   6.031   1.961  13.602 -0.2266  0.1898 -0.6407
 7367TIP3    H143592   6.081   2.039  13.624 -1.1869  0.3680  1.0680
 7367TIP3    H243593   5.991   1.981  13.517 -0.3696  1.5214 -0.2778
 7368TIP3   OH243594   4.227   5.141   1.929 -0.4459  0.3138  0.1296
 7368TIP3    H143595   4.201   5.071   1.989  0.3821 -0.1628 -0.0580
 7368TIP3    H243596   4.225   5.220   1.983  0.0224 -0.0709  0.7270
 7369TIP3   OH243597   6.790   1.894  16.918 -0.0012 -0.0128  0.1118
 7369TIP3    H143598   6.726   1.824  16.914 -0.9895  0.7342  2.0402
 7369TIP3    H243599   6.862   1.858  16.970 -0.2708  0.2281  0.6493
 7370TIP3   OH243600   0.516   5.861   1.409 -0.3113  0.1201  0.5200
 7370TIP3    H143601   0.456   5.795   1.443 -0.0425  0.5862  1.9535
 7370TIP3    H243602   0.461   5.920   1.358 -0.9532  0.1553  1.2415
 7371TIP3   OH243603   1.077   6.232   0.795 -0.6933  0.0138  0.3757
 7371TIP3    H143604   1.119   6.177   0.860 -0.6003 -0.3730 -0.0088
 7371TIP3    H243605   1.004   6.179   0.762  0.7406 -0.8210 -1.6329
 7372TIP3   OH243606   5.888   1.505  11.321  0.2795  0.0645 -0.1378
 7372TIP3    H143607   5.864   1.563  11.249  0.1785  1.0320  0.6466
 7372TIP3    H243608   5.965   1.458  11.289 -1.1712 -1.3514 -1.7873
 7373TIP3   OH243609   3.724   1.769   1.207 -0.5013 -0.6402  0.5796
 7373TIP3    H143610   3.726   1.705   1.278  0.1925  0.1176  1.2582
 7373TIP3    H243611   3.796   1.828   1.226 -1.0693  0.2902 -0.0958
 7374TIP3   OH243612   2.467   0.731  12.054 -0.3084 -0.8305 -0.3103
 7374TIP3    H143613   2.415   0.652  12.037  1.0631 -1.7016 -0.5695
 7374TIP3    H243614   2.407   0.803  12.033 -1.7114 -1.7657  0.2870
 7375TIP3   OH243615   4.215   3.391   1.714 -0.3995 -0.0645 -0.1294
 7375TIP3    H143616   4.258   3.420   1.795 -2.4613  0.7654  0.7322
 7375TIP3    H243617   4.280   3.335   1.671  1.8766  1.8536  0.6060
 7376TIP3   OH243618   1.882   3.296   1.656 -0.3281 -0.0918  0.0185
 7376TIP3    H143619   1.892   3.218   1.601 -1.0869 -0.9927  1.1254
 7376TIP3    H243620   1.833   3.266   1.732  0.2138  1.2609  0.9352
 7377TIP3   OH243621   5.490   6.759   3.966  0.2447  0.0263 -0.2126
 7377TIP3    H143622   5.411   6.804   3.994  0.3567  0.9884 -1.3619
 7377TIP3    H243623   5.542   6.826   3.922  1.2742 -0.8072 -0.3208
 7378TIP3   OH243624   4.061   2.055   3.054  0.6314  0.2887  0.4339
 7378TIP3    H143625   4.027   1.981   3.104 -0.7199  1.4349  1.2903
 7378TIP3    H243626   4.155   2.053   3.070  0.7328 -1.6473 -0.1538
 7379TIP3   OH243627   5.128   4.747  11.845  0.2496 -0.3709  0.1911
 7379TIP3    H143628   5.097   4.727  11.756  0.2932  0.2622  0.0264
 7379TIP3    H243629   5.092   4.834  11.863  0.6622 -0.2844  0.5982
 7380TIP3   OH243630   6.299   3.156   4.332 -0.3157  0.1471 -0.2751
 7380TIP3    H143631   6.389   3.137   4.358 -0.2005  2.7384  1.5089
 7380TIP3    H243632   6.246   3.109   4.396 -0.2351 -0.1273 -0.4035
 7381TIP3   OH243633   5.638   2.341   3.275  0.3532  0.0681 -0.2630
 7381TIP3    H143634   5.593   2.318   3.356  0.0397 -0.3892 -0.5552
 7381TIP3    H243635   5.596   2.422   3.246  1.1148  0.7499  0.5157
 7382TIP3   OH243636   6.540   3.023  13.854 -0.2087  0.2606 -0.1858
 7382TIP3    H143637   6.619   2.988  13.814  0.3686  3.6489 -2.4452
 7382TIP3    H243638   6.572   3.088  13.917 -1.1169  1.1061 -0.5555
 7383TIP3   OH243639   0.169   2.832   0.937 -0.5923 -0.4249  0.1825
 7383TIP3    H143640   0.208   2.878   1.012  0.7859  2.2842 -2.0229
 7383TIP3    H243641   0.093   2.886   0.913  0.3564  0.1223 -1.7453
 7384TIP3   OH243642   1.165   6.792  17.165 -0.0852  0.1025  0.9132
 7384TIP3    H143643   1.151   6.759  17.254  0.5695  0.7282  1.2593
 7384TIP3    H243644   1.224   6.866  17.176  2.1198 -1.3700 -0.3014
 7385TIP3   OH243645   0.419   6.450   0.823 -0.1530  0.2547  0.5229
 7385TIP3    H143646   0.479   6.516   0.859  0.9568 -0.9450  0.9662
 7385TIP3    H243647   0.336   6.466   0.868 -0.1840  1.8940 -0.0312
 7386TIP3   OH243648   5.557   4.574   3.952  0.0482 -0.2810 -0.3633
 7386TIP3    H143649   5.602   4.575   3.867 -0.3318 -0.4007 -0.5695
 7386TIP3    H243650   5.495   4.646   3.946  0.3169 -0.0175 -0.0187
 7387TIP3   OH243651   6.445   4.227  13.102  0.9042 -0.2309 -0.4749
 7387TIP3    H143652   6.411   4.310  13.136 -1.1857 -1.1256 -0.2006
 7387TIP3    H243653   6.371   4.188  13.057  1.8973 -1.8744 -0.7497
 7388TIP3   OH243654   1.105   2.589  15.016  0.0734 -0.4666 -0.3391
 7388TIP3    H143655   1.136   2.537  14.941  0.4201  0.1767 -0.6556
 7388TIP3    H243656   1.184   2.602  15.069 -0.0969 -0.6127 -0.0541
 7389TIP3   OH243657   4.720   5.856  15.842 -0.3925  0.1475  0.6128
 7389TIP3    H143658   4.781   5.925  15.869  0.2566  0.2054 -0.8663
 7389TIP3    H243659   4.653   5.902  15.791  0.2310 -0.3093 -0.6789
 7390TIP3   OH243660   2.159   6.625   0.349  0.0185 -0.3984  0.1288
 7390TIP3    H143661   2.073   6.583   0.342  0.6875 -1.8096 -0.0911
 7390TIP3    H243662   2.203   6.604   0.266  1.1181 -1.0222  0.8437
 7391TIP3   OH243663   2.773   3.615  12.947  0.6196 -0.2267  0.4196
 7391TIP3    H143664   2.822   3.625  12.866 -0.3592  0.6189 -0.0938
 7391TIP3    H243665   2.816   3.675  13.008  1.3866 -0.8985  0.5538
 7392TIP3   OH243666   2.596   5.063   2.236 -0.9513  0.3215 -0.1437
 7392TIP3    H143667   2.606   4.981   2.189  2.8363  1.4490 -1.6708
 7392TIP3    H243668   2.561   5.124   2.170 -0.4109  0.7387 -0.0505
 7393TIP3   OH243669   2.625   3.719   2.646 -0.0601  0.0572  0.0588
 7393TIP3    H143670   2.682   3.648   2.677 -0.2755  0.1113  0.5888
 7393TIP3    H243671   2.580   3.682   2.571 -1.5886 -1.0409  1.4653
 7394TIP3   OH243672   1.458   0.142   2.122  0.2166  0.4142 -0.5771
 7394TIP3    H143673   1.418   0.099   2.047  1.5013 -0.3044 -0.8914
 7394TIP3    H243674   1.552   0.129   2.109  0.4891  0.8167  0.8354
 7395TIP3   OH243675   6.111   5.073   2.418 -0.2585  0.8980 -0.3999
 7395TIP3    H143676   6.168   5.150   2.420  0.2342  0.5340 -0.1020
 7395TIP3    H243677   6.062   5.081   2.337  1.4984  0.3164 -1.5971
 7396TIP3   OH243678   2.823   3.492  14.703 -0.7528  0.2431  0.5929
 7396TIP3    H143679   2.839   3.399  14.712  2.5716  0.7086  0.7403
 7396TIP3    H243680   2.842   3.529  14.789  0.1326  1.2509 -0.0038
 7397TIP3   OH243681   1.830   2.383  16.873  0.4939 -0.0753 -0.0932
 7397TIP3    H143682   1.813   2.413  16.962  1.6894 -0.2673  0.2158
 7397TIP3    H243683   1.835   2.463  16.820  1.8999  0.1741  0.4033
 7398TIP3   OH243684   3.931   5.300  15.036 -0.1078 -0.0796  0.2664
 7398TIP3    H143685   3.843   5.289  15.071 -1.8840  0.1520 -3.5946
 7398TIP3    H243686   3.927   5.382  14.986  2.3504 -0.0445 -0.0337
 7399TIP3   OH243687   5.863   3.031  16.100 -0.3478  0.5912 -0.1237
 7399TIP3    H143688   5.894   2.984  16.177 -0.3300  2.6870  1.2105
 7399TIP3    H243689   5.933   3.094  16.080 -0.5429  0.3840 -1.6085
 7400TIP3   OH243690   5.940   4.366   3.774  0.2997  0.3479 -0.0992
 7400TIP3    H143691   5.960   4.335   3.685  0.6397  2.4724 -0.8127
 7400TIP3    H243692   5.944   4.461   3.768 -1.1041  0.5990  1.8807
 7401TIP3   OH243693   0.331   4.096  13.538  0.0360 -0.6511  0.0623
 7401TIP3    H143694   0.311   4.034  13.468  0.5423  0.5707 -1.1988
 7401TIP3    H243695   0.406   4.059  13.583 -0.4617 -1.5822  0.1500
 7402TIP3   OH243696   6.576   1.366  14.629  0.2596 -0.1074 -0.2751
 7402TIP3    H143697   6.660   1.324  14.643  1.3629  1.1799 -2.4278
 7402TIP3    H243698   6.582   1.449  14.676  0.7624  0.5649 -1.4702
 7403TIP3   OH243699   1.937   4.629  10.732 -0.0232  0.4814 -0.5776
 7403TIP3    H143700   1.876   4.609  10.661  1.4690  0.3635 -1.8646
 7403TIP3    H243701   1.957   4.544  10.771  0.0768  0.4109 -0.7849
 7404TIP3   OH243702   2.223   4.167  11.957  0.2000  0.2351 -0.6422
 7404TIP3    H143703   2.238   4.074  11.974 -0.0122  0.2707 -0.2570
 7404TIP3    H243704   2.179   4.169  11.871  1.6841  0.0858 -1.4444
 7405TIP3   OH243705   6.467   3.407   3.033  0.5690  0.1656 -0.1182
 7405TIP3    H143706   6.461   3.407   3.128  1.4219  0.1452 -0.0592
 7405TIP3    H243707   6.432   3.321   3.007 -2.4743  1.2563 -0.0585
 7406TIP3   OH243708   5.114   3.712  15.622  0.0053 -0.0974 -0.6137
 7406TIP3    H143709   5.089   3.767  15.548 -2.2271  1.7671  1.3767
 7406TIP3    H243710   5.182   3.763  15.667 -0.5825  0.0762  0.0889
 7407TIP3   OH243711   5.916   1.477  13.207  0.3060  0.6569 -0.6860
 7407TIP3    H143712   5.956   1.459  13.292  1.1202 -0.4508 -1.2765
 7407TIP3    H243713   5.920   1.573  13.199  1.0030  0.7086  0.1478
 7408TIP3   OH243714   6.634   4.496   5.595 -0.4162 -0.4410  0.1618
 7408TIP3    H143715   6.612   4.568   5.654  1.0929 -0.0883  0.3238
 7408TIP3    H243716   6.616   4.531   5.507  2.4577  1.0755  0.0329
 7409TIP3   OH243717   3.649   5.452   3.199 -0.6737  0.2548  0.4556
 7409TIP3    H143718   3.582   5.407   3.147 -0.3731  1.0622 -0.6861
 7409TIP3    H243719   3.694   5.382   3.247  0.2067 -0.7890 -1.7471
 7410TIP3   OH243720   2.177   5.490   2.634 -0.5993 -0.6184 -0.8257
 7410TIP3    H143721   2.226   5.477   2.552  3.1790  1.3345  0.8682
 7410TIP3    H243722   2.182   5.406   2.679 -0.4324 -0.9758 -1.4968
 7411TIP3   OH243723   2.621   6.091   3.917 -0.1329  0.3075  0.0966
 7411TIP3    H143724   2.571   6.124   3.992  0.8753 -0.9048  1.3519
 7411TIP3    H243725   2.667   6.014   3.951 -1.1967 -1.5100 -2.2832
 7412TIP3   OH243726   4.986   4.721   2.187 -0.9797  0.5411  0.2570
 7412TIP3    H143727   5.054   4.668   2.145 -0.0167  1.1069  1.0381
 7412TIP3    H243728   4.915   4.660   2.205 -0.2010 -0.3273  0.4625
 7413TIP3   OH243729   4.133   5.675   3.293 -0.6423  0.1293  0.7691
 7413TIP3    H143730   4.053   5.666   3.346 -2.6470  1.4807 -1.7581
 7413TIP3    H243731   4.192   5.727   3.348 -0.8810 -2.0181  3.2540
 7414TIP3   OH243732   0.342   6.538   4.850 -0.3948 -0.0585 -0.3128
 7414TIP3    H143733   0.376   6.449   4.855 -2.3465 -0.7625  2.0152
 7414TIP3    H243734   0.418   6.594   4.866  0.1202 -1.5077  3.0112
 7415TIP3   OH243735   6.313   6.558   5.790 -0.3071  0.2264  0.4070
 7415TIP3    H143736   6.283   6.615   5.861 -2.1777  0.2919 -0.3884
 7415TIP3    H243737   6.260   6.583   5.715 -1.4225 -2.7047  0.0731
 7416TIP3   OH243738   1.038   5.363   3.762  0.4965  0.5292  0.3766
 7416TIP3    H143739   1.111   5.369   3.823  0.4603 -0.2117  0.5036
 7416TIP3    H243740   0.987   5.289   3.793  0.4734  0.1401 -0.5383
 7417TIP3   OH243741   3.111   4.047   1.510 -0.4520 -0.3786 -0.5914
 7417TIP3    H143742   3.196   4.067   1.471 -0.8282  0.2607 -1.1141
 7417TIP3    H243743   3.067   4.132   1.514 -0.6622 -0.5339  0.6682
 7418TIP3   OH243744   2.909   5.153   3.540  0.3326 -0.1849 -0.2116
 7418TIP3    H143745   2.992   5.129   3.581 -0.1685 -0.4421  0.6820
 7418TIP3    H243746   2.913   5.248   3.529  1.8213 -0.4478 -2.6289
 7419TIP3   OH243747   3.086   0.409   4.883  0.0587 -0.4077 -0.2491
 7419TIP3    H143748   3.005   0.359   4.871 -1.6845  2.4632 -1.2846
 7419TIP3    H243749   3.069   0.466   4.957  1.5730 -0.5016  0.2007
 7420TIP3   OH243750   5.175   1.153   3.112  0.2520 -0.2424  0.6085
 7420TIP3    H143751   5.156   1.196   3.029 -0.7567 -0.3837  0.7581
 7420TIP3    H243752   5.163   1.222   3.178  1.3465 -0.0487  0.6313
 7421TIP3   OH243753   2.320   1.455   5.041  0.3484 -0.1818 -0.4198
 7421TIP3    H143754   2.340   1.485   5.129  1.0791  1.1537 -1.0096
 7421TIP3    H243755   2.404   1.427   5.005  0.2802  0.4618 -1.1092
 7422TIP3   OH243756   2.687   1.367  16.070  0.0337  0.1772 -0.3299
 7422TIP3    H143757   2.697   1.357  15.975  0.3978  0.3608 -0.3125
 7422TIP3    H243758   2.749   1.305  16.108 -2.6726 -2.6719 -0.1508
 7423TIP3   OH243759   5.961   2.463  10.928 -0.1511  0.2427  0.3484
 7423TIP3    H143760   6.027   2.507  10.875  0.9472 -0.8507  0.7751
 7423TIP3    H243761   5.999   2.377  10.948 -1.7643 -0.4786  0.4746
 7424TIP3   OH243762   5.450   3.135  14.156  0.3363  0.7468 -0.1072
 7424TIP3    H143763   5.368   3.170  14.192  1.1997 -0.0087  2.9184
 7424TIP3    H243764   5.437   3.040  14.157  0.8747  0.6687 -0.6212
 7425TIP3   OH243765   5.792   2.213  15.649  0.7343 -0.0893  0.5021
 7425TIP3    H143766   5.766   2.158  15.723  0.8703 -0.9241 -0.0499
 7425TIP3    H243767   5.713   2.223  15.597  0.9774 -0.7282  0.0037
 7426TIP3   OH243768   0.279   3.421  16.857  0.3507  0.1104 -0.2528
 7426TIP3    H143769   0.235   3.401  16.775 -0.5431 -0.1016  0.2679
 7426TIP3    H243770   0.371   3.399  16.841  0.2100  0.2150 -1.2369
 7427TIP3   OH243771   4.365   4.024  15.798 -0.4630 -0.0556  0.2446
 7427TIP3    H143772   4.433   4.052  15.860 -0.2562  1.2394 -0.5296
 7427TIP3    H243773   4.360   3.930  15.809  0.7741 -0.0527  1.0215
 7428TIP3   OH243774   0.823   5.546  14.431 -0.0309 -0.1443 -0.4350
 7428TIP3    H143775   0.754   5.587  14.379 -0.4660 -0.4610 -0.1134
 7428TIP3    H243776   0.784   5.535  14.518 -0.2350 -2.0001 -0.7214
 7429TIP3   OH243777   2.731   3.682  13.937  0.1667  0.1349 -0.0128
 7429TIP3    H143778   2.733   3.679  13.841  1.9339 -0.2411 -0.0096
 7429TIP3    H243779   2.822   3.667  13.963 -0.4850 -1.1251  1.7696
 7430TIP3   OH243780   5.533   0.773   3.865  1.0641 -0.1096  0.5183
 7430TIP3    H143781   5.547   0.840   3.932 -1.1835 -0.4480  1.4222
 7430TIP3    H243782   5.502   0.822   3.789 -1.1393 -0.0848  1.3603
 7431TIP3   OH243783   6.475   5.170   2.698  0.4189 -0.1200  0.2084
 7431TIP3    H143784   6.456   5.077   2.714  1.2355 -0.1226  1.3365
 7431TIP3    H243785   6.528   5.170   2.619  0.1087 -0.5771 -0.0056
 7432TIP3   OH243786   0.988   0.495   2.143  0.0254  0.1965 -0.9207
 7432TIP3    H143787   0.997   0.460   2.232 -0.9439  1.3021 -0.3710
 7432TIP3    H243788   1.076   0.526   2.121  0.2342  0.0941 -0.2696
 7433TIP3   OH243789   2.960   0.937   0.126  0.1212 -0.0137  0.5921
 7433TIP3    H143790   2.953   0.991   0.048 -0.0196 -0.0188  0.6014
 7433TIP3    H243791   3.028   0.979   0.179  0.6524 -0.3544  0.1894
 7434TIP3   OH243792   4.167   2.676   1.846  0.4466 -0.2933  0.0563
 7434TIP3    H143793   4.159   2.590   1.886  1.2604 -0.0701  0.7240
 7434TIP3    H243794   4.113   2.733   1.900  1.9647  0.1135  1.2014
 7435TIP3   OH243795   5.353   5.822   3.040  0.0054 -0.4050 -0.2868
 7435TIP3    H143796   5.338   5.782   2.954 -1.1048 -3.5134  1.2052
 7435TIP3    H243797   5.266   5.846   3.071  0.1044 -1.4762  0.8874
 7436TIP3   OH243798   3.325   2.946   5.141  0.2753 -0.2004 -0.1602
 7436TIP3    H143799   3.392   2.994   5.093  0.0589 -0.1729 -0.4349
 7436TIP3    H243800   3.357   2.856   5.142  1.2134  0.1051  1.2720
 7437TIP3   OH243801   5.373   5.052  16.901 -0.0235 -0.4619  0.0563
 7437TIP3    H143802   5.327   4.971  16.879  1.2673 -0.5666 -2.7460
 7437TIP3    H243803   5.322   5.121  16.859  1.1302 -0.3661 -1.2962
 7438TIP3   OH243804   3.161   0.442  12.179 -0.6650 -0.1773  0.7723
 7438TIP3    H143805   3.117   0.430  12.263 -0.8518  1.1598  0.8803
 7438TIP3    H243806   3.097   0.489  12.125 -1.0061 -2.0039 -0.5365
 7439TIP3   OH243807   3.039   3.903   0.778  0.8005 -0.1744  0.3013
 7439TIP3    H143808   3.030   3.849   0.856 -1.0701 -0.2340  0.0980
 7439TIP3    H243809   3.080   3.845   0.713 -0.8969 -1.3182  0.1743
 7440TIP3   OH243810   4.004   0.616  17.199  0.0694  0.2843  0.0181
 7440TIP3    H143811   4.047   0.587  17.279 -2.6163 -1.1585  1.0956
 7440TIP3    H243812   3.996   0.537  17.146 -1.8767  0.2821  0.2393
 7441TIP3   OH243813   1.829   4.409  15.593 -0.3410 -0.4595 -0.3375
 7441TIP3    H143814   1.907   4.408  15.538  0.5286  0.5977  0.8021
 7441TIP3    H243815   1.862   4.396  15.682 -1.2975  1.2520  0.3188
 7442TIP3   OH243816   1.382   4.650   3.514  0.2488  0.8170 -0.3327
 7442TIP3    H143817   1.339   4.707   3.578  0.3610 -0.2716  0.7546
 7442TIP3    H243818   1.317   4.583   3.495  0.9582 -0.0746  0.2949
 7443TIP3   OH243819   0.297   4.307   1.225  0.0777 -0.1598 -0.1100
 7443TIP3    H143820   0.261   4.368   1.161 -2.5019 -1.1163  0.3183
 7443TIP3    H243821   0.362   4.358   1.274 -1.2663  1.9387 -0.4192
 7444TIP3   OH243822   0.345   1.694  16.622 -0.0587  0.7384 -0.6893
 7444TIP3    H143823   0.312   1.659  16.705  3.2925 -0.2831  0.3755
 7444TIP3    H243824   0.358   1.787  16.638  1.7067  0.3360  0.4094
 7445TIP3   OH243825   2.172   0.531  11.497  0.1889  0.9017 -0.2836
 7445TIP3    H143826   2.200   0.518  11.588 -0.1893 -0.9750 -0.3876
 7445TIP3    H243827   2.134   0.619  11.496 -1.4739  0.3123  1.8574
 7446TIP3   OH243828   2.331   6.784  13.009  0.8510 -0.4159  0.0122
 7446TIP3    H143829   2.390   6.767  12.935 -0.3635 -0.7571 -0.9115
 7446TIP3    H243830   2.253   6.822  12.969 -0.2196 -1.4861  0.9891
 7447TIP3   OH243831   5.059   1.394  11.787 -0.5854 -0.3628  0.0802
 7447TIP3    H143832   5.075   1.479  11.830 -1.4811 -0.0087 -0.2522
 7447TIP3    H243833   5.064   1.330  11.858  0.2937 -0.0608  0.3026
 7448TIP3   OH243834   0.410   2.661  17.073 -0.1286  0.1110  0.5176
 7448TIP3    H143835   0.446   2.646  16.985 -1.7543 -3.0475  0.2593
 7448TIP3    H243836   0.453   2.595  17.127 -0.8425  0.5188  1.5989
 7449TIP3   OH243837   1.820   2.802   0.763 -0.6197  0.6156 -0.1963
 7449TIP3    H143838   1.768   2.734   0.805  1.2289 -0.4169  0.5298
 7449TIP3    H243839   1.856   2.853   0.836  0.6838  0.2926 -0.5888
 7450TIP3   OH243840   3.407   3.849   5.703  0.0800  0.3021  0.1718
 7450TIP3    H143841   3.457   3.839   5.784 -0.7888  0.3637  0.7253
 7450TIP3    H243842   3.469   3.888   5.641  1.0483 -0.6721  0.4963
 7451TIP3   OH243843   3.863   5.921   3.294 -0.2837 -0.0685  0.1666
 7451TIP3    H143844   3.918   5.953   3.222  1.1380 -1.0755  0.7594
 7451TIP3    H243845   3.807   5.995   3.316  1.5787  1.3856  0.2482
 7452TIP3   OH243846   5.766   6.298   0.478  0.7455  0.0047  0.3544
 7452TIP3    H143847   5.746   6.215   0.522  1.3419  1.2852  3.2529
 7452TIP3    H243848   5.839   6.277   0.420  0.0316 -1.7428  0.0098
 7453TIP3   OH243849   1.078   4.830   4.727 -0.5991 -0.2048 -0.2346
 7453TIP3    H143850   0.985   4.835   4.748 -0.4314 -0.5146  0.6223
 7453TIP3    H243851   1.115   4.911   4.763 -0.6352  0.2571 -1.1874
 7454TIP3   OH243852   2.381   1.916  16.809 -0.1701  0.0329 -0.2112
 7454TIP3    H143853   2.390   1.992  16.867 -2.4771 -1.6231  2.5729
 7454TIP3    H243854   2.470   1.880  16.805  0.2838  0.8525  1.4090
 7455TIP3   OH243855   5.498   1.153  16.263  0.4830  0.4739  0.1132
 7455TIP3    H143856   5.505   1.088  16.334 -1.5928 -0.0891 -0.1396
 7455TIP3    H243857   5.425   1.122  16.209  0.7678  1.9484 -1.1863
 7456TIP3   OH243858   1.442   1.184  15.205 -0.2786  0.1870 -0.0459
 7456TIP3    H143859   1.512   1.141  15.156  0.6054  0.1612  1.1963
 7456TIP3    H243860   1.443   1.141  15.290 -2.3400 -0.3458 -0.2319
 7457TIP3   OH243861   4.828   1.224   2.987 -1.0857  0.3775 -0.0141
 7457TIP3    H143862   4.888   1.248   2.917 -1.8792  0.2069 -0.7699
 7457TIP3    H243863   4.812   1.306   3.035  0.1023  0.3320  0.4979
 7458TIP3   OH243864   3.182   2.604   3.970  0.3075 -0.2089 -0.5829
 7458TIP3    H143865   3.269   2.580   4.001 -0.1179  0.0601  0.8804
 7458TIP3    H243866   3.126   2.601   4.048 -0.9278 -0.0272 -1.4193
 7459TIP3   OH243867   1.790   2.908   5.564 -0.4096 -0.0471 -0.3350
 7459TIP3    H143868   1.791   2.875   5.654  2.0648  2.7901  0.8743
 7459TIP3    H243869   1.699   2.935   5.549 -0.4702  1.6275  2.3274
 7460TIP3   OH243870   0.797   5.274   1.278  0.1421  0.3457 -0.7502
 7460TIP3    H143871   0.808   5.247   1.369 -0.8831  3.0888  0.3087
 7460TIP3    H243872   0.812   5.195   1.227 -1.0511 -1.7310  1.8972
 7461TIP3   OH243873   2.131   4.423  11.853 -0.4202  0.0843 -0.3199
 7461TIP3    H143874   2.052   4.394  11.808 -1.4089 -0.4579  1.6650
 7461TIP3    H243875   2.146   4.357  11.920  0.2920  1.4642  0.9301
 7462TIP3   OH243876   3.928   1.356   6.506  0.3954  0.1717  0.1660
 7462TIP3    H143877   4.022   1.349   6.490  0.1506  0.5369 -1.6119
 7462TIP3    H243878   3.913   1.301   6.583  2.1257  0.5245  0.7992
 7463TIP3   OH243879   3.235   0.621   6.024  0.4936 -0.8465 -0.5426
 7463TIP3    H143880   3.276   0.677   6.089  2.7377 -0.1831 -2.3963
 7463TIP3    H243881   3.297   0.549   6.011 -0.7477 -1.9384 -0.6956
 7464TIP3   OH243882   2.129   4.911  11.973  0.3860 -0.2179  0.1401
 7464TIP3    H143883   2.179   4.968  12.032 -0.1672 -0.4958  0.8871
 7464TIP3    H243884   2.096   4.841  12.029 -3.0739  1.3063  0.2807
 7465TIP3   OH243885   6.376   3.587   3.934  0.3725  0.1608  0.2668
 7465TIP3    H143886   6.451   3.528   3.940  0.4630  0.3316  0.8197
 7465TIP3    H243887   6.406   3.669   3.973 -0.1109  0.2185  0.5275
 7466TIP3   OH243888   4.660   1.361   5.648 -0.6304 -0.1219 -0.2059
 7466TIP3    H143889   4.737   1.355   5.705 -0.8865 -1.0030  0.0737
 7466TIP3    H243890   4.693   1.341   5.561 -0.2458  1.1699 -0.3771
 7467TIP3   OH243891   6.008   2.093   0.907 -0.1443  0.1022  0.6635
 7467TIP3    H143892   6.084   2.049   0.944  1.3040  1.7906 -0.2096
 7467TIP3    H243893   5.987   2.043   0.828  0.8893  0.3889  0.1989
 7468TIP3   OH243894   3.651   6.191  12.567 -0.0583 -0.3046  0.2166
 7468TIP3    H143895   3.646   6.096  12.572 -1.1022 -0.3418 -1.1858
 7468TIP3    H243896   3.655   6.219  12.659  1.6059 -1.7272  0.6345
 7469TIP3   OH243897   1.616   1.379   3.992  0.0624  0.3251  0.5565
 7469TIP3    H143898   1.585   1.469   4.000  0.5870  0.5778 -0.1847
 7469TIP3    H243899   1.609   1.359   3.898 -0.7098 -0.6487  0.8048
 7470TIP3   OH243900   4.287   4.389   1.759 -0.1653 -0.7267 -0.4055
 7470TIP3    H143901   4.275   4.402   1.664  1.1501 -0.1048 -0.4993
 7470TIP3    H243902   4.203   4.353   1.788 -1.3893  1.1445 -1.4308
 7471TIP3   OH243903   5.631   6.406   5.774 -0.3028  0.0432 -0.9274
 7471TIP3    H143904   5.706   6.461   5.753  0.9875 -1.6933 -1.0697
 7471TIP3    H243905   5.645   6.326   5.723 -1.0027 -1.2691  0.8523
 7472TIP3   OH243906   4.575   5.987  16.811  0.0359  0.1299 -0.1050
 7472TIP3    H143907   4.536   6.067  16.776 -0.1169  0.3255  0.4927
 7472TIP3    H243908   4.589   6.007  16.904 -0.7119 -0.8019  0.2237
 7473TIP3   OH243909   2.876   5.956   5.646  0.6654 -0.5155  0.2329
 7473TIP3    H143910   2.908   5.901   5.717  1.7238 -0.2545 -0.0203
 7473TIP3    H243911   2.783   5.937   5.640  0.9661 -2.0961  0.2974
 7474TIP3   OH243912   5.735   3.586  12.680  0.3339  0.9788 -0.3835
 7474TIP3    H143913   5.782   3.554  12.603 -1.4470  1.0257 -1.5575
 7474TIP3    H243914   5.642   3.573  12.659 -0.2185  0.7029  1.8898
 7475TIP3   OH243915   1.895   3.309  14.388 -0.0488 -0.1051  0.2349
 7475TIP3    H143916   1.873   3.402  14.391 -1.5223 -0.4047 -0.5035
 7475TIP3    H243917   1.821   3.265  14.431 -0.9205 -1.1427 -2.1471
 7476TIP3   OH243918   6.666   5.672   5.967 -0.5011  0.2783 -0.3890
 7476TIP3    H143919   6.716   5.606   6.014 -0.0508  0.5012 -0.5451
 7476TIP3    H243920   6.591   5.690   6.022 -1.0125 -0.8879 -0.6814
 7477TIP3   OH243921   4.891   0.734   2.631  0.3644  0.1008 -0.3286
 7477TIP3    H143922   4.898   0.752   2.725 -0.9380 -0.4801 -0.1068
 7477TIP3    H243923   4.895   0.639   2.624 -1.9108 -0.0232 -0.6015
 7478TIP3   OH243924   0.923   0.035  13.943 -0.3980 -0.1270  0.6513
 7478TIP3    H143925   0.838   0.054  13.904 -0.9144  0.3666  1.9731
 7478TIP3    H243926   0.942  -0.055  13.916 -0.8113  0.1349 -0.5604
 7479TIP3   OH243927   5.108   0.390  14.487 -0.0843 -0.6411  0.1724
 7479TIP3    H143928   5.164   0.396  14.409  1.6978 -1.2403  1.3330
 7479TIP3    H243929   5.141   0.458  14.545 -1.0092 -0.5852  0.6399
 7480TIP3   OH243930   6.558   2.091   4.720 -0.1952 -0.0282  0.3627
 7480TIP3    H143931   6.647   2.061   4.703 -0.5219 -1.7585  1.4838
 7480TIP3    H243932   6.526   2.119   4.634  1.4809  0.8548 -0.0206
 7481TIP3   OH243933   5.541   3.857  15.910 -0.2531 -0.4640 -0.2803
 7481TIP3    H143934   5.528   3.936  15.962  1.0637 -0.5637  0.2389
 7481TIP3    H243935   5.529   3.785  15.972  1.9451 -0.5745  0.1107
 7482TIP3   OH243936   1.610   3.146   0.177 -0.0513  0.1709 -0.0236
 7482TIP3    H143937   1.524   3.144   0.136  0.4862  1.3882 -1.2843
 7482TIP3    H243938   1.658   3.074   0.136 -0.0909  0.2440 -0.1989
 7483TIP3   OH243939   5.680   1.988  11.321  0.2042 -0.1503  0.4451
 7483TIP3    H143940   5.659   1.895  11.314  1.1876 -0.5439  2.2401
 7483TIP3    H243941   5.737   1.994  11.397  0.5812  1.8669  0.0503
 7484TIP3   OH243942   2.407   2.128   4.190  0.0298  0.1058  0.4221
 7484TIP3    H143943   2.408   2.052   4.131 -0.1645 -0.1258  0.7135
 7484TIP3    H243944   2.495   2.130   4.227  1.4161  2.3789 -2.5314
 7485TIP3   OH243945   2.529   3.939   4.950  0.1801  0.3486 -0.1835
 7485TIP3    H143946   2.447   3.925   4.998 -0.9732  3.5414 -0.9819
 7485TIP3    H243947   2.507   3.922   4.859  1.1277 -1.2061 -0.1478
 7486TIP3   OH243948   0.863   0.787   0.935  0.4073 -0.5469 -0.0404
 7486TIP3    H143949   0.852   0.757   0.845  1.0198  1.1849 -0.7370
 7486TIP3    H243950   0.784   0.758   0.980  0.3875 -2.0137 -0.9466
 7487TIP3   OH243951   2.978   2.588  11.872 -0.7616  0.2303  0.5866
 7487TIP3    H143952   2.938   2.501  11.869 -0.0567 -0.0709 -0.3813
 7487TIP3    H243953   3.056   2.577  11.927 -0.0332 -0.0271 -0.4880
 7488TIP3   OH243954   5.653   1.392   1.339  0.4307  0.1052  0.0165
 7488TIP3    H143955   5.735   1.400   1.388 -0.5412  2.1422  1.4398
 7488TIP3    H243956   5.596   1.340   1.395  0.2014  0.0858 -0.2300
 7489TIP3   OH243957   1.588   3.198  16.265 -0.3798 -0.0518 -0.7524
 7489TIP3    H143958   1.548   3.279  16.232 -0.8057  0.0062 -0.1152
 7489TIP3    H243959   1.661   3.227  16.319  0.1073 -0.1356 -1.3557
 7490TIP3   OH243960   3.399   0.884  13.130  0.5371  0.0100 -0.8144
 7490TIP3    H143961   3.442   0.956  13.178 -0.5812 -0.3683  0.8443
 7490TIP3    H243962   3.432   0.805  13.173  0.7535 -0.4230 -1.7721
 7491TIP3   OH243963   1.884   5.022  11.312 -1.0498  1.1440  0.8212
 7491TIP3    H143964   1.903   5.115  11.301 -1.0705  0.9754 -0.8980
 7491TIP3    H243965   1.814   5.004  11.249  1.6378 -0.8142 -1.9449
 7492TIP3   OH243966   3.966   1.217   1.264  1.1030  0.0717 -0.4506
 7492TIP3    H143967   3.918   1.138   1.289  0.2050  0.7540  0.0370
 7492TIP3    H243968   3.929   1.240   1.178  0.7767  0.4240 -0.2161
 7493TIP3   OH243969   5.740   0.005  15.970  0.3490 -0.6469 -0.2781
 7493TIP3    H143970   5.747  -0.046  16.050 -2.1768 -0.3712  0.1966
 7493TIP3    H243971   5.722  -0.059  15.901  2.3348 -0.8629 -0.6677
 7494TIP3   OH243972   1.638   2.548  15.370  0.2674  0.3678 -0.2786
 7494TIP3    H143973   1.648   2.626  15.315  0.1236  0.4730 -0.1573
 7494TIP3    H243974   1.620   2.477  15.308 -2.6701  0.9468 -0.2521
 7495TIP3   OH243975   3.875   4.416   4.292  0.1301 -0.0087 -0.1651
 7495TIP3    H143976   3.945   4.480   4.278  0.3535  0.0322  1.0228
 7495TIP3    H243977   3.920   4.341   4.331 -0.1215 -0.9265 -1.5939
 7496TIP3   OH243978   4.661   3.516   0.433  0.0221 -0.0574 -0.0128
 7496TIP3    H143979   4.670   3.461   0.355 -0.2086 -1.7547  1.1220
 7496TIP3    H243980   4.616   3.461   0.496 -0.6258  1.6153  1.0293
 7497TIP3   OH243981   5.512   0.021   1.756 -0.0110  0.2898 -0.2882
 7497TIP3    H143982   5.423  -0.001   1.782 -0.0793 -0.4963 -1.1430
 7497TIP3    H243983   5.559   0.032   1.839 -0.2383 -2.0338  0.2140
 7498TIP3   OH243984   3.782   4.657  10.648  0.4334 -0.0786 -0.0721
 7498TIP3    H143985   3.807   4.633  10.737  0.3091 -1.4489 -0.3941
 7498TIP3    H243986   3.862   4.692  10.609  0.3441  1.1183  0.7384
 7499TIP3   OH243987   0.953   2.660  12.687 -0.6942  0.4868 -0.1020
 7499TIP3    H143988   0.893   2.724  12.726 -2.1623 -0.5175 -0.5953
 7499TIP3    H243989   1.009   2.711  12.629  0.2344  1.7303  1.7815
 7500TIP3   OH243990   4.495   5.117   1.319 -0.1176 -0.8115  1.0691
 7500TIP3    H143991   4.546   5.172   1.260 -0.4885  0.5883  1.9995
 7500TIP3    H243992   4.554   5.099   1.392 -0.4928 -0.3400  1.4952
 7501TIP3   OH243993   5.142   1.595   3.970 -0.3147  0.1433  0.1725
 7501TIP3    H143994   5.124   1.501   3.964  0.8204 -0.2138  1.6351
 7501TIP3    H243995   5.083   1.635   3.906 -1.8073 -1.4256  0.4944
 7502TIP3   OH243996   3.460   2.420   5.654 -0.0842  0.6254 -0.1103
 7502TIP3    H143997   3.374   2.420   5.697 -0.2182  1.3219 -0.3610
 7502TIP3    H243998   3.458   2.343   5.597  0.9450 -1.6587  2.7373
 7503TIP3   OH243999   4.351   5.402   5.983 -0.1779 -0.0654 -1.3496
 7503TIP3    H144000   4.360   5.323   5.930  2.0902  0.5414 -2.0082
 7503TIP3    H244001   4.381   5.376   6.070  0.0038 -0.0782 -1.4153
 7504TIP3   OH244002   0.482   1.117  12.906 -0.2489 -0.3582  0.1680
 7504TIP3    H144003   0.572   1.085  12.910 -0.9673 -2.4470  0.8996
 7504TIP3    H244004   0.455   1.101  12.815 -0.1992 -0.7066  0.2129
 7505TIP3   OH244005   2.199   4.330   4.473 -0.2344 -0.4768 -0.1457
 7505TIP3    H144006   2.263   4.267   4.442 -1.1480 -1.7230  0.4249
 7505TIP3    H244007   2.142   4.345   4.397  0.1156 -0.1566 -0.3477
 7506TIP3   OH244008   2.151   4.523  12.148 -0.5259 -0.1690 -0.1075
 7506TIP3    H144009   2.082   4.463  12.178 -0.8131 -0.7184 -1.8030
 7506TIP3    H244010   2.219   4.515  12.215 -0.6870 -2.1596 -0.1037
 7507TIP3   OH244011   0.592   3.961  13.351 -0.4817  0.0710 -0.1227
 7507TIP3    H144012   0.639   4.019  13.291 -1.3311  0.6303 -0.2704
 7507TIP3    H244013   0.629   3.980  13.437 -0.1445  0.1935 -0.2952
 7508TIP3   OH244014   2.300   2.318  16.649  0.6385 -0.1000 -0.5147
 7508TIP3    H144015   2.315   2.228  16.619  0.6953 -0.1253 -0.4105
 7508TIP3    H244016   2.228   2.312  16.712  2.1434 -0.4164  1.2634
 7509TIP3   OH244017   3.243   5.783   4.158  0.3562 -0.4052 -0.1121
 7509TIP3    H144018   3.242   5.766   4.252 -2.9629  1.4647  0.3438
 7509TIP3    H244019   3.267   5.875   4.150  0.8963 -0.6218 -1.1469
 7510TIP3   OH244020   6.160   6.038   4.734  0.4741  0.0237  0.3284
 7510TIP3    H144021   6.116   5.977   4.793  0.6879 -0.9811 -0.5201
 7510TIP3    H244022   6.254   6.023   4.749  0.5244  0.4145  0.3975
 7511TIP3   OH244023   6.305   3.053   1.761 -0.1958 -0.0082  0.1299
 7511TIP3    H144024   6.224   3.103   1.774 -0.5643 -0.8082  1.1020
 7511TIP3    H244025   6.344   3.048   1.848  1.7214  1.6543 -0.5624
 7512TIP3   OH244026   4.299   3.863  12.047 -0.4155  0.4883  0.0594
 7512TIP3    H144027   4.268   3.798  11.984  0.3047  0.6172 -0.4282
 7512TIP3    H244028   4.393   3.866  12.034  0.1499 -1.2937  2.8164
 7513TIP3   OH244029   4.710   1.837   3.066  0.5819 -0.0189  0.3309
 7513TIP3    H144030   4.618   1.822   3.045  0.7355 -1.3899  0.5605
 7513TIP3    H244031   4.737   1.908   3.007 -1.7420  3.7057  3.3017
 7514TIP3   OH244032   2.918   0.923   2.597 -0.0052 -0.7693 -0.0927
 7514TIP3    H144033   2.913   1.015   2.625 -0.4976 -1.2041  1.3513
 7514TIP3    H244034   2.837   0.908   2.549 -1.2181 -1.1247  1.9501
 7515TIP3   OH244035   1.277   3.591   4.121  0.0970 -0.2131 -0.3006
 7515TIP3    H144036   1.325   3.528   4.067  1.5704  1.4478 -1.0497
 7515TIP3    H244037   1.225   3.642   4.058  0.0890  0.2914  0.1115
 7516TIP3   OH244038   5.788   0.746  12.128 -0.1673 -0.1667 -0.0589
 7516TIP3    H144039   5.819   0.833  12.101 -0.5817 -0.2205 -0.7331
 7516TIP3    H244040   5.702   0.763  12.167 -1.0185 -0.4305 -1.7031
 7517TIP3   OH244041   0.345   2.757   3.414  0.0621  0.7704 -0.2726
 7517TIP3    H144042   0.257   2.790   3.428 -0.3268  0.9416 -2.6816
 7517TIP3    H244043   0.401   2.834   3.426 -0.3942  1.2852 -1.3175
 7518TIP3   OH244044   0.151   1.240  16.571  0.4721 -0.1693  0.3715
 7518TIP3    H144045   0.107   1.249  16.487  0.7768 -0.3246  0.1920
 7518TIP3    H244046   0.236   1.283  16.559  0.5729 -0.3125  0.5540
 7519TIP3   OH244047   1.498   2.518   1.193 -0.1082 -0.2735 -0.3453
 7519TIP3    H144048   1.491   2.433   1.149 -1.4318  0.0628 -0.8451
 7519TIP3    H244049   1.559   2.504   1.265 -0.9009 -1.8667  0.0558
 7520TIP3   OH244050   3.349   1.598   4.074  0.3904 -0.5811 -0.0909
 7520TIP3    H144051   3.431   1.556   4.047 -0.2473 -1.3381 -0.9534
 7520TIP3    H244052   3.297   1.601   3.994 -0.8630 -1.1847  0.6653
 7521TIP3   OH244053   1.618   2.259  14.038  0.6280 -0.1831 -0.4115
 7521TIP3    H144054   1.688   2.211  13.993  0.6673  0.1766 -0.7447
 7521TIP3    H244055   1.664   2.313  14.102  0.5687 -0.7263  0.0924
 7522TIP3   OH244056   4.512   5.990  15.754  0.2054  0.0107  0.1088
 7522TIP3    H144057   4.454   6.042  15.698 -1.2125 -1.0205  0.5668
 7522TIP3    H244058   4.497   6.023  15.842  0.5588 -0.0630  0.2006
 7523TIP3   OH244059   1.367   2.988  15.585 -0.4177  0.4027 -0.4107
 7523TIP3    H144060   1.309   2.929  15.538  0.1129 -0.0797 -0.4661
 7523TIP3    H244061   1.405   2.935  15.655 -0.7684  0.9678  0.2167
 7524TIP3   OH244062   0.017   6.815  12.899  0.3332 -0.5010  0.2663
 7524TIP3    H144063   0.073   6.887  12.929  1.5914 -2.0274  1.8375
 7524TIP3    H244064   0.056   6.787  12.816 -1.8027  2.2853 -1.8552
 7525TIP3   OH244065   6.779   3.021   0.862 -0.7743 -0.1170 -0.0011
 7525TIP3    H144066   6.779   3.007   0.767  2.3106  0.1576 -0.1414
 7525TIP3    H244067   6.784   3.117   0.872 -1.1101 -0.1415  0.4586
 7526TIP3   OH244068   0.571   3.216  14.457 -0.3412  0.1216 -0.5854
 7526TIP3    H144069   0.605   3.198  14.545 -1.8272  1.4221  0.2974
 7526TIP3    H244070   0.638   3.270  14.416 -0.1278  0.4335  0.1518
 7527TIP3   OH244071   0.139   3.593   3.119  0.0424 -0.2001 -0.7495
 7527TIP3    H144072   0.096   3.645   3.188 -0.2148 -3.1113  1.4944
 7527TIP3    H244073   0.089   3.613   3.040 -1.8502  0.7974  0.6043
 7528TIP3   OH244074   1.741   4.001  12.668 -0.7609  0.2724  0.8766
 7528TIP3    H144075   1.799   3.928  12.686  1.9086  1.4750 -2.0241
 7528TIP3    H244076   1.746   4.055  12.747  1.2567 -0.2077  1.1250
 7529TIP3   OH244077   2.660   3.581  15.725  0.4620  0.4671 -0.0181
 7529TIP3    H144078   2.652   3.495  15.767  0.6705  1.0457  1.2448
 7529TIP3    H244079   2.574   3.622  15.737  0.6463  0.7937  0.2068
 7530TIP3   OH244080   2.823   3.739  15.140  0.1858 -0.3726  0.8197
 7530TIP3    H144081   2.747   3.761  15.194 -0.0941 -2.1927  1.2246
 7530TIP3    H244082   2.857   3.824  15.112 -0.0500  0.6421  3.3027
 7531TIP3   OH244083   2.296   0.738   5.671  0.0622  0.6701 -0.2187
 7531TIP3    H144084   2.223   0.765   5.727  1.5022 -0.8945  2.6455
 7531TIP3    H244085   2.363   0.806   5.683  0.3416  0.3829 -0.1320
 7532TIP3   OH244086   4.777   3.685   3.489  0.2471  0.4912  0.9510
 7532TIP3    H144087   4.787   3.590   3.484  0.8129  0.6056 -1.8304
 7532TIP3    H244088   4.864   3.717   3.514 -0.0384  0.3108  2.2652
 7533TIP3   OH244089   6.514   6.419   4.241 -0.0248 -0.0204 -0.0429
 7533TIP3    H144090   6.487   6.352   4.303 -1.3416  2.0370  1.8000
 7533TIP3    H244091   6.582   6.469   4.286 -1.4412  1.9014  0.1226
 7534TIP3   OH244092   3.686   3.206   6.194  0.2205 -0.4860  0.0421
 7534TIP3    H144093   3.689   3.260   6.115 -0.5163 -1.6646 -0.8154
 7534TIP3    H244094   3.604   3.230   6.236 -0.8440 -1.9429 -1.1124
 7535TIP3   OH244095   2.901   4.385  14.433 -0.3015  0.2039 -0.8476
 7535TIP3    H144096   2.892   4.384  14.529 -0.1387  1.4183 -0.8039
 7535TIP3    H244097   2.910   4.293  14.409 -0.4114 -0.1261  0.3008
 7536TIP3   OH244098   0.830   5.526   1.420  0.4077 -0.0179 -0.4175
 7536TIP3    H144099   0.782   5.467   1.362 -1.4802  0.2059  0.8260
 7536TIP3    H244100   0.829   5.483   1.506  0.4445  1.0395  0.1434
 7537TIP3   OH244101   6.498   2.222   1.475  0.1336 -0.3666  0.7278
 7537TIP3    H144102   6.570   2.220   1.538  0.2315 -0.4063  0.6157
 7537TIP3    H244103   6.504   2.309   1.434 -1.6845  0.8061  2.7921
 7538TIP3   OH244104   3.549   1.208   5.999 -0.3628 -0.0568 -0.2066
 7538TIP3    H144105   3.460   1.218   5.968 -0.1095 -0.4024 -1.0740
 7538TIP3    H244106   3.557   1.270   6.071 -1.2952 -0.0191 -0.1298
 7539TIP3   OH244107   0.055   6.677  14.171  0.3338 -0.1774  0.4491
 7539TIP3    H144108   0.112   6.751  14.149  2.4820 -1.7715  0.3061
 7539TIP3    H244109   0.019   6.649  14.087 -0.1312  0.3968  0.4482
 7540TIP3   OH244110   1.068   0.575  14.067 -0.2388  0.0788 -0.7922
 7540TIP3    H144111   1.121   0.647  14.101  0.7266 -0.2509 -1.5768
 7540TIP3    H244112   0.990   0.618  14.032 -0.0159  0.6692 -0.5766
 7541TIP3   OH244113   3.238   6.311   5.305 -0.1158  0.3783 -0.8528
 7541TIP3    H144114   3.180   6.242   5.275 -1.5804  1.3776 -0.4612
 7541TIP3    H244115   3.179   6.381   5.334  1.2804  1.1571  0.2612
 7542TIP3   OH244116   1.967   4.774   1.469  0.4004 -0.0423 -0.7039
 7542TIP3    H144117   1.937   4.758   1.379  2.8697  0.1536 -1.6456
 7542TIP3    H244118   1.924   4.705   1.521 -0.1693 -0.8985 -2.2361
 7543TIP3   OH244119   1.344   2.604  11.081  0.7171 -0.4321 -0.0174
 7543TIP3    H144120   1.342   2.568  10.992 -4.0881  0.5892 -0.5881
 7543TIP3    H244121   1.367   2.696  11.069 -0.6011 -0.1298 -0.3551
 7544TIP3   OH244122   4.493   1.724   2.503  0.5179  0.3903 -0.2676
 7544TIP3    H144123   4.520   1.813   2.479  0.8078  0.5120  0.4633
 7544TIP3    H244124   4.504   1.721   2.598 -0.6862 -0.0287 -0.1259
 7545TIP3   OH244125   6.820   6.470  12.477 -0.0745  0.0540 -0.1186
 7545TIP3    H144126   6.808   6.475  12.382 -0.3104  0.7105 -0.0598
 7545TIP3    H244127   6.914   6.453  12.488 -0.3599 -2.0576 -0.5082
 7546TIP3   OH244128   6.724   4.223  15.755 -0.1326  0.0945 -0.1017
 7546TIP3    H144129   6.739   4.315  15.735 -0.4068  0.0301 -0.6199
 7546TIP3    H244130   6.706   4.183  15.671 -0.1824 -0.4035  0.1421
 7547TIP3   OH244131   3.816   0.762  17.075  0.1118 -0.3033  0.4140
 7547TIP3    H144132   3.828   0.740  16.982 -0.3778 -2.8020  0.8694
 7547TIP3    H244133   3.876   0.704  17.121 -2.0911 -1.6200  1.8149
 7548TIP3   OH244134   0.181   5.952  11.264  0.2003  0.1941 -0.1414
 7548TIP3    H144135   0.248   5.890  11.236  0.1787 -0.1365  0.5125
 7548TIP3    H244136   0.209   5.980  11.351 -1.2046 -1.0127  0.7620
 7549TIP3   OH244137   4.888   2.785  11.208 -0.1642 -0.1325 -0.2897
 7549TIP3    H144138   4.917   2.696  11.230 -1.9086 -0.7416 -0.2120
 7549TIP3    H244139   4.829   2.773  11.134 -2.0697  0.6580  1.0151
 7550TIP3   OH244140   4.948   2.210   4.015 -0.9235 -0.1556  0.5178
 7550TIP3    H144141   4.999   2.144   4.063 -2.1292 -1.7806 -0.3263
 7550TIP3    H244142   4.872   2.226   4.070 -0.8137  0.2780  0.5463
 7551TIP3   OH244143   1.812   5.294  11.568 -0.0874  0.0659  0.0522
 7551TIP3    H144144   1.831   5.327  11.480 -1.0981  1.5000  0.3340
 7551TIP3    H244145   1.735   5.239  11.558 -2.0084  2.5224  0.3879
 7552TIP3   OH244146   2.561   3.408  11.234  0.0088  0.8873 -0.0545
 7552TIP3    H144147   2.548   3.339  11.169  1.6665  1.5304 -1.1578
 7552TIP3    H244148   2.601   3.363  11.308 -1.0504  0.2901  0.1628
 7553TIP3   OH244149   0.647   3.770   0.315  0.4863  0.2205  0.4104
 7553TIP3    H144150   0.678   3.860   0.310  0.4832  0.2103  0.2009
 7553TIP3    H244151   0.564   3.776   0.362 -1.0335  0.7228 -2.1095
 7554TIP3   OH244152   3.599   5.871  11.810  0.1346  0.5022 -0.3179
 7554TIP3    H144153   3.597   5.890  11.716  3.6328 -1.1605 -0.9313
 7554TIP3    H244154   3.557   5.786  11.818 -0.5092  0.8185 -0.3009
 7555TIP3   OH244155   5.832   5.459  15.668  0.0763  0.2746  0.1614
 7555TIP3    H144156   5.829   5.367  15.642 -1.2342  0.4689 -0.4362
 7555TIP3    H244157   5.820   5.457  15.763 -0.2193 -0.1600  0.1183
 7556TIP3   OH244158   3.104   2.319   4.425 -0.2766  0.3807 -0.1809
 7556TIP3    H144159   3.063   2.242   4.465 -2.3097  1.9430  0.8829
 7556TIP3    H244160   3.179   2.337   4.482 -0.7876  0.1877  0.5731
 7557TIP3   OH244161   1.362   5.777  14.852 -0.1874  0.2031  0.8506
 7557TIP3    H144162   1.445   5.814  14.820 -1.0723  0.5878 -1.1649
 7557TIP3    H244163   1.338   5.712  14.785 -1.9969  0.8169  0.8444
 7558TIP3   OH244164   6.288   6.757   5.255 -0.2144 -0.0816  0.5056
 7558TIP3    H144165   6.234   6.742   5.177  0.6850 -1.1578  0.0757
 7558TIP3    H244166   6.376   6.769   5.221 -0.0700  1.1699  1.2494
 7559TIP3   OH244167   1.031   5.011   4.095  0.3041  0.2083  0.3210
 7559TIP3    H144168   1.051   5.039   4.184 -1.0322  3.3058 -0.2092
 7559TIP3    H244169   0.961   4.946   4.106  1.3423 -0.7687  1.5277
 7560TIP3   OH244170   4.306   1.318  14.276  0.2011 -0.2686 -0.1202
 7560TIP3    H144171   4.246   1.387  14.248 -2.0476 -1.5437  1.2498
 7560TIP3    H244172   4.324   1.337  14.368  1.0951 -0.4648 -0.2456
 7561TIP3   OH244173   2.654   1.921   2.810  0.3678  0.3801  0.0527
 7561TIP3    H144174   2.609   1.941   2.728 -0.9079  0.8104  0.8230
 7561TIP3    H244175   2.732   1.976   2.809 -0.3005  1.3588 -0.3048
 7562TIP3   OH244176   0.780   4.589  12.983  0.3227 -0.2305 -0.1031
 7562TIP3    H144177   0.840   4.570  12.911 -0.9633  1.3186 -1.6915
 7562TIP3    H244178   0.693   4.577  12.946 -0.3856  0.3364  1.2849
 7563TIP3   OH244179   1.050   6.566  16.176  0.6062  0.2015  0.5688
 7563TIP3    H144180   1.015   6.495  16.122 -2.6321  2.1609 -0.2072
 7563TIP3    H244181   1.017   6.548  16.264 -0.4170  0.7813  0.3260
 7564TIP3   OH244182   6.807   0.539  10.394 -0.0969  0.0795 -0.1229
 7564TIP3    H144183   6.748   0.599  10.349  1.1273  1.8182  0.5169
 7564TIP3    H244184   6.893   0.581  10.391  1.0840 -2.2283 -0.7139
 7565TIP3   OH244185   0.142   4.261   1.643  0.3643  0.6239 -0.2158
 7565TIP3    H144186   0.176   4.284   1.556 -0.1815 -0.0870 -0.6214
 7565TIP3    H244187   0.050   4.239   1.628  0.2259  0.6580  0.5714
 7566TIP3   OH244188   1.831   2.664  16.406 -0.0506  0.0801  0.6252
 7566TIP3    H144189   1.806   2.753  16.381  0.2540  0.0570  0.2341
 7566TIP3    H244190   1.827   2.664  16.502 -1.1026  0.2076  0.5971
 7567TIP3   OH244191   1.012   3.150  11.428  0.4036  0.2654  0.0470
 7567TIP3    H144192   1.022   3.180  11.338 -1.9219 -0.8633 -0.6806
 7567TIP3    H244193   0.990   3.229  11.477 -1.1545  0.5107 -0.9678
 7568TIP3   OH244194   4.274   1.447  15.262  0.1156 -0.9000 -0.3420
 7568TIP3    H144195   4.276   1.543  15.258 -0.5473 -0.7084  2.0578
 7568TIP3    H244196   4.348   1.419  15.208  0.2644  0.9367 -1.1771
 7569TIP3   OH244197   6.241   5.027   2.063 -0.1428 -0.2679  0.3274
 7569TIP3    H144198   6.282   5.109   2.089  1.8090 -0.6167 -1.4228
 7569TIP3    H244199   6.276   4.962   2.123 -1.2407  0.0293  1.3380
 7570TIP3   OH244200   2.834   6.475  13.945 -0.7176 -0.2008  0.2966
 7570TIP3    H144201   2.762   6.423  13.982 -1.7654 -0.4694 -1.9642
 7570TIP3    H244202   2.912   6.444  13.992 -1.5384 -2.6438  0.2030
 7571TIP3   OH244203   0.675   2.122  16.801  0.1049 -0.3883 -0.5031
 7571TIP3    H144204   0.592   2.123  16.754 -0.4119 -0.4740  0.3993
 7571TIP3    H244205   0.713   2.209  16.784 -1.3483  0.6241  1.1196
 7572TIP3   OH244206   2.279   0.503   4.145  0.3582  0.6627 -0.2478
 7572TIP3    H144207   2.305   0.457   4.225  0.6114 -0.4672 -0.9622
 7572TIP3    H244208   2.361   0.539   4.111  0.7234 -1.0598 -1.3426
 7573TIP3   OH244209   0.142   5.911  10.948  0.6147  0.4027  0.2205
 7573TIP3    H144210   0.087   5.902  11.026 -0.3560 -0.3493 -0.5269
 7573TIP3    H244211   0.230   5.924  10.982 -0.0470  1.8940  1.4595
 7574TIP3   OH244212   5.565   3.463   4.142  0.4872  0.3803 -0.3720
 7574TIP3    H144213   5.494   3.442   4.203 -0.7506  2.9798 -0.7814
 7574TIP3    H244214   5.539   3.423   4.059 -0.2420  0.8453 -0.3741
 7575TIP3   OH244215   4.355   2.598  15.189  0.1100  0.1099 -0.0033
 7575TIP3    H144216   4.404   2.675  15.159  2.5573 -0.7912  1.4625
 7575TIP3    H244217   4.414   2.524  15.175 -0.7898 -1.0365  1.8564
 7576TIP3   OH244218   6.185   5.911   4.352 -0.3285 -0.2655 -0.1749
 7576TIP3    H144219   6.213   5.904   4.443 -1.5491  1.9244  0.4445
 7576TIP3    H244220   6.200   5.824   4.315 -0.2090 -1.3310  2.2349
 7577TIP3   OH244221   4.892   2.698   6.160 -0.1365  0.6350  0.1949
 7577TIP3    H144222   4.960   2.661   6.217  0.3159  1.9602  0.5563
 7577TIP3    H244223   4.915   2.791   6.153 -0.5192  0.6377 -1.6683
 7578TIP3   OH244224   0.940   3.418  15.463 -0.3794  0.1676 -0.7624
 7578TIP3    H144225   0.977   3.379  15.383  1.1918 -0.6940  0.3205
 7578TIP3    H244226   1.009   3.475  15.496 -0.9661  0.4380  0.0342
 7579TIP3   OH244227   2.192   6.536   1.853  0.1618  0.1755  0.4341
 7579TIP3    H144228   2.284   6.554   1.836 -0.1573  0.6168 -1.0257
 7579TIP3    H244229   2.192   6.473   1.925  1.6947 -1.3322 -0.7977
 7580TIP3   OH244230   2.864   1.855   3.665  0.0072  0.3712 -0.2623
 7580TIP3    H144231   2.833   1.781   3.613  1.5218  0.6814 -1.7043
 7580TIP3    H244232   2.929   1.817   3.724  0.8158  0.5068 -1.0318
 7581TIP3   OH244233   1.160   5.254   6.330 -0.4595 -0.8049  0.0270
 7581TIP3    H144234   1.103   5.285   6.259  0.6917  1.0531 -0.1676
 7581TIP3    H244235   1.133   5.306   6.405  2.4133  1.9191 -0.6231
 7582TIP3   OH244236   0.865   1.785  14.094  0.4421 -0.6683  0.3120
 7582TIP3    H144237   0.940   1.830  14.056 -0.7340  0.8476 -0.3719
 7582TIP3    H244238   0.800   1.783  14.023 -1.0860  0.4250  1.5930
 7583TIP3   OH244239   2.099   5.298   4.653  0.3064 -0.2992 -0.2566
 7583TIP3    H144240   2.107   5.217   4.703  0.4394  0.5890  1.2222
 7583TIP3    H244241   2.004   5.312   4.645  0.2851 -0.4357 -0.2471
 7584TIP3   OH244242   0.131   3.565   5.214 -0.1817 -0.6134 -0.1493
 7584TIP3    H144243   0.215   3.565   5.170 -0.2369  0.5018 -0.2906
 7584TIP3    H244244   0.083   3.639   5.175 -0.9226 -0.7520  0.4664
 7585TIP3   OH244245   6.640   5.275   0.970 -0.5212 -0.4822 -0.2973
 7585TIP3    H144246   6.618   5.223   1.047  1.2212  0.0507  0.6074
 7585TIP3    H244247   6.684   5.214   0.911  0.1619 -0.3886  0.1107
 7586TIP3   OH244248   3.282   0.299   4.672 -0.0854  0.2545 -0.0243
 7586TIP3    H144249   3.234   0.359   4.729 -2.4100 -1.5539  0.0981
 7586TIP3    H244250   3.215   0.242   4.636  1.6410 -0.3180 -2.5789
 7587TIP3   OH244251   6.540   4.191   6.529 -0.4338  0.0706 -0.2248
 7587TIP3    H144252   6.488   4.266   6.558 -1.0712  0.4897 -2.2403
 7587TIP3    H244253   6.475   4.126   6.501  0.1123 -0.4380 -0.3344
 7588TIP3   OH244254   2.845   4.792   5.261 -0.0800 -0.2002  0.5369
 7588TIP3    H144255   2.776   4.834   5.211  0.6877  0.9030  0.3525
 7588TIP3    H244256   2.818   4.701   5.268 -1.7018  0.2638  0.7500
 7589TIP3   OH244257   2.165   5.123   3.157  0.1874 -1.1477  0.5530
 7589TIP3    H144258   2.087   5.128   3.103  1.3095  0.3412 -1.0166
 7589TIP3    H244259   2.132   5.126   3.247 -1.5044  0.8538 -0.0747
 7590TIP3   OH244260   4.778   0.302   3.692 -0.0622  0.3381 -0.0416
 7590TIP3    H144261   4.826   0.279   3.772  0.4303 -1.1637 -0.7374
 7590TIP3    H244262   4.764   0.397   3.699 -0.2258  0.2061  1.9110
 7591TIP3   OH244263   1.819   4.356  16.817 -0.7854  0.3665 -0.1906
 7591TIP3    H144264   1.873   4.387  16.744 -0.5927  1.6953  0.4928
 7591TIP3    H244265   1.882   4.315  16.877 -0.8480 -0.0940 -0.4362
 7592TIP3   OH244266   5.835   6.580   1.983 -0.7085 -0.1357  0.2928
 7592TIP3    H144267   5.926   6.553   1.991 -0.8188 -0.6068  0.0253
 7592TIP3    H244268   5.813   6.617   2.068  0.1495  1.3075 -0.0754
 7593TIP3   OH244269   0.595   4.238  17.101 -0.2781 -0.2782  0.3733
 7593TIP3    H144270   0.531   4.168  17.091  0.0976 -0.3224 -3.0583
 7593TIP3    H244271   0.578   4.296  17.026  0.7545  2.2074  1.9406
 7594TIP3   OH244272   1.492   2.749  12.977  0.5770  0.4407 -0.0368
 7594TIP3    H144273   1.433   2.683  12.940  0.3685  0.1342  0.8041
 7594TIP3    H244274   1.532   2.791  12.901 -0.7832  0.7049 -0.6330
 7595TIP3   OH244275   3.257   4.790   2.289 -0.0153 -0.1168 -1.0211
 7595TIP3    H144276   3.265   4.853   2.218 -0.2136  0.0581 -0.8900
 7595TIP3    H244277   3.189   4.827   2.346 -0.7578 -0.8776 -1.3895
 7596TIP3   OH244278   1.714   4.364   3.462  0.2984 -0.1023  0.0508
 7596TIP3    H144279   1.631   4.320   3.481  0.1626 -1.2779 -2.7097
 7596TIP3    H244280   1.781   4.301   3.489  0.1232 -1.3751 -2.1951
 7597TIP3   OH244281   5.476   4.872  14.911  0.2141  0.1205 -0.6837
 7597TIP3    H144282   5.430   4.930  14.851  2.3266  1.3663 -1.1945
 7597TIP3    H244283   5.410   4.849  14.977 -1.5463  0.5043 -2.2109
 7598TIP3   OH244284   2.155   5.849  12.501  0.0704  0.0565 -0.4236
 7598TIP3    H144285   2.145   5.941  12.525 -1.2735  0.0898 -1.0847
 7598TIP3    H244286   2.155   5.848  12.406 -0.2616 -0.6655 -0.4222
 7599TIP3   OH244287   5.304   6.300   1.175  0.2330 -0.5763  0.7197
 7599TIP3    H144288   5.213   6.271   1.188  0.0610  0.0258  0.9084
 7599TIP3    H244289   5.309   6.382   1.222  0.2386  0.5451 -1.1175
 7600TIP3   OH244290   5.978   4.493   0.620 -0.0419 -0.2359 -0.1120
 7600TIP3    H144291   5.926   4.573   0.624 -0.6032 -0.6506  1.4555
 7600TIP3    H244292   6.057   4.513   0.669 -0.0161 -0.5253 -0.0339
 7601TIP3   OH244293   5.813   3.430   4.285 -0.2033  0.0985  0.1412
 7601TIP3    H144294   5.723   3.435   4.253  0.4756 -0.0500 -1.9695
 7601TIP3    H244295   5.844   3.521   4.283  0.2743 -0.0715 -1.0557
 7602TIP3   OH244296   4.662   0.922  16.727 -0.1225 -0.3704 -0.3769
 7602TIP3    H144297   4.636   0.876  16.647  0.4636 -0.4749 -0.5170
 7602TIP3    H244298   4.637   1.013  16.711  0.1996 -0.3479 -0.7838
 7603TIP3   OH244299   5.733   4.494  14.201  0.0813  0.0419  0.0551
 7603TIP3    H144300   5.640   4.487  14.220  0.3511 -0.2429  1.3896
 7603TIP3    H244301   5.776   4.464  14.282  1.3233  1.7959  0.0915
 7604TIP3   OH244302   5.148   1.897  16.655 -0.1452  0.1156 -0.7812
 7604TIP3    H144303   5.198   1.976  16.636  2.0559 -1.0979 -0.3117
 7604TIP3    H244304   5.184   1.865  16.737 -1.4179 -1.0661 -0.6552
 7605TIP3   OH244305   3.961   3.377   3.001 -0.3670  0.6961 -0.0774
 7605TIP3    H144306   4.043   3.371   3.049 -0.6521  0.4997  0.3933
 7605TIP3    H244307   3.987   3.403   2.913  0.3468 -0.8009 -0.3514
 7606TIP3   OH244308   6.543   2.858  15.854 -0.6110  0.2626  0.0646
 7606TIP3    H144309   6.614   2.903  15.808 -2.0379  1.3196 -1.2184
 7606TIP3    H244310   6.509   2.796  15.791 -1.2377  0.2289  0.4290
 7607TIP3   OH244311   1.540   2.231   3.980 -0.0552  0.0235 -0.2698
 7607TIP3    H144312   1.544   2.290   4.055  0.5420  0.0942 -0.3518
 7607TIP3    H244313   1.615   2.257   3.926  0.2963 -0.9045 -0.2398
 7608TIP3   OH244314   4.967   0.405   0.430  0.0175 -0.8784 -0.5393
 7608TIP3    H144315   4.905   0.397   0.358  0.8292  0.1853 -1.3991
 7608TIP3    H244316   4.925   0.465   0.492  0.1383 -0.2039 -1.0918
 7609TIP3   OH244317   5.994   2.310   4.749 -0.1473 -0.3987  0.0061
 7609TIP3    H144318   6.035   2.387   4.711  0.8887 -0.2241  1.3842
 7609TIP3    H244319   6.040   2.297   4.832 -3.6690  0.5155  2.3042
 7610TIP3   OH244320   1.610   4.191   3.197  0.2604 -0.3720 -0.0818
 7610TIP3    H144321   1.693   4.238   3.188  0.0825 -0.1432 -0.5646
 7610TIP3    H244322   1.592   4.191   3.291  2.7486 -3.7813  0.5618
 7611TIP3   OH244323   4.802   2.357  15.641 -0.1576  0.0246  0.1599
 7611TIP3    H144324   4.711   2.344  15.671 -0.3487 -0.0991 -0.4612
 7611TIP3    H244325   4.798   2.345  15.546  0.9925 -2.7277  0.3788
 7612TIP3   OH244326   5.221   6.442   5.473 -0.1815 -0.2433  0.2270
 7612TIP3    H144327   5.307   6.482   5.460  0.3545 -1.4999 -0.2869
 7612TIP3    H244328   5.164   6.489   5.411  0.3963 -0.1761 -0.2687
 7613TIP3   OH244329   1.690   5.464   3.708 -0.3600  0.5236  0.0362
 7613TIP3    H144330   1.646   5.405   3.648  0.9304 -0.1475 -0.2863
 7613TIP3    H244331   1.724   5.535   3.653 -0.3670  0.6327  0.1705
 7614TIP3   OH244332   6.240   6.324   5.122 -0.0387 -0.3894 -0.2618
 7614TIP3    H144333   6.214   6.232   5.129 -1.1607 -0.0157  0.6451
 7614TIP3    H244334   6.182   6.360   5.055 -1.1106  0.1686  0.9398
 7615TIP3   OH244335   1.876   2.036   5.190  0.1807  0.0630  0.0071
 7615TIP3    H144336   1.820   2.028   5.268 -1.5531 -1.3153 -1.3096
 7615TIP3    H244337   1.965   2.032   5.224 -0.5166  0.4734  2.0113
 7616TIP3   OH244338   4.351   5.011  11.272  0.1816  0.0546 -0.2592
 7616TIP3    H144339   4.400   5.022  11.353  1.2980 -2.3284 -0.5356
 7616TIP3    H244340   4.274   4.959  11.297 -0.0340  0.2332 -0.5403
 7617TIP3   OH244341   3.842   4.560   1.973 -0.4821 -0.1781  0.7169
 7617TIP3    H144342   3.889   4.490   2.019 -2.3479 -1.1075  1.2860
 7617TIP3    H244343   3.757   4.522   1.951 -0.9806  1.4320 -0.3370
 7618TIP3   OH244344   3.928   4.612   3.146 -0.0693  0.4634  0.1863
 7618TIP3    H144345   3.912   4.564   3.065  1.6977  0.4526 -0.1923
 7618TIP3    H244346   3.866   4.574   3.209 -0.2344 -0.7651 -0.6901
 7619TIP3   OH244347   1.617   2.122   2.595  0.3388  0.8069  0.3986
 7619TIP3    H144348   1.603   2.123   2.689 -0.0567 -0.6111  0.3834
 7619TIP3    H244349   1.539   2.078   2.560  3.1256 -4.7848  0.0466
 7620TIP3   OH244350   1.902   1.511  12.821  0.0376  0.0599 -0.1963
 7620TIP3    H144351   1.915   1.554  12.736  0.3093  1.8549  0.7029
 7620TIP3    H244352   1.878   1.582  12.880  0.0406 -1.1281  1.2796
 7621TIP3   OH244353   4.181   2.049   4.209 -0.3163  0.3531  0.1220
 7621TIP3    H144354   4.275   2.065   4.208 -0.1073 -0.5776  1.3676
 7621TIP3    H244355   4.142   2.136   4.210  0.7055  1.0606  4.6186
 7622TIP3   OH244356   3.901   0.065  16.533 -0.1296  0.2234 -0.0947
 7622TIP3    H144357   3.938   0.147  16.501 -0.9981  0.4926 -0.4331
 7622TIP3    H244358   3.904   0.072  16.628  0.6294  0.2566 -0.1149
 7623TIP3   OH244359   1.287   1.559  16.725 -0.2251  0.1470 -0.7193
 7623TIP3    H144360   1.377   1.561  16.694 -0.0999  2.8627 -0.4200
 7623TIP3    H244361   1.235   1.539  16.647  0.4986  1.1564 -1.4949
 7624TIP3   OH244362   2.263   2.907  15.441 -0.3637  0.7997 -0.3127
 7624TIP3    H144363   2.320   2.983  15.453  1.3608 -0.7053  1.7665
 7624TIP3    H244364   2.321   2.839  15.408 -1.4306 -0.1847 -0.2009
 7625TIP3   OH244365   0.603   3.366  16.447 -0.0995 -0.2847  0.1936
 7625TIP3    H144366   0.663   3.323  16.507  0.0517  2.0897  1.8799
 7625TIP3    H244367   0.644   3.451  16.429 -1.2825 -0.0065 -1.4265
 7626TIP3   OH244368   6.511   6.252  13.062 -0.3703 -0.0155  0.0967
 7626TIP3    H144369   6.509   6.222  12.971  2.0588 -0.8575  0.2427
 7626TIP3    H244370   6.508   6.347  13.056 -0.5769 -0.0655 -0.8403
 7627TIP3   OH244371   0.106   2.681  12.925 -0.1476  0.1035  0.5532
 7627TIP3    H144372   0.081   2.590  12.938  2.3566 -0.5988  0.9262
 7627TIP3    H244373   0.197   2.686  12.955  0.0441  2.5395 -0.2020
 7628TIP3   OH244374   4.771   3.867   1.528 -0.3348  0.5057 -0.2761
 7628TIP3    H144375   4.763   3.958   1.499  1.4332  1.0674  0.8844
 7628TIP3    H244376   4.864   3.848   1.526 -0.5442 -0.8480  0.8148
 7629TIP3   OH244377   6.002   4.496  11.330 -0.1082 -0.3811 -0.2513
 7629TIP3    H144378   5.992   4.538  11.245  2.1431  0.6348 -0.0863
 7629TIP3    H244379   6.043   4.412  11.311 -0.9766 -0.8062 -0.2716
 7630TIP3   OH244380   3.216   4.128   4.229 -0.1150 -0.5125 -0.5072
 7630TIP3    H144381   3.202   4.218   4.260 -0.8433 -1.2260  1.2891
 7630TIP3    H244382   3.199   4.133   4.135  0.9617  1.4583 -0.6577
 7631TIP3   OH244383   1.320   1.923  11.789 -0.0258  0.0354  0.2086
 7631TIP3    H144384   1.280   1.996  11.743 -0.3116  0.8807  1.7439
 7631TIP3    H244385   1.411   1.948  11.802  0.5462 -1.0142 -1.4969
 7632TIP3   OH244386   5.750   3.650   5.298 -0.2136  0.2389 -0.1735
 7632TIP3    H144387   5.661   3.685   5.293  0.5890  2.5677  0.2312
 7632TIP3    H244388   5.801   3.705   5.238  1.3100  0.2816  1.0869
 7633TIP3   OH244389   2.210   0.745   3.934 -0.0822 -0.8973 -0.3608
 7633TIP3    H144390   2.153   0.776   3.865 -1.8080 -2.8341  0.1033
 7633TIP3    H244391   2.151   0.716   4.004  1.5576 -0.2542  1.3887
 7634TIP3   OH244392   3.851   2.992   5.442  0.2115 -0.3811 -0.4056
 7634TIP3    H144393   3.886   2.984   5.353  0.0030  1.5414 -0.7054
 7634TIP3    H244394   3.765   3.033   5.431 -0.8060 -2.1499  0.5604
 7635TIP3   OH244395   5.407   0.759   1.098  0.3690 -0.0191  0.1018
 7635TIP3    H144396   5.425   0.829   1.161 -0.8206 -0.6377  1.1889
 7635TIP3    H244397   5.466   0.688   1.124 -0.4661 -0.4541  0.8699
 7636TIP3   OH244398   5.228   2.683  17.073 -0.7432 -0.0569 -0.0014
 7636TIP3    H144399   5.141   2.658  17.104 -0.5306  0.1313  0.7562
 7636TIP3    H244400   5.237   2.637  16.989 -2.4826  1.7249 -1.2514
 7637TIP3   OH244401   5.178   6.243  16.763 -0.1405 -0.1435  0.2690
 7637TIP3    H144402   5.159   6.273  16.852 -0.1167  1.9858 -0.3738
 7637TIP3    H244403   5.100   6.195  16.737 -1.1892  1.2766  0.6391
 7638TIP3   OH244404   0.389   2.600  14.306 -0.1548  0.5379 -0.2275
 7638TIP3    H144405   0.474   2.612  14.264 -0.3866  0.0277 -0.8619
 7638TIP3    H244406   0.361   2.688  14.330 -0.5889  1.0209 -2.3103
 7639TIP3   OH244407   4.385   2.409  14.601  0.4270 -0.0997 -0.2243
 7639TIP3    H144408   4.457   2.453  14.645  0.5146 -1.8686  1.5521
 7639TIP3    H244409   4.424   2.331  14.562 -0.1561  0.0304 -1.0973
 7640TIP3   OH244410   6.457   4.732   3.610  0.3132  0.4055 -0.4163
 7640TIP3    H144411   6.536   4.755   3.660  0.0543 -0.9456  0.6736
 7640TIP3    H244412   6.405   4.680   3.671  0.7638 -2.8884 -2.5636
 7641TIP3   OH244413   2.438   3.891  13.446  0.8705  0.2742 -0.4297
 7641TIP3    H144414   2.442   3.819  13.383  0.2551 -0.2380  0.0950
 7641TIP3    H244415   2.464   3.852  13.529  0.9620  0.7653 -0.2226
 7642TIP3   OH244416   1.897   5.680   3.213  0.0616  0.1255 -0.1753
 7642TIP3    H144417   1.890   5.607   3.152 -0.7278  0.0402  0.0138
 7642TIP3    H244418   1.983   5.668   3.254  0.2632 -0.2598 -0.6912
 7643TIP3   OH244419   6.607   0.085   4.358  0.9841  0.2023  0.0219
 7643TIP3    H144420   6.590   0.178   4.371 -0.1600 -0.1123  1.0137
 7643TIP3    H244421   6.633   0.054   4.445 -1.1003 -0.8581  0.3378
 7644TIP3   OH244422   1.543   4.090   4.295  0.3110  0.3364 -0.1044
 7644TIP3    H144423   1.590   4.057   4.372  0.6934  0.8143 -0.1263
 7644TIP3    H244424   1.598   4.064   4.221  0.3960  0.6400 -0.1502
 7645TIP3   OH244425   6.562   6.596   3.422 -0.4894 -0.2035 -0.0557
 7645TIP3    H144426   6.495   6.632   3.480 -2.2211 -1.8526 -0.9277
 7645TIP3    H244427   6.541   6.631   3.336 -0.8639 -1.5063 -0.5130
 7646TIP3   OH244428   5.221   6.002   4.611  0.7202  0.0290  0.3263
 7646TIP3    H144429   5.264   5.917   4.620  0.2401 -0.4186 -1.2208
 7646TIP3    H244430   5.262   6.057   4.678 -0.1512 -1.8617  2.5107
 7647TIP3   OH244431   2.862   3.652   5.888 -0.2000  0.2022 -0.1289
 7647TIP3    H144432   2.945   3.657   5.935  0.0888  1.5803 -0.7358
 7647TIP3    H244433   2.811   3.726   5.921 -0.6839  0.1279 -0.6814
 7648TIP3   OH244434   1.108   4.420   3.155 -0.1429 -0.5525 -0.1963
 7648TIP3    H144435   1.076   4.509   3.136  1.9424  0.6072  1.3247
 7648TIP3    H244436   1.158   4.395   3.078 -0.6997 -0.3918 -0.6151
 7649TIP3   OH244437   0.573   1.210  16.315  0.4400 -0.5795  0.6399
 7649TIP3    H144438   0.501   1.169  16.268  0.4822 -0.4787  0.4882
 7649TIP3    H244439   0.632   1.242  16.247 -0.7386  1.8427  0.6626
 7650TIP3   OH244440   1.709   3.637  17.101  0.4096  0.3969  0.1797
 7650TIP3    H144441   1.659   3.592  17.033  1.9737 -1.5105  0.1815
 7650TIP3    H244442   1.776   3.686  17.053  1.1224 -0.4462  0.2855
 7651TIP3   OH244443   1.231   5.054  15.383 -0.1683 -0.4927  0.0002
 7651TIP3    H144444   1.210   5.147  15.370 -1.4648 -0.5054  1.6097
 7651TIP3    H244445   1.244   5.019  15.295 -1.5589  0.8037 -0.7579
 7652TIP3   OH244446   0.210   2.678  11.225  0.6607  0.8705 -0.4090
 7652TIP3    H144447   0.127   2.657  11.267  0.8605 -0.7078 -0.7544
 7652TIP3    H244448   0.222   2.772  11.241 -1.2941  1.1832 -0.5647
 7653TIP3   OH244449   3.549   0.262   1.419 -0.3053 -0.4740 -0.0399
 7653TIP3    H144450   3.628   0.305   1.385 -0.0431 -0.7862  0.1660
 7653TIP3    H244451   3.489   0.261   1.344 -0.8708  1.5298  0.3344
 7654TIP3   OH244452   3.394   0.257   2.669  0.0223 -0.1495 -0.5570
 7654TIP3    H144453   3.451   0.240   2.745  0.2860  1.1879 -0.4354
 7654TIP3    H244454   3.308   0.226   2.697  0.2020 -0.0432  0.1341
 7655TIP3   OH244455   3.066   1.049  12.355 -0.4933  0.2858 -0.4105
 7655TIP3    H144456   3.006   1.123  12.352  0.1416  0.8607  0.4813
 7655TIP3    H244457   3.060   1.018  12.446  2.8113  2.3222  0.6845
 7656TIP3   OH244458   3.084   3.679   2.762 -0.2696  0.3967  0.2793
 7656TIP3    H144459   3.142   3.610   2.795  0.3391 -0.1027 -1.6955
 7656TIP3    H244460   3.115   3.758   2.805  2.6111  0.3330 -1.4053
 7657TIP3   OH244461   2.657   5.608  15.411 -0.1716 -0.0291 -0.9691
 7657TIP3    H144462   2.562   5.613  15.420 -0.2944 -0.7253 -1.7072
 7657TIP3    H244463   2.680   5.684  15.357 -0.1440  0.8496  0.2580
 7658TIP3   OH244464   6.023   6.629  14.932  0.0742 -0.2097  0.0289
 7658TIP3    H144465   6.040   6.579  15.012 -0.4165  0.6803  0.7048
 7658TIP3    H244466   6.109   6.641  14.893  0.4107 -0.0266  0.8044
 7659TIP3   OH244467   5.543   2.312  15.022  0.3589  0.2693 -0.3237
 7659TIP3    H144468   5.561   2.376  14.953 -0.1181  1.0744  0.2977
 7659TIP3    H244469   5.604   2.334  15.092 -0.0906  0.3103  0.0603
 7660TIP3   OH244470   3.083   0.468   4.466 -0.3929  0.1115  0.2384
 7660TIP3    H144471   2.993   0.493   4.490 -0.1570  0.2274  1.0505
 7660TIP3    H244472   3.093   0.380   4.500 -0.1951  0.0995  0.1482
 7661TIP3   OH244473   1.209   6.400  15.167 -0.5014 -0.3063 -0.0160
 7661TIP3    H144474   1.163   6.467  15.116  0.3282 -0.0798 -0.4942
 7661TIP3    H244475   1.151   6.324  15.164 -0.1610 -0.5603 -1.9735
 7662TIP3   OH244476   4.156   1.875   1.997  0.2581 -0.1826  0.7515
 7662TIP3    H144477   4.116   1.824   1.927  2.6598 -2.6605  1.0359
 7662TIP3    H244478   4.135   1.827   2.077  1.2978  0.0853  1.2001
 7663TIP3   OH244479   4.758   0.263  13.041 -0.0561  0.4014 -0.5101
 7663TIP3    H144480   4.693   0.279  12.973  0.1585  2.4911 -0.3124
 7663TIP3    H244481   4.815   0.340  13.037  3.3253 -1.9351 -1.6213
 7664TIP3   OH244482   1.821   4.604  11.513 -0.2939 -0.6939 -0.3405
 7664TIP3    H144483   1.739   4.568  11.479 -0.0256 -2.2491  0.5487
 7664TIP3    H244484   1.820   4.582  11.606  1.2197 -0.9750 -0.3597
 7665TIP3   OH244485   2.604   2.638   0.913 -0.1711  0.0826 -0.3680
 7665TIP3    H144486   2.596   2.684   0.829  2.3025 -0.8732 -1.2398
 7665TIP3    H244487   2.552   2.558   0.901 -0.6636  0.4380 -0.6137
 7666TIP3   OH244488   6.303   5.403   0.306  0.2603 -0.2319  0.4757
 7666TIP3    H144489   6.234   5.430   0.245 -1.1169 -0.1578  2.0044
 7666TIP3    H244490   6.369   5.362   0.250  0.0974  1.7836 -1.3265
 7667TIP3   OH244491   2.474   0.219  12.660 -0.2983  0.2607  0.3111
 7667TIP3    H144492   2.467   0.184  12.571 -1.7074 -1.0588  0.9031
 7667TIP3    H244493   2.520   0.151  12.709 -2.0704 -0.3489  1.2208
 7668TIP3   OH244494   3.796   4.865  15.047 -0.3632 -0.2720 -0.3039
 7668TIP3    H144495   3.725   4.929  15.037 -0.4247 -0.2022  0.4783
 7668TIP3    H244496   3.755   4.781  15.027 -0.6578 -0.2261  0.0908
 7669TIP3   OH244497   2.940   5.315  15.060 -0.4056 -0.2534  0.6501
 7669TIP3    H144498   2.998   5.267  15.001  0.5295 -0.7888  1.9483
 7669TIP3    H244499   2.933   5.402  15.022  0.4091 -0.4953 -0.0865
 7670TIP3   OH244500   6.429   6.766   1.478  0.1753 -0.0543  0.1164
 7670TIP3    H144501   6.337   6.786   1.462  0.2654 -1.0807 -2.1253
 7670TIP3    H244502   6.433   6.739   1.570 -1.8748 -0.6098  0.0872
 7671TIP3   OH244503   2.845   1.254  11.535  0.0979  0.2733 -0.4273
 7671TIP3    H144504   2.835   1.336  11.487  0.8905  1.0968  0.7632
 7671TIP3    H244505   2.872   1.191  11.469  0.8256  1.2934 -1.1393
 7672TIP3   OH244506   3.786   0.446   2.826  0.0973 -0.0174  0.2063
 7672TIP3    H144507   3.878   0.448   2.853  0.9291  0.5129 -2.4511
 7672TIP3    H244508   3.786   0.403   2.741 -2.2141 -0.4459  0.3479
 7673TIP3   OH244509   0.837   2.756  10.940  0.2340 -0.4170  0.0663
 7673TIP3    H144510   0.829   2.802  10.857  1.2360 -0.8540 -0.2814
 7673TIP3    H244511   0.840   2.663  10.916  1.4099 -0.5048  0.5206
 7674TIP3   OH244512   5.030   2.390   1.355  0.0599 -0.1155 -0.1500
 7674TIP3    H144513   4.966   2.354   1.417 -0.6200  0.2370 -0.6265
 7674TIP3    H244514   5.114   2.382   1.399 -0.0449 -2.2934 -0.2419
 7675TIP3   OH244515   1.347   4.816  14.874  0.0084  0.5326  0.6357
 7675TIP3    H144516   1.302   4.740  14.836  1.2247  0.8251 -1.5210
 7675TIP3    H244517   1.430   4.781  14.905  0.1593  0.8173  0.5515
 7676TIP3   OH244518   4.929   2.620  13.195 -0.3210 -0.2225 -0.0319
 7676TIP3    H144519   4.885   2.704  13.211 -0.4156 -0.5298  1.4664
 7676TIP3    H244520   4.866   2.554  13.226 -0.2851 -0.8676 -1.2660
 7677TIP3   OH244521   5.169   6.248   5.234  0.3047  0.1123 -0.2628
 7677TIP3    H144522   5.238   6.211   5.288 -1.3291 -1.5082  0.8256
 7677TIP3    H244523   5.129   6.316   5.288  1.4511  1.5762 -1.1717
 7678TIP3   OH244524   6.796   0.652   4.745 -0.1873  0.2624 -0.3207
 7678TIP3    H144525   6.767   0.687   4.661 -0.1554 -0.9807 -0.8807
 7678TIP3    H244526   6.892   0.658   4.741 -0.2201  1.0726  0.0285
 7679TIP3   OH244527   0.325   0.487  13.210  0.4921 -0.3315  0.3774
 7679TIP3    H144528   0.411   0.448  13.196  0.1849 -0.9427  0.1495
 7679TIP3    H244529   0.343   0.573  13.248  1.3523  0.7715 -2.2537
 7680TIP3   OH244530   6.721   4.604   2.251 -0.4287  0.4708 -0.2852
 7680TIP3    H144531   6.687   4.651   2.175 -0.3357 -1.0447 -1.2902
 7680TIP3    H244532   6.816   4.609   2.242 -0.3991  1.1798  0.3146
 7681TIP3   OH244533   5.616   1.642  11.754 -0.2132  0.0527 -0.3632
 7681TIP3    H144534   5.675   1.717  11.759  1.7201 -1.3341 -1.0521
 7681TIP3    H244535   5.528   1.680  11.756  0.6883  2.2989 -0.5139
 7682TIP3   OH244536   2.098   3.226   5.237 -0.0176  0.4830  0.3096
 7682TIP3    H144537   2.102   3.168   5.314  2.8304  0.6677  0.4207
 7682TIP3    H244538   2.037   3.295   5.262 -1.9948 -1.3733  0.9352
 7683TIP3   OH244539   6.514   0.989   1.920 -0.0384 -0.1351  0.3990
 7683TIP3    H144540   6.542   1.078   1.943  2.5969 -0.6876 -0.3604
 7683TIP3    H244541   6.420   0.997   1.907 -0.6592  1.6299  4.4573
 7684TIP3   OH244542   1.868   0.442   4.794 -0.1766 -0.3590  0.5352
 7684TIP3    H144543   1.918   0.478   4.867 -1.1676 -0.0372  1.0671
 7684TIP3    H244544   1.784   0.487   4.797  0.3456  0.9133 -1.8456
 7685TIP3   OH244545   6.707   5.942   4.374 -0.0355  0.2104 -0.3229
 7685TIP3    H144546   6.711   5.982   4.461 -0.2125  0.3806 -0.3943
 7685TIP3    H244547   6.742   6.008   4.315 -0.9024  0.5058 -0.5241
 7686TIP3   OH244548   3.203   0.829   5.843 -0.8922 -0.5008  0.1780
 7686TIP3    H144549   3.262   0.800   5.774  0.2305  0.3782  0.7498
 7686TIP3    H244550   3.223   0.772   5.917 -0.0827  0.4168  0.6728
 7687TIP3   OH244551   1.602   5.441   3.087 -0.0649  0.1026 -0.0042
 7687TIP3    H144552   1.544   5.365   3.084 -1.6446  1.2701 -2.9063
 7687TIP3    H244553   1.578   5.486   3.169 -1.1315 -1.0088  0.3207
 7688TIP3   OH244554   2.745   0.849  15.252 -0.4354  0.1764  0.0654
 7688TIP3    H144555   2.683   0.921  15.266 -1.1821 -0.5447  0.5974
 7688TIP3    H244556   2.691   0.770  15.261  0.6556 -0.4832  1.0376
 7689TIP3   OH244557   3.687   0.538   0.094  0.2165  0.0192  0.3975
 7689TIP3    H144558   3.597   0.537   0.062  0.4211  1.2639 -0.2382
 7689TIP3    H244559   3.724   0.619   0.061  1.4816 -0.3147  0.9387
 7690TIP3   OH244560   6.467   4.887  16.226 -0.5752  0.2434 -0.3624
 7690TIP3    H144561   6.544   4.906  16.281 -0.8509 -0.6506  0.3544
 7690TIP3    H244562   6.396   4.935  16.268 -0.9064 -0.8987  0.4224
 7691TIP3   OH244563   3.421   0.057   1.964 -0.4418  0.0246  0.2298
 7691TIP3    H144564   3.382   0.003   1.896 -2.6495  0.7673  0.8234
 7691TIP3    H244565   3.389   0.145   1.947 -0.5344  0.3367  1.8074
 7692TIP3   OH244566   6.707   4.254   3.291 -0.0552  0.1613  0.0970
 7692TIP3    H144567   6.645   4.182   3.283  0.7626 -0.4301 -1.1409
 7692TIP3    H244568   6.783   4.216   3.334  0.3947  0.2678 -0.5928
 7693TIP3   OH244569   4.093   5.304  14.812 -0.2468 -0.2939 -0.5216
 7693TIP3    H144570   4.056   5.270  14.894  1.7361  0.0545  0.6075
 7693TIP3    H244571   4.032   5.371  14.783 -0.3047  0.6125  1.5064
 7694TIP3   OH244572   5.719   1.391  11.732  0.6446  0.4027 -0.2119
 7694TIP3    H144573   5.679   1.473  11.760 -0.6339 -0.7652  1.6552
 7694TIP3    H244574   5.775   1.365  11.805  1.6616 -0.0173 -1.1085
 7695TIP3   OH244575   0.023   4.519  11.229 -0.0640 -0.2074 -0.8004
 7695TIP3    H144576  -0.007   4.430  11.248  0.9520 -0.6620 -1.2996
 7695TIP3    H244577  -0.037   4.550  11.161 -1.3796  0.0793  0.4145
 7696TIP3   OH244578   0.897   3.815   4.032 -0.0350  0.0001 -0.3223
 7696TIP3    H144579   0.831   3.805   3.963 -1.7412 -0.2139  1.2381
 7696TIP3    H244580   0.900   3.729   4.074  1.0987  0.0763 -0.2259
 7697TIP3   OH244581   6.141   6.669   4.500  0.1625 -0.0525  0.1606
 7697TIP3    H144582   6.098   6.595   4.456 -2.1960  0.9907  0.5877
 7697TIP3    H244583   6.158   6.732   4.430  0.2259 -0.1071  0.1262
 7698TIP3   OH244584   3.959   1.020   2.620 -0.0577 -0.4546  0.3595
 7698TIP3    H144585   3.877   1.059   2.649  0.4104  1.3845 -0.6591
 7698TIP3    H244586   3.936   0.974   2.539 -0.0492  0.3212 -0.0940
 7699TIP3   OH244587   3.060   6.551   0.209  0.6039 -0.5550  0.4313
 7699TIP3    H144588   3.129   6.614   0.228  0.0330  0.7686 -1.4830
 7699TIP3    H244589   2.993   6.568   0.276  1.2602 -0.4365  1.0671
 7700TIP3   OH244590   1.950   6.035  13.953  0.2468 -0.3385 -1.0031
 7700TIP3    H144591   1.986   6.104  13.897  0.2341  0.7436  0.2767
 7700TIP3    H244592   1.856   6.050  13.951  0.3433  0.6770  0.4750
 7701TIP3   OH244593   1.257   1.669   2.637 -0.2147  0.0596 -0.1817
 7701TIP3    H144594   1.281   1.758   2.661 -2.3286  1.1476 -1.8142
 7701TIP3    H244595   1.223   1.631   2.718  0.9215  0.6069  0.5861
 7702TIP3   OH244596   5.546   5.878   5.839 -0.3957 -0.2622  0.2856
 7702TIP3    H144597   5.611   5.908   5.903 -0.5620  1.5961 -0.3797
 7702TIP3    H244598   5.471   5.851   5.891  0.0338 -0.2093  0.9396
 7703TIP3   OH244599   0.566   4.554  12.802  0.1221  0.2066 -0.2251
 7703TIP3    H144600   0.626   4.553  12.728 -1.1422  0.5722 -1.2896
 7703TIP3    H244601   0.483   4.583  12.765 -0.1893  1.8600  1.6121
 7704TIP3   OH244602   1.711   2.273  10.336  0.3400 -0.0990 -0.1082
 7704TIP3    H144603   1.653   2.245  10.407 -0.7855 -0.5874 -1.1802
 7704TIP3    H244604   1.652   2.286  10.261  1.3568  1.4186 -0.6874
 7705TIP3   OH244605   4.182   5.219  14.304  0.7915 -0.3334 -0.3201
 7705TIP3    H144606   4.150   5.132  14.325  2.3761 -0.2910  2.8216
 7705TIP3    H244607   4.111   5.278  14.330  0.7695 -0.5728  0.1858
 7706TIP3   OH244608   4.816   3.777   2.061  0.6220  0.1631  0.0290
 7706TIP3    H144609   4.847   3.695   2.023  1.0294  1.0446 -1.6261
 7706TIP3    H244610   4.856   3.780   2.148  2.1333 -0.5011 -0.6146
 7707TIP3   OH244611   0.980   0.361  13.332  0.9895 -0.7895  0.6285
 7707TIP3    H144612   1.051   0.300  13.311  1.2832 -0.3288  0.2826
 7707TIP3    H244613   0.904   0.328  13.283  0.1912 -2.8593  3.0551
 7708TIP3   OH244614   3.397   2.671   5.097  0.1338 -0.6231  0.0091
 7708TIP3    H144615   3.407   2.724   5.018 -0.3905 -1.4285 -0.6066
 7708TIP3    H244616   3.394   2.581   5.066  2.8098 -1.2127  1.1817
 7709TIP3   OH244617   3.362   2.328  16.013  0.0671  0.4758  0.2352
 7709TIP3    H144618   3.363   2.374  16.097 -0.0212 -1.6384  1.4701
 7709TIP3    H244619   3.425   2.257  16.023 -1.0887 -0.7783 -0.8929
 7710TIP3   OH244620   3.186   1.520   4.798 -0.3124 -0.0689  0.1449
 7710TIP3    H144621   3.199   1.608   4.834  2.0594  0.0047 -0.7089
 7710TIP3    H244622   3.271   1.497   4.761 -1.8907 -1.1523 -3.1673
 7711TIP3   OH244623   0.569   4.407   1.623  0.1562 -0.1024 -0.2638
 7711TIP3    H144624   0.665   4.406   1.631  0.0469  0.8231  2.6581
 7711TIP3    H244625   0.541   4.326   1.666 -0.4039  0.4222  0.3716
 7712TIP3   OH244626   1.454   2.872   3.046 -0.5391 -0.1418 -0.1763
 7712TIP3    H144627   1.410   2.850   3.128  0.8930 -2.5109  0.0285
 7712TIP3    H244628   1.546   2.880   3.069 -0.2979  0.6144 -1.3293
 7713TIP3   OH244629   6.558   2.344   0.693  0.1607 -0.2547 -0.1089
 7713TIP3    H144630   6.506   2.295   0.629  0.5142 -2.9824  1.5347
 7713TIP3    H244631   6.493   2.393   0.743 -0.3975 -0.4046 -0.6621
 7714TIP3   OH244632   5.746   0.093   2.400 -0.3588  0.1304 -0.3978
 7714TIP3    H144633   5.664   0.047   2.382 -0.0087 -0.1056 -1.5029
 7714TIP3    H244634   5.766   0.138   2.318  1.1144 -0.6116 -0.4774
 7715TIP3   OH244635   2.382   5.092  16.514 -0.6322  0.1392 -0.5663
 7715TIP3    H144636   2.429   5.163  16.471 -0.7697  0.8316  0.3870
 7715TIP3    H244637   2.319   5.062  16.449 -0.5745  0.9015 -0.9819
 7716TIP3   OH244638   0.005   2.819  14.042 -0.9101  0.0361  0.2287
 7716TIP3    H144639  -0.061   2.805  13.974  0.7190 -1.1607 -1.2016
 7716TIP3    H244640   0.088   2.825  13.994 -0.0029  2.1877  1.8951
 7717TIP3   OH244641   2.921   0.570   5.071 -0.0504 -0.6854  0.5660
 7717TIP3    H144642   2.873   0.589   4.991 -1.4600  0.0628  1.5238
 7717TIP3    H244643   2.875   0.495   5.110  0.8149 -1.2471  0.5201
 7718TIP3   OH244644   5.952   0.737   2.601 -0.2398 -0.2609  0.0739
 7718TIP3    H144645   5.970   0.717   2.509 -1.7488  0.6690 -0.4643
 7718TIP3    H244646   5.858   0.721   2.611 -0.3988  1.1060  1.0391
 7719TIP3   OH244647   3.866   6.504   4.084 -0.3771 -0.5260  0.1185
 7719TIP3    H144648   3.919   6.526   4.006  0.1794 -0.1791  0.5846
 7719TIP3    H244649   3.802   6.575   4.089 -0.5641 -0.6757 -0.1626
 7720TIP3   OH244650   0.653   0.790  13.475  0.1082 -0.4096  0.8008
 7720TIP3    H144651   0.674   0.771  13.384  0.7972  1.3623  0.5504
 7720TIP3    H244652   0.733   0.830  13.511 -0.5691  0.1163  1.7915
 7721TIP3   OH244653   3.127   4.636   1.352 -0.5225  0.1874  0.2928
 7721TIP3    H144654   3.211   4.675   1.327 -1.0627  1.1573 -0.0995
 7721TIP3    H244655   3.150   4.553   1.393  0.5993  0.2149 -0.2381
 7722TIP3   OH244656   6.494   5.356  15.752 -0.1672 -0.0805 -0.0972
 7722TIP3    H144657   6.444   5.437  15.752  0.8840  0.6310 -2.1281
 7722TIP3    H244658   6.438   5.293  15.707 -0.4433 -0.1352  0.3158
 7723TIP3   OH244659   2.322   4.209   6.655  0.0419 -0.0886 -0.7203
 7723TIP3    H144660   2.390   4.166   6.603 -0.9929 -0.6161 -1.6707
 7723TIP3    H244661   2.340   4.180   6.745  0.9525 -0.3712 -0.9738
 7724TIP3   OH244662   2.005   5.680   5.924 -0.5289 -0.7889  0.4438
 7724TIP3    H144663   1.995   5.763   5.970 -2.1645 -1.1254  0.7615
 7724TIP3    H244664   1.997   5.614   5.993  0.3288 -1.2343  0.1346
 7725TIP3   OH244665   0.675   4.752   1.774 -0.1797 -0.1787  0.1027
 7725TIP3    H144666   0.701   4.831   1.728  0.4594 -1.3139 -1.6042
 7725TIP3    H244667   0.593   4.725   1.732 -0.0658 -0.7541  0.2293
 7726TIP3   OH244668   1.345   5.891  12.078 -0.0531 -0.4078 -0.1328
 7726TIP3    H144669   1.347   5.982  12.050 -1.7806  0.0955  1.1414
 7726TIP3    H244670   1.422   5.880  12.134  0.0710  0.3251 -0.1589
 7727TIP3   OH244671   2.544   2.461  14.927 -0.2245 -0.4055  0.3162
 7727TIP3    H144672   2.452   2.435  14.913  0.1846 -1.9182  0.2201
 7727TIP3    H244673   2.594   2.387  14.891  1.0534  0.7817 -0.4195
 7728TIP3   OH244674   0.518   0.403  11.774  0.2831 -0.3217 -0.0141
 7728TIP3    H144675   0.578   0.362  11.837  1.3208 -1.3244 -1.5711
 7728TIP3    H244676   0.453   0.335  11.757  1.2797 -0.9096 -1.6500
 7729TIP3   OH244677   4.096   3.205   3.476 -0.4881  0.2847 -0.6198
 7729TIP3    H144678   4.175   3.258   3.485 -0.1260 -0.3811  0.3122
 7729TIP3    H244679   4.026   3.261   3.508 -0.2280  0.5083 -0.4329
 7730TIP3   OH244680   4.992   0.379  10.891 -0.4633  0.0864 -0.4442
 7730TIP3    H144681   5.066   0.347  10.840 -0.1152 -0.6220  0.4741
 7730TIP3    H244682   4.984   0.471  10.868  1.6306  0.5662  0.5155
 7731TIP3   OH244683   5.202   1.864  14.102 -0.0697 -0.2917 -0.3556
 7731TIP3    H144684   5.116   1.905  14.099 -0.8999 -1.9781 -0.6915
 7731TIP3    H244685   5.184   1.770  14.114  1.7547 -0.5302  0.9294
 7732TIP3   OH244686   5.979   2.645   6.824 -0.5987 -0.5231  0.3840
 7732TIP3    H144687   6.017   2.580   6.883 -0.6662 -1.0902 -0.1906
 7732TIP3    H244688   5.890   2.613   6.808 -0.4681 -0.5519 -0.2892
 7733TIP3   OH244689   4.035   1.170  13.988 -0.4212 -0.8437  0.1513
 7733TIP3    H144690   4.015   1.263  13.984  1.6213 -0.3780 -0.7852
 7733TIP3    H244691   4.074   1.157  14.074  0.3695 -0.5694 -0.1588
 7734TIP3   OH244692   2.375   3.731  12.224  0.0102 -0.0760  0.6621
 7734TIP3    H144693   2.450   3.671  12.215 -0.0406 -0.1723  0.8899
 7734TIP3    H244694   2.344   3.718  12.313 -1.3480 -1.2838  0.0571
 7735TIP3   OH244695   4.318   3.984  12.589 -0.2381  0.1779 -0.7425
 7735TIP3    H144696   4.413   3.980  12.603 -0.2788 -3.3363 -0.4985
 7735TIP3    H244697   4.306   3.952  12.499 -1.1975 -0.0650 -0.5432
 7736TIP3   OH244698   6.243   5.650   4.319  0.2463  0.2352  0.3367
 7736TIP3    H144699   6.159   5.617   4.351 -0.4192  1.1445 -0.4171
 7736TIP3    H244700   6.286   5.574   4.281  0.2180 -0.4497  1.6223
 7737TIP3   OH244701   2.324   5.352   0.724 -0.1831 -0.7314  0.2882
 7737TIP3    H144702   2.305   5.258   0.730 -3.4827 -0.4650 -2.9512
 7737TIP3    H244703   2.385   5.359   0.650  0.1316 -0.2778  0.5864
 7738TIP3   OH244704   6.320   4.480   5.204 -0.0975 -0.5218 -0.0360
 7738TIP3    H144705   6.383   4.533   5.253 -0.2982 -1.3573  1.1815
 7738TIP3    H244706   6.285   4.540   5.138  0.2365  0.6408  0.8018
 7739TIP3   OH244707   1.937   5.464   3.024 -0.7089  0.1058 -0.0707
 7739TIP3    H144708   1.875   5.444   2.954 -0.8082 -1.6600  0.4713
 7739TIP3    H244709   1.911   5.407   3.097 -0.3488  1.5836  1.2657
 7740TIP3   OH244710   1.242   3.063  12.097 -0.6461 -0.3322 -0.2441
 7740TIP3    H144711   1.311   3.035  12.156 -0.6976  0.9533  0.4698
 7740TIP3    H244712   1.163   3.062  12.151 -1.3990 -2.6071 -1.2668
 7741TIP3   OH244713   5.046   0.775  15.818 -0.9016 -0.3300  0.1107
 7741TIP3    H144714   5.088   0.860  15.824 -0.6561 -0.4544  0.1377
 7741TIP3    H244715   5.053   0.751  15.726 -1.4021 -0.1013  0.0093
 7742TIP3   OH244716   0.643   3.442   1.064  0.0370  0.0976  0.0169
 7742TIP3    H144717   0.707   3.492   1.113  0.7767 -1.0136  0.2218
 7742TIP3    H244718   0.628   3.363   1.117 -0.7056 -0.1574 -0.5444
 7743TIP3   OH244719   2.229   4.867   4.942 -0.4240  0.6910 -0.7007
 7743TIP3    H144720   2.202   4.839   5.029  1.6390  0.4990 -0.0604
 7743TIP3    H244721   2.210   4.791   4.886 -0.6360  0.3555 -0.1804
 7744TIP3   OH244722   1.583   5.259   4.728 -0.4563 -0.0999 -0.2627
 7744TIP3    H144723   1.504   5.264   4.673  0.2035  0.5863 -1.1734
 7744TIP3    H244724   1.655   5.275   4.668  0.3971 -0.7377  0.5604
 7745TIP3   OH244725   1.615   1.852  10.587 -0.0094  0.2173 -0.8007
 7745TIP3    H144726   1.575   1.939  10.589  0.6687  0.5535  1.6750
 7745TIP3    H244727   1.543   1.792  10.604 -0.2392  0.4144 -1.0679
 7746TIP3   OH244728   2.045   1.296   6.263  0.2148  0.0694 -0.0228
 7746TIP3    H144729   2.069   1.357   6.193  0.3116 -1.5131 -1.4346
 7746TIP3    H244730   1.950   1.307   6.272  0.2998  0.7723  0.1049
 7747TIP3   OH244731   0.775   4.782   0.315  0.4032 -0.0522 -0.5311
 7747TIP3    H144732   0.739   4.871   0.312 -0.4311 -0.4147 -2.5701
 7747TIP3    H244733   0.845   4.788   0.380  0.9229  2.3060 -1.2016
 7748TIP3   OH244734   2.354   5.430  15.653  0.2838 -0.2935  0.7093
 7748TIP3    H144735   2.364   5.339  15.624  3.5537  0.2105 -0.1421
 7748TIP3    H244736   2.295   5.425  15.728 -0.4644 -2.9587  0.0579
 7749TIP3   OH244737   6.820   3.344  16.980 -0.7126  0.2885  0.3314
 7749TIP3    H144738   6.877   3.419  16.998  0.6185 -0.9317  1.4864
 7749TIP3    H244739   6.771   3.332  17.061 -0.1862 -0.6806  0.5139
 7750TIP3   OH244740   3.407   1.556   3.346  0.3886  0.3535 -0.7572
 7750TIP3    H144741   3.320   1.590   3.323  0.4843  0.5462 -0.8335
 7750TIP3    H244742   3.395   1.461   3.349  0.2667  0.3558 -1.1541
 7751TIP3   OH244743   2.663   3.613  11.568  0.7934 -0.3948 -0.6288
 7751TIP3    H144744   2.697   3.696  11.602  0.1154 -0.1969 -0.4168
 7751TIP3    H244745   2.610   3.638  11.492  0.7111 -0.6495 -0.6550
 7752TIP3   OH244746   6.339   0.972   4.530  0.2139  0.3821  0.0180
 7752TIP3    H144747   6.273   0.998   4.466 -0.1656 -0.4384  0.0629
 7752TIP3    H244748   6.339   0.876   4.527  1.0004  0.3589  0.4277
 7753TIP3   OH244749   2.391   4.872  13.710 -0.5617  0.1741  0.7793
 7753TIP3    H144750   2.330   4.900  13.641  1.0675  0.0330 -0.7905
 7753TIP3    H244751   2.370   4.780  13.724  1.1625 -0.7205 -1.9137
 7754TIP3   OH244752   5.918   4.471  14.789  0.0395  0.2310  0.3056
 7754TIP3    H144753   5.918   4.397  14.728  0.1032  0.6693 -0.2291
 7754TIP3    H244754   5.881   4.435  14.870 -0.8359 -0.1486 -0.2450
 7755TIP3   OH244755   0.285   5.134  12.736  0.5922  0.7937  0.0065
 7755TIP3    H144756   0.254   5.077  12.807  0.1043  1.9465  0.7535
 7755TIP3    H244757   0.362   5.089  12.701  0.3588 -0.2014  0.7308
 7756TIP3   OH244758   2.564   5.178   1.002 -0.7171 -0.3901  0.1490
 7756TIP3    H144759   2.510   5.150   0.929 -0.0603  0.3005 -0.6184
 7756TIP3    H244760   2.651   5.143   0.983 -0.2089  0.9444 -0.1303
 7757TIP3   OH244761   4.266   5.154  15.058 -0.3822 -0.0371  0.6206
 7757TIP3    H144762   4.184   5.110  15.034 -1.0537 -0.0863  2.8241
 7757TIP3    H244763   4.243   5.247  15.060  0.4723  0.2897 -1.8416
 7758TIP3   OH244764   5.507   2.952  11.771 -0.3971  0.7719  0.0454
 7758TIP3    H144765   5.511   3.038  11.812 -1.3145  1.5951 -1.5197
 7758TIP3    H244766   5.474   2.968  11.683 -1.1603 -1.2552 -0.0991
 7759TIP3   OH244767   2.910   4.332  16.980 -0.0481 -0.4106 -0.5464
 7759TIP3    H144768   3.001   4.360  16.974  0.5719 -2.3382 -0.9055
 7759TIP3    H244769   2.866   4.402  17.028  1.6209  0.5493 -0.3527
 7760TIP3   OH244770   2.673   6.287   5.580 -0.3113 -0.0262 -0.7099
 7760TIP3    H144771   2.667   6.230   5.504 -0.0071 -1.4640  0.3078
 7760TIP3    H244772   2.592   6.337   5.579 -0.5610 -0.4397 -1.6575
 7761TIP3   OH244773   6.756   1.277  12.505 -0.2360 -0.0877  0.9741
 7761TIP3    H144774   6.744   1.238  12.418  0.6252  2.9827 -0.6772
 7761TIP3    H244775   6.679   1.332  12.518  0.4103  0.7506  1.3835
 7762TIP3   OH244776   5.952   4.514   6.112 -0.4087 -0.1904 -0.2346
 7762TIP3    H144777   5.967   4.530   6.205  1.7444 -0.1702 -0.5477
 7762TIP3    H244778   5.937   4.601   6.075  0.1457 -0.0452 -0.1260
 7763TIP3   OH244779   3.989   6.529  13.977 -0.1041 -0.6299 -0.2193
 7763TIP3    H144780   4.056   6.575  14.027  1.9911 -1.3436 -2.2373
 7763TIP3    H244781   3.967   6.452  14.031  1.3919 -0.8788  0.0623
 7764TIP3   OH244782   2.572   4.257   2.443  0.1823 -0.0058 -0.3649
 7764TIP3    H144783   2.630   4.181   2.442 -0.1376 -0.3344  1.4182
 7764TIP3    H244784   2.627   4.330   2.416  1.2659 -0.4437  0.5740
 7765TIP3   OH244785   4.700   1.798   6.358 -0.6625  0.1664  0.1848
 7765TIP3    H144786   4.749   1.747   6.423 -2.3043 -0.3796  1.0449
 7765TIP3    H244787   4.671   1.733   6.295 -1.5812  0.2380  0.5277
 7766TIP3   OH244788   4.284   4.907  16.678  0.2259  0.3302 -0.0312
 7766TIP3    H144789   4.284   4.837  16.613  0.1004  0.3776 -0.0832
 7766TIP3    H244790   4.205   4.958  16.658  0.0612  0.2090  0.3021
 7767TIP3   OH244791   6.450   1.980   4.404  0.0815 -0.3484  0.1267
 7767TIP3    H144792   6.492   2.014   4.325  1.5849 -0.9137  0.6435
 7767TIP3    H244793   6.515   1.921   4.442 -1.5010 -1.8942  0.5616
 7768TIP3   OH244794   6.483   4.700   1.729  0.5738  0.6266 -0.0107
 7768TIP3    H144795   6.565   4.667   1.692  0.2426  1.1578 -1.2457
 7768TIP3    H244796   6.510   4.774   1.783  1.1967 -0.8932  1.9007
 7769TIP3   OH244797   1.690   4.977   1.733  0.4550  0.1585  0.2395
 7769TIP3    H144798   1.659   4.896   1.694 -2.6218  2.1094 -1.9197
 7769TIP3    H244799   1.610   5.021   1.763  1.8006  2.9256  0.1332
 7770TIP3   OH244800   3.996   3.861  14.002  0.0797 -0.3157  0.4028
 7770TIP3    H144801   4.058   3.833  13.934 -1.0734 -0.5448 -0.5761
 7770TIP3    H244802   3.965   3.946  13.972  0.6492  0.2580  1.4002
 7771TIP3   OH244803   4.138   5.760  14.531  0.0030  0.6141 -0.3594
 7771TIP3    H144804   4.211   5.787  14.586 -1.3556  0.7398  1.4808
 7771TIP3    H244805   4.151   5.666  14.519  0.7757  0.7412 -0.5756
 7772TIP3   OH244806   6.376   4.262   1.474  0.5190 -0.4579 -0.0480
 7772TIP3    H144807   6.343   4.261   1.384  0.9251  0.1231 -0.2020
 7772TIP3    H244808   6.330   4.334   1.516  0.0307 -0.9811  0.3290
 7773TIP3   OH244809   1.744   6.421   6.157  0.2170 -0.4736 -0.8250
 7773TIP3    H144810   1.762   6.515   6.153  0.3139 -0.3224  1.6043
 7773TIP3    H244811   1.830   6.380   6.147  0.4866 -0.1905  0.2130
 7774TIP3   OH244812   1.505   2.638   5.094  0.6018 -0.7525  0.2237
 7774TIP3    H144813   1.577   2.610   5.151  0.8541 -0.4759  0.0441
 7774TIP3    H244814   1.544   2.641   5.006  0.7395  0.6721  0.3052
 7775TIP3   OH244815   5.520   3.451   5.685  0.0545 -0.4016 -0.5792
 7775TIP3    H144816   5.558   3.527   5.730 -0.8688  0.4556 -1.2100
 7775TIP3    H244817   5.427   3.454   5.707 -0.1817 -0.7087 -1.4948
 7776TIP3   OH244818   2.084   1.927  10.538  0.0311 -0.1164 -0.5573
 7776TIP3    H144819   2.154   1.883  10.586  0.3185  0.1894 -0.6900
 7776TIP3    H244820   2.128   1.972  10.466 -0.4351 -0.8625 -1.3306
 7777TIP3   OH244821   2.596   5.091  17.112  0.0092 -0.5512 -0.2217
 7777TIP3    H144822   2.662   5.158  17.132  0.3289 -0.8636 -0.2207
 7777TIP3    H244823   2.606   5.075  17.018 -0.1500 -0.5121 -0.2460
 7778TIP3   OH244824   2.864   3.565  17.087  0.5793  0.4975 -0.0803
 7778TIP3    H144825   2.853   3.555  16.992  1.3907  0.9792 -0.2345
 7778TIP3    H244826   2.949   3.607  17.097  0.1381  1.2017  0.8298
 7779TIP3   OH244827   2.763   4.781  15.949 -0.2426 -0.1035  0.0189
 7779TIP3    H144828   2.721   4.696  15.936 -0.2950 -0.0351 -0.2757
 7779TIP3    H244829   2.692   4.844  15.935  0.0013  0.0210 -0.6924
 7780TIP3   OH244830   4.910   0.064   2.109  0.3011 -0.8318 -0.3099
 7780TIP3    H144831   4.959  -0.010   2.143  0.2478 -0.3677  0.8251
 7780TIP3    H244832   4.868   0.103   2.186 -0.1008  0.0562 -0.9529
 7781TIP3   OH244833   2.901   1.165   6.633 -0.5202  0.4715  0.2030
 7781TIP3    H144834   2.812   1.161   6.667 -1.2790  0.2099 -1.6461
 7781TIP3    H244835   2.891   1.151   6.538  1.5661 -0.4411  0.0525
 7782TIP3   OH244836   3.522   6.461   5.353  0.0485  0.2949 -0.3755
 7782TIP3    H144837   3.564   6.538   5.390 -1.1031  0.6005  0.3641
 7782TIP3    H244838   3.442   6.496   5.312 -1.3590 -0.6536  1.4055
 7783TIP3   OH244839   2.240   2.244  13.182  0.4387  0.1464 -0.5498
 7783TIP3    H144840   2.259   2.205  13.097 -1.0895 -1.2221 -0.3063
 7783TIP3    H244841   2.304   2.205  13.241  0.2837 -0.3669 -0.7186
 7784TIP3   OH244842   4.868   2.127   1.255 -0.3905 -0.0662 -0.2350
 7784TIP3    H144843   4.931   2.065   1.291  0.7974  1.4663  0.4718
 7784TIP3    H244844   4.786   2.105   1.299 -0.3391 -1.9396 -0.9823
 7785TIP3   OH244845   4.526   6.803   3.604 -0.2890 -0.2257  0.0371
 7785TIP3    H144846   4.591   6.758   3.659 -0.6159 -1.5006 -0.5721
 7785TIP3    H244847   4.563   6.798   3.516 -0.0080  1.3481  0.0441
 7786TIP3   OH244848   0.114   5.183  11.597  0.4863 -0.4852 -0.0600
 7786TIP3    H144849   0.086   5.102  11.640  0.2689 -0.3567  0.0370
 7786TIP3    H244850   0.056   5.191  11.521 -1.5424  1.1710  1.5605
 7787TIP3   OH244851   4.581   1.519  15.443  0.7814 -0.0975  0.0420
 7787TIP3    H144852   4.528   1.540  15.366  0.2690  1.2511  0.7277
 7787TIP3    H244853   4.518   1.495  15.511  1.1791 -0.5280  0.2700
 7788TIP3   OH244854   4.198   6.358   4.552  0.4456 -0.3205  0.7013
 7788TIP3    H144855   4.251   6.347   4.473 -1.1685 -0.4947 -0.4114
 7788TIP3    H244856   4.135   6.286   4.548 -0.1038  0.0870  1.7955
 7789TIP3   OH244857   5.821   5.952   1.611 -0.5775 -0.0704 -0.5665
 7789TIP3    H144858   5.793   5.955   1.519 -1.0455  1.2170 -0.3971
 7789TIP3    H244859   5.860   6.038   1.627 -0.1293 -0.4299  0.3305
 7790TIP3   OH244860   3.882   4.629  13.194  0.1953 -0.4050  0.0643
 7790TIP3    H144861   3.867   4.663  13.282  0.9904  0.5605 -0.1438
 7790TIP3    H244862   3.820   4.676  13.139 -0.2370 -0.9392  0.0885
 7791TIP3   OH244863   1.518   0.755   2.923  0.0553  0.3688 -0.1012
 7791TIP3    H144864   1.496   0.688   2.859 -1.2365 -0.3750  1.0671
 7791TIP3    H244865   1.459   0.828   2.903 -0.9829 -0.2034  0.7334
 7792TIP3   OH244866   3.583   2.320  12.275  0.6945  0.0504  0.1638
 7792TIP3    H144867   3.605   2.237  12.318  0.6090  0.0370  0.1836
 7792TIP3    H244868   3.617   2.387  12.334 -0.0399  0.0437  0.6124
 7793TIP3   OH244869   2.864   2.882  14.965  0.5549 -0.3729  0.1158
 7793TIP3    H144870   2.810   2.810  14.934  1.1437 -0.6176 -0.3744
 7793TIP3    H244871   2.871   2.868  15.060  0.8085 -1.0641 -0.0011
 7794TIP3   OH244872   3.556   2.734   4.439 -0.0628 -0.1070  0.1854
 7794TIP3    H144873   3.493   2.797   4.404 -1.2281 -0.6922  1.1606
 7794TIP3    H244874   3.502   2.668   4.483  1.1304 -1.6647 -0.5870
 7795TIP3   OH244875   3.461   3.944   0.687  0.0508  0.1625 -0.0916
 7795TIP3    H144876   3.480   3.850   0.689  0.9855  0.1566 -3.4707
 7795TIP3    H244877   3.371   3.950   0.655  0.4203  0.3973 -1.1211
 7796TIP3   OH244878   0.558   5.100  12.655 -0.0444 -0.1758  0.5031
 7796TIP3    H144879   0.589   5.167  12.594 -1.5742  0.6609  0.5872
 7796TIP3    H244880   0.634   5.079  12.709  0.1928  2.4563  1.3535
 7797TIP3   OH244881   4.932   4.746  16.084  0.3857  0.1570  0.5120
 7797TIP3    H144882   4.964   4.814  16.024  0.2183 -0.0568  0.1715
 7797TIP3    H244883   4.996   4.675  16.075 -0.1089 -0.2254 -0.0811
 7798TIP3   OH244884   5.014   6.247  11.438  0.2218 -0.1795  0.5448
 7798TIP3    H144885   5.000   6.242  11.344  1.4769 -0.4129  0.3451
 7798TIP3    H244886   5.055   6.163  11.460  1.1711  0.3891  1.0484
 7799TIP3   OH244887   5.176   0.402  11.603 -0.4636 -0.5458  0.1534
 7799TIP3    H144888   5.113   0.411  11.675 -0.2821  0.2850  0.2195
 7799TIP3    H244889   5.210   0.490  11.591  1.4964 -1.1665  0.8479
 7800TIP3   OH244890   2.266   3.453  14.442  0.2295  0.5637  0.8624
 7800TIP3    H144891   2.308   3.473  14.526  3.3482  0.9631 -0.6143
 7800TIP3    H244892   2.290   3.362  14.425  0.8079  0.8880 -0.1597
 7801TIP3   OH244893   5.535   6.070   0.296  0.2187  0.1051 -0.4121
 7801TIP3    H144894   5.538   6.080   0.200  0.7197 -2.9144 -0.7908
 7801TIP3    H244895   5.613   6.020   0.318 -0.2652  0.1180  1.5207
 7802TIP3   OH244896   5.746   4.827   6.669  0.1740 -0.1533  0.2264
 7802TIP3    H144897   5.817   4.814   6.732  1.1540 -1.3964 -1.0738
 7802TIP3    H244898   5.768   4.910   6.626  0.5633 -0.2737  0.1850
 7803TIP3   OH244899   6.052   4.027  12.705 -0.5000 -0.1204 -0.2724
 7803TIP3    H144900   5.999   4.080  12.764  1.7845  0.4841  1.3318
 7803TIP3    H244901   6.074   3.948  12.756 -0.0258 -0.4551 -0.9742
 7804TIP3   OH244902   0.218   0.306  14.548 -0.0788  0.0898 -0.3771
 7804TIP3    H144903   0.126   0.303  14.575 -0.2194 -0.0888 -0.8679
 7804TIP3    H244904   0.236   0.398  14.532 -0.0550  0.1735  0.1080
 7805TIP3   OH244905   5.765   2.711  10.649 -0.5998  0.7040 -0.6814
 7805TIP3    H144906   5.698   2.780  10.651 -1.3165  0.2610 -4.0254
 7805TIP3    H244907   5.724   2.637  10.694 -0.4293  1.8627  1.5279
 7806TIP3   OH244908   3.849   3.271   1.062 -0.2396 -0.1549  0.4210
 7806TIP3    H144909   3.777   3.252   1.122  0.7626 -3.3785  0.7778
 7806TIP3    H244910   3.836   3.211   0.989  0.5776  1.1829 -0.8739
 7807TIP3   OH244911   6.333   3.428   1.671  0.0876  0.0944  0.2916
 7807TIP3    H144912   6.370   3.354   1.720 -0.8968 -0.6994 -0.1080
 7807TIP3    H244913   6.378   3.505   1.705  0.1051 -0.5339  1.7572
 7808TIP3   OH244914   2.009   2.725  13.738  0.5280 -0.0891  0.6424
 7808TIP3    H144915   2.063   2.759  13.808  0.8330  0.2402  0.2549
 7808TIP3    H244916   2.071   2.681  13.679  0.5698  1.3096 -0.4192
 7809TIP3   OH244917   0.683   3.807  14.169 -1.0754 -0.0640  0.5254
 7809TIP3    H144918   0.632   3.848  14.098  0.0326 -0.7125 -0.6973
 7809TIP3    H244919   0.763   3.860  14.174 -1.2200  0.0704  1.4100
 7810TIP3   OH244920   6.097   4.134  13.672  0.1734 -0.6827  0.3953
 7810TIP3    H144921   6.072   4.203  13.610 -0.5699 -1.0619  0.2598
 7810TIP3    H244922   6.185   4.108  13.645 -0.7312 -1.9592 -1.5398
 7811TIP3   OH244923   1.655   2.364  11.814  0.0100  0.0124  0.5368
 7811TIP3    H144924   1.566   2.382  11.782 -0.0626 -1.2362 -0.0178
 7811TIP3    H244925   1.712   2.385  11.739  0.0600 -0.5024  0.4288
 7812TIP3   OH244926   4.400   2.887   3.825 -0.3313 -0.4689 -0.0856
 7812TIP3    H144927   4.334   2.903   3.893  0.3509 -1.2903  0.7932
 7812TIP3    H244928   4.475   2.850   3.872 -0.1724 -1.9129 -1.4078
 7813TIP3   OH244929   1.008   5.276   3.087 -0.4097  0.8930 -0.3825
 7813TIP3    H144930   1.036   5.251   3.175  1.1843  2.5234 -0.3728
 7813TIP3    H244931   0.921   5.236   3.077  0.3617 -1.2901  1.0158
 7814TIP3   OH244932   0.658   6.109   4.097  0.4259 -0.0798 -0.1888
 7814TIP3    H144933   0.700   6.192   4.119 -0.3516  0.4614 -0.6947
 7814TIP3    H244934   0.695   6.046   4.160 -0.9951  1.1903  2.0507
 7815TIP3   OH244935   4.611   0.827   2.694  0.4890 -0.2580 -0.1779
 7815TIP3    H144936   4.703   0.841   2.717  0.9201 -2.3168 -0.3953
 7815TIP3    H244937   4.614   0.790   2.606 -0.1838 -3.5456  1.0147
 7816TIP3   OH244938   2.146   5.031  12.232  0.1445  0.2322 -0.2672
 7816TIP3    H144939   2.232   5.030  12.273  0.5748  1.9084 -1.0157
 7816TIP3    H244940   2.112   4.942  12.243  2.1515 -0.5829 -0.3435
 7817TIP3   OH244941   2.254   2.275  14.672 -0.1079 -0.1536  0.0645
 7817TIP3    H144942   2.273   2.289  14.765 -0.5456 -0.1696  0.1590
 7817TIP3    H244943   2.158   2.266  14.669  0.0292 -1.8234 -0.1556
 7818TIP3   OH244944   0.653   4.617  13.815 -0.0665  0.9003 -0.0387
 7818TIP3    H144945   0.715   4.544  13.812  2.8042  3.1456 -0.0363
 7818TIP3    H244946   0.622   4.626  13.725 -0.8870 -0.5787  0.0619
 7819TIP3   OH244947   4.145   1.508   6.025  0.6992 -0.2945  0.0684
 7819TIP3    H144948   4.056   1.472   6.015  0.4163  0.5942 -0.8381
 7819TIP3    H244949   4.180   1.465   6.103  0.5330 -2.8254 -1.1316
 7820TIP3   OH244950   1.711   3.957   1.326 -0.0676 -0.6728 -0.3340
 7820TIP3    H144951   1.732   4.010   1.403 -2.1578  2.5478 -1.7592
 7820TIP3    H244952   1.796   3.935   1.288  0.9319  0.6165  1.0256
 7821TIP3   OH244953   3.544   3.999  14.679  0.3159  0.0595  0.6465
 7821TIP3    H144954   3.528   3.924  14.621 -0.9827  1.1568 -0.5006
 7821TIP3    H244955   3.464   4.006  14.731  1.1358 -0.3985  2.0034
 7822TIP3   OH244956   3.810   2.183  12.393  0.7579 -0.1489  0.4374
 7822TIP3    H144957   3.837   2.266  12.432  0.9340  0.0777 -0.1632
 7822TIP3    H244958   3.867   2.118  12.433  1.9009  0.2631 -0.4648
 7823TIP3   OH244959   3.301   5.582  13.755 -0.6190 -0.0721  0.5861
 7823TIP3    H144960   3.267   5.600  13.668 -1.8153 -1.0366  0.8383
 7823TIP3    H244961   3.313   5.487  13.758  1.3480  0.1475  0.7949
 7824TIP3   OH244962   1.257   5.053  15.881  0.1329 -0.2782  0.2761
 7824TIP3    H144963   1.187   5.064  15.817  1.1956  0.7538 -0.7417
 7824TIP3    H244964   1.226   5.101  15.958 -0.6040 -0.4979  0.1327
 7825TIP3   OH244965   3.876   4.309   0.862 -0.0496 -0.2232 -0.4379
 7825TIP3    H144966   3.834   4.346   0.939 -0.9679 -1.5886 -0.2566
 7825TIP3    H244967   3.924   4.233   0.894 -1.7757 -1.8089 -1.3670
 7826TIP3   OH244968   5.332   2.123  12.131 -0.3034  0.1910 -0.0936
 7826TIP3    H144969   5.418   2.165  12.133  2.2227 -4.3873  0.9600
 7826TIP3    H244970   5.296   2.138  12.219  0.3417  0.4343  0.1330
 7827TIP3   OH244971   5.972   4.367  11.584  0.6216 -0.3565  0.0714
 7827TIP3    H144972   6.039   4.354  11.651  1.0066 -1.7492 -0.5418
 7827TIP3    H244973   6.016   4.418  11.516  0.5751  0.0766  0.3625
 7828TIP3   OH244974   5.313   2.494  16.614  0.1954 -0.5873 -0.2729
 7828TIP3    H144975   5.384   2.520  16.555 -0.3080  1.4338 -0.0726
 7828TIP3    H244976   5.237   2.483  16.556  0.5517 -2.4356 -0.4450
 7829TIP3   OH244977   1.272   3.311  13.170  0.0635 -0.1609 -0.1793
 7829TIP3    H144978   1.353   3.299  13.120 -0.1564  1.3661 -0.9738
 7829TIP3    H244979   1.202   3.286  13.110 -0.0817 -3.2549  1.0876
 7830TIP3   OH244980   4.594   5.949  13.838  0.3782  0.0563  0.3430
 7830TIP3    H144981   4.571   5.873  13.891  1.6025  0.0928  0.9466
 7830TIP3    H244982   4.537   5.943  13.761  1.4567 -2.2793 -0.3601
 7831TIP3   OH244983   1.907   4.981   4.371 -0.3868 -0.1817  0.4093
 7831TIP3    H144984   1.970   4.952   4.437  0.3202  0.7462  0.1708
 7831TIP3    H244985   1.950   4.966   4.287 -0.1486  1.1602  0.2689
 7832TIP3   OH244986   4.416   6.063   2.743 -0.4289  0.0271 -0.2121
 7832TIP3    H144987   4.321   6.069   2.729 -0.3909  0.8983 -0.1856
 7832TIP3    H244988   4.448   6.008   2.672 -0.9641 -0.3518 -0.1671
 7833TIP3   OH244989   2.807   4.817   4.585 -0.1376  0.4636  0.2341
 7833TIP3    H144990   2.880   4.832   4.525 -0.1740 -0.3522 -0.0321
 7833TIP3    H244991   2.792   4.902   4.626  0.9016  0.6633  0.2298
 7834TIP3   OH244992   2.554   5.788   1.361  0.3158 -0.1358  1.0225
 7834TIP3    H144993   2.596   5.867   1.327  0.8339 -1.0041 -0.4582
 7834TIP3    H244994   2.525   5.740   1.283  0.2990 -1.5553  1.8568
 7835TIP3   OH244995   4.759   1.192   0.943  0.0917  0.2106  0.0200
 7835TIP3    H144996   4.834   1.198   0.884  0.8562 -1.3526  0.7712
 7835TIP3    H244997   4.798   1.182   1.030 -1.0014  0.4673  0.5547
 7836TIP3   OH244998   6.457   3.733  14.173 -0.1148  0.1497 -0.3754
 7836TIP3    H144999   6.480   3.816  14.217 -2.5271  0.8340 -0.2404
 7836TIP3    H245000   6.540   3.686  14.166  1.0042  1.6874  1.4226
 7837TIP3   OH245001   0.442   3.526  15.958  0.2848 -0.6817  0.1049
 7837TIP3    H145002   0.466   3.488  15.874 -0.5140  2.5546 -1.7777
 7837TIP3    H245003   0.512   3.588  15.976 -0.2578 -0.3486  1.1190
 7838TIP3   OH245004   1.169   2.876  12.732 -0.2167 -0.3225 -0.3580
 7838TIP3    H145005   1.168   2.972  12.737 -2.5262 -0.1167 -2.6271
 7838TIP3    H245006   1.129   2.847  12.814 -1.5187  0.7846 -0.5628
 7839TIP3   OH245007   5.203   1.249   2.236  0.4697 -0.1109  0.2107
 7839TIP3    H145008   5.215   1.157   2.261 -1.0198 -0.2989  0.3245
 7839TIP3    H245009   5.227   1.299   2.314 -1.6865 -0.5683  1.2266
 7840TIP3   OH245010   6.014   2.562   2.745 -0.3393 -0.3382  0.1501
 7840TIP3    H145011   5.934   2.594   2.704  0.5475 -1.0446 -2.2858
 7840TIP3    H245012   6.079   2.629   2.726  0.5691 -1.6095 -1.5066
 7841TIP3   OH245013   3.492   2.300   2.348  0.1545 -0.5966 -0.6355
 7841TIP3    H145014   3.517   2.234   2.412 -2.0532 -1.4556 -0.5876
 7841TIP3    H245015   3.530   2.269   2.266  1.0006 -0.7242 -0.2087
 7842TIP3   OH245016   1.888   5.865  12.553  0.8774  0.5102 -0.7339
 7842TIP3    H145017   1.876   5.916  12.473 -0.6507  1.5289  0.1005
 7842TIP3    H245018   1.967   5.812  12.536  0.3016  0.2882 -3.0984
 7843TIP3   OH245019   6.747   1.502   4.376 -0.2694 -0.3896  0.5487
 7843TIP3    H145020   6.668   1.530   4.329 -1.5536 -1.5618  1.8707
 7843TIP3    H245021   6.793   1.583   4.397 -0.5504  0.2597 -1.1689
 7844TIP3   OH245022   0.873   6.318  13.887 -0.6195 -0.0556 -0.4805
 7844TIP3    H145023   0.826   6.280  13.813 -1.0524  1.4196 -1.0039
 7844TIP3    H245024   0.812   6.384  13.922  0.0243  0.0430  0.4870
 7845TIP3   OH245025   6.717   4.620  13.131  0.3401 -0.4010 -0.5491
 7845TIP3    H145026   6.784   4.558  13.103  0.5724  0.1254 -1.1849
 7845TIP3    H245027   6.757   4.706  13.119  0.0581 -0.1156  0.4122
 7846TIP3   OH245028   0.563   2.899  16.428 -0.0007  0.6314 -0.7221
 7846TIP3    H145029   0.584   2.923  16.338 -0.5631 -0.4995 -1.1775
 7846TIP3    H245030   0.648   2.887  16.470  0.2710  1.6640 -0.9452
 7847TIP3   OH245031   4.190   3.418  15.108  0.1795 -0.0235  0.6049
 7847TIP3    H145032   4.247   3.371  15.046 -2.2593 -1.6129 -0.5895
 7847TIP3    H245033   4.206   3.375  15.192  1.1741 -0.0102  0.4370
 7848TIP3   OH245034   4.973   5.196   3.239  0.2194  0.1840  0.4617
 7848TIP3    H145035   4.953   5.193   3.333 -1.6234 -0.1687  0.0965
 7848TIP3    H245036   5.042   5.261   3.231 -0.7202  1.4292  1.8954
 7849TIP3   OH245037   3.594   5.009  11.263  0.3998  0.0863  0.1245
 7849TIP3    H145038   3.532   4.941  11.240  1.7744 -0.8447 -0.9820
 7849TIP3    H245039   3.603   5.061  11.183  0.9180  0.3032  0.3217
 7850TIP3   OH245040   4.409   0.838   0.159 -0.0266  0.1964 -0.9497
 7850TIP3    H145041   4.417   0.914   0.216 -1.9906 -0.2135 -0.0362
 7850TIP3    H245042   4.408   0.763   0.219 -0.6947 -0.3504 -1.6280
 7851TIP3   OH245043   5.988   3.220   2.650 -0.7377  0.4587 -0.0871
 7851TIP3    H145044   6.054   3.286   2.630  1.0740 -1.2843 -0.1099
 7851TIP3    H245045   5.967   3.235   2.742  1.4578 -0.3681  0.6154
 7852TIP3   OH245046   4.571   0.923  11.458  0.0631  0.6866 -0.5194
 7852TIP3    H145047   4.625   0.984  11.408 -0.9042  0.1672 -2.2827
 7852TIP3    H245048   4.534   0.864  11.392 -0.5279 -0.6347  0.9254
 7853TIP3   OH245049   4.173   3.820   3.729  0.2074  0.1105  0.5792
 7853TIP3    H145050   4.205   3.883   3.793  0.9937 -0.6850  0.9807
 7853TIP3    H245051   4.166   3.870   3.648 -1.0133  1.1906  1.2997
 7854TIP3   OH245052   0.185   3.506  11.958  0.2726 -0.1650  0.3770
 7854TIP3    H145053   0.262   3.519  12.013 -0.0472  0.6318  0.6482
 7854TIP3    H245054   0.218   3.514  11.868  0.6507 -0.6647  0.4702
 7855TIP3   OH245055   0.154   0.283  11.366  0.4601 -0.5081  0.4203
 7855TIP3    H145056   0.165   0.378  11.373 -1.1879 -0.3292  1.0917
 7855TIP3    H245057   0.148   0.265  11.272 -0.3198  0.2129  0.3233
 7856TIP3   OH245058   3.114   6.351   6.329 -0.1753 -0.1362  0.0861
 7856TIP3    H145059   3.153   6.387   6.408 -1.0692 -0.0926  0.5203
 7856TIP3    H245060   3.021   6.373   6.336 -0.3474 -0.5623 -0.7343
 7857TIP3   OH245061   4.270   4.431   1.486  0.0589  0.0988 -0.6015
 7857TIP3    H145062   4.334   4.501   1.471  0.7303 -0.4913 -0.5101
 7857TIP3    H245063   4.300   4.358   1.432  0.0789 -0.5650  0.2899
 7858TIP3   OH245064   5.080   5.834   3.693 -0.1563  0.1759 -0.5968
 7858TIP3    H145065   5.056   5.800   3.607  1.5650 -0.6618 -0.7825
 7858TIP3    H245066   5.148   5.899   3.676  0.8019 -0.5980  0.1665
 7859TIP3   OH245067   2.277   4.929  17.014 -0.3222 -0.5424  0.2722
 7859TIP3    H145068   2.198   4.877  17.031 -0.4829 -0.3743  0.0531
 7859TIP3    H245069   2.327   4.878  16.950 -0.8251 -0.0936 -0.4901
 7860TIP3   OH245070   5.392   6.491  14.863 -0.0475  0.0278 -0.0730
 7860TIP3    H145071   5.368   6.452  14.947  1.9590 -2.6850 -0.6147
 7860TIP3    H245072   5.456   6.559  14.885 -1.8088  1.5160  0.7257
 7861TIP3   OH245073   3.237   5.051  12.687  0.4429  0.1504  0.5670
 7861TIP3    H145074   3.327   5.020  12.688  0.7106  0.6790 -1.5136
 7861TIP3    H245075   3.185   4.973  12.666  0.6367  0.2075 -0.1501
 7862TIP3   OH245076   5.373   4.110  16.628  0.3391 -0.0108  0.2680
 7862TIP3    H145077   5.350   4.046  16.695  2.0231 -0.1548  0.7549
 7862TIP3    H245078   5.374   4.194  16.674 -1.1871  0.3189 -0.2202
 7863TIP3   OH245079   3.487   4.329  10.466 -0.5035  0.4718 -0.0022
 7863TIP3    H145080   3.414   4.268  10.452  0.3902 -0.4982 -0.5420
 7863TIP3    H245081   3.557   4.297  10.409  0.4887  1.1524  0.7933
 7864TIP3   OH245082   1.391   0.188  12.092 -0.3358  0.3572  0.0668
 7864TIP3    H145083   1.405   0.249  12.164 -2.5036  1.8718 -0.6720
 7864TIP3    H245084   1.384   0.102  12.134 -0.3961  1.0461  1.5320
 7865TIP3   OH245085   5.668   0.159   0.594 -0.2487 -0.1409 -0.1603
 7865TIP3    H145086   5.703   0.184   0.680 -0.0038 -4.1592  1.1113
 7865TIP3    H245087   5.694   0.230   0.536  1.5918  1.6643  2.6150
 7866TIP3   OH245088   5.884   2.938  15.301  0.2487 -0.1910  0.2679
 7866TIP3    H145089   5.891   2.950  15.206  2.2133 -2.1843  0.0744
 7866TIP3    H245090   5.889   3.026  15.337  0.1132  0.5583 -1.4336
 7867TIP3   OH245091   2.043   2.866  16.511 -0.2721  0.2361  0.0966
 7867TIP3    H145092   2.050   2.770  16.512 -0.5639  0.2182  0.5963
 7867TIP3    H245093   2.134   2.896  16.512 -0.1836 -0.0352  0.7367
 7868TIP3   OH245094   3.278   2.557  16.522  0.0193 -0.0195 -0.6173
 7868TIP3    H145095   3.352   2.615  16.506  0.6230 -0.6913 -0.3431
 7868TIP3    H245096   3.211   2.613  16.560  1.2169  0.2114  1.2794
 7869TIP3   OH245097   1.950   3.664   4.427 -0.0945  0.6718  0.0798
 7869TIP3    H145098   1.911   3.603   4.364 -1.9074  0.3919  1.3856
 7869TIP3    H245099   2.028   3.619   4.460 -0.2345 -0.0142 -0.5111
 7870TIP3   OH245100   1.053   5.463  14.026 -0.2876  0.1264 -0.4160
 7870TIP3    H145101   1.057   5.519  13.948  0.3060  0.4741 -0.1427
 7870TIP3    H245102   1.138   5.475  14.068 -0.7696  0.2750  0.5276
 7871TIP3   OH245103   4.410   2.002   4.708  0.1115 -0.3361 -0.1826
 7871TIP3    H145104   4.331   1.989   4.760 -1.1304 -1.3200 -2.1778
 7871TIP3    H245105   4.480   2.009   4.772 -1.2540 -1.8820  1.6135
 7872TIP3   OH245106   0.156   6.407  17.219  0.2326 -0.5172  0.2621
 7872TIP3    H145107   0.188   6.401  17.129 -0.1039 -2.9316  0.2335
 7872TIP3    H245108   0.111   6.491  17.223 -0.4812 -0.7180 -2.0940
 7873TIP3   OH245109   2.593   1.143  14.906  0.2869 -0.1686 -0.1867
 7873TIP3    H145110   2.611   1.049  14.911  0.4966 -0.2118 -1.3705
 7873TIP3    H245111   2.655   1.175  14.840  1.5874  1.1731  1.5912
 7874TIP3   OH245112   2.658   2.247  15.804 -0.2747  0.7030  0.2918
 7874TIP3    H145113   2.740   2.198  15.806  1.2342  2.9380 -2.0482
 7874TIP3    H245114   2.607   2.204  15.735 -0.0457  0.8139  0.0514
 7875TIP3   OH245115   5.935   4.423  16.426 -0.5739 -0.0196  0.7458
 7875TIP3    H145116   5.870   4.387  16.365  0.9537  1.4772 -1.9570
 7875TIP3    H245117   6.019   4.393  16.392  0.4505  2.4219  0.9711
 7876TIP3   OH245118   3.089   2.841  11.456 -0.6923 -0.1665  0.0959
 7876TIP3    H145119   3.137   2.873  11.380  1.6593 -0.6587  1.2988
 7876TIP3    H245120   3.020   2.785  11.420 -0.9510  1.2417 -1.7159
 7877TIP3   OH245121   1.727   0.818   0.995  0.5896  0.3892 -0.4365
 7877TIP3    H145122   1.809   0.832   1.043  0.1033  2.2725 -0.0676
 7877TIP3    H245123   1.701   0.728   1.016  0.8628  0.8432  2.1198
 7878TIP3   OH245124   6.555   3.776   3.360  0.5180  0.3228 -0.4739
 7878TIP3    H145125   6.464   3.757   3.334 -0.1657  1.0633  1.2089
 7878TIP3    H245126   6.575   3.709   3.425  1.4357 -0.2328 -1.3046
 7879TIP3   OH245127   6.429   5.222  17.183  0.2970  0.3206 -0.1568
 7879TIP3    H145128   6.464   5.214  17.272  0.5631  0.5967 -0.2320
 7879TIP3    H245129   6.503   5.256  17.132 -0.3425  1.8392 -0.1183
 7880TIP3   OH245130   6.771   1.048  15.622 -0.0186 -0.2110  0.0262
 7880TIP3    H145131   6.770   1.074  15.530  0.7968 -1.4825 -0.3654
 7880TIP3    H245132   6.863   1.053  15.647 -0.1765 -0.2997  0.6496
 7881TIP3   OH245133   2.718   2.027  11.356  0.8708 -0.1322  0.3737
 7881TIP3    H145134   2.672   2.091  11.302  2.1867 -0.0097 -0.6529
 7881TIP3    H245135   2.810   2.050  11.347  1.3085 -1.6817  0.6218
 7882TIP3   OH245136   6.564   3.324  16.706  0.1470  0.3306  0.3310
 7882TIP3    H145137   6.604   3.238  16.716  1.1188  0.7893  0.5345
 7882TIP3    H245138   6.558   3.358  16.795 -0.9656  0.1754  0.3397
 7883TIP3   OH245139   2.497   4.950  15.278  0.6405  0.3211  0.1925
 7883TIP3    H145140   2.446   4.918  15.203 -1.3635  1.8019  0.8362
 7883TIP3    H245141   2.574   4.894  15.280  0.1269 -0.5836 -2.1974
 7884TIP3   OH245142   5.176   1.178  12.253  0.3721 -0.1043 -0.2696
 7884TIP3    H145143   5.264   1.209  12.277 -0.5867  1.8689  0.9692
 7884TIP3    H245144   5.168   1.093  12.296  1.6959 -0.3510 -0.4790
 7885TIP3   OH245145   4.576   2.444   2.948 -0.2463  1.1883  0.1586
 7885TIP3    H145146   4.628   2.367   2.970  1.0810  1.8903 -0.3548
 7885TIP3    H245147   4.619   2.516   2.994 -1.1455  1.7046  0.2118
 7886TIP3   OH245148   3.817   5.955  11.581  0.5332 -0.0012  0.6298
 7886TIP3    H145149   3.837   6.027  11.640  1.4446  0.4357 -0.1976
 7886TIP3    H245150   3.764   5.995  11.512  2.7430  0.3731 -0.9413
 7887TIP3   OH245151   0.740   5.318  15.960  0.0605  0.0600  0.3328
 7887TIP3    H145152   0.684   5.245  15.982 -0.7074  0.5876  0.1611
 7887TIP3    H245153   0.698   5.359  15.884  1.0070  0.0934 -0.1994
 7888TIP3   OH245154   1.533   4.372  14.530 -0.0109  0.3221  0.1261
 7888TIP3    H145155   1.561   4.357  14.621  0.2857  0.4438  0.0559
 7888TIP3    H245156   1.614   4.392  14.483 -0.2424  0.9178 -0.0314
 7889TIP3   OH245157   3.576   5.143   5.023  0.4129  0.1569 -0.5206
 7889TIP3    H145158   3.515   5.118   4.953 -0.3921  0.2351  0.1363
 7889TIP3    H245159   3.623   5.219   4.988 -0.3096  0.4835 -0.8102
 7890TIP3   OH245160   0.007   4.128   4.941  0.5201  0.6943  0.2154
 7890TIP3    H145161  -0.020   4.120   5.032  0.6191 -0.4471  0.1633
 7890TIP3    H245162   0.077   4.064   4.931 -0.8648 -0.7028 -1.1547
 7891TIP3   OH245163   5.668   2.756   5.455  0.5408  0.0994 -0.2660
 7891TIP3    H145164   5.673   2.788   5.365  1.0902 -0.3000 -0.3843
 7891TIP3    H245165   5.613   2.820   5.500  0.7992  0.6631 -0.7324
 7892TIP3   OH245166   2.816   5.701   0.090 -0.5315 -0.1397  0.4657
 7892TIP3    H145167   2.808   5.726   0.182  0.8126  1.9150  0.0921
 7892TIP3    H245168   2.749   5.752   0.045  0.8391  1.2728 -0.0471
 7893TIP3   OH245169   1.429   3.254   0.770 -0.7023  0.4457  0.1595
 7893TIP3    H145170   1.482   3.287   0.698  1.2391 -0.8450  0.9212
 7893TIP3    H245171   1.367   3.194   0.729  0.1444 -0.0118 -0.4852
 7894TIP3   OH245172   0.203   1.429   1.128  0.0435 -0.5373  0.4425
 7894TIP3    H145173   0.162   1.396   1.208 -0.0783  1.5625  1.3034
 7894TIP3    H245174   0.243   1.512   1.154 -0.2561  0.3591 -1.7560
 7895TIP3   OH245175   0.136   5.095   5.531  0.6516 -0.5344 -0.2237
 7895TIP3    H145176   0.115   5.002   5.529  0.9950 -0.7034  1.8641
 7895TIP3    H245177   0.090   5.129   5.607 -0.1167  1.2188 -1.3856
 7896TIP3   OH245178   0.563   5.076  13.132 -0.1462  0.2348 -0.1281
 7896TIP3    H145179   0.640   5.038  13.090 -0.8906 -2.3162  0.6231
 7896TIP3    H245180   0.520   5.126  13.063  0.8110 -0.4809 -1.2752
 7897TIP3   OH245181   0.275   3.189   3.182 -0.1180 -0.3074 -0.4403
 7897TIP3    H145182   0.320   3.195   3.266 -0.5567  0.9595 -0.2668
 7897TIP3    H245183   0.230   3.104   3.184  0.5540 -0.6567  0.2427
 7898TIP3   OH245184   2.930   2.604   1.565  0.0618 -0.1948 -0.5047
 7898TIP3    H145185   2.929   2.516   1.603  1.3969 -0.8157 -1.8223
 7898TIP3    H245186   2.885   2.595   1.481 -2.5525  1.0886  0.6503
 7899TIP3   OH245187   3.178   0.107  11.817  1.2196 -0.5806  0.2004
 7899TIP3    H145188   3.264   0.110  11.775  1.3836 -0.2246  0.5506
 7899TIP3    H245189   3.121   0.068  11.751  1.4694 -0.0315 -0.3561
 7900TIP3   OH245190   0.556   2.681  15.434  0.2900  0.2380  0.0148
 7900TIP3    H145191   0.531   2.660  15.344 -1.5050  0.6430  0.3908
 7900TIP3    H245192   0.626   2.746  15.425  2.0022 -1.6335 -1.0876
 7901TIP3   OH245193   5.644   3.170   5.472  0.3931 -0.6285  0.0578
 7901TIP3    H145194   5.603   3.145   5.389  0.1827  0.4834 -0.1967
 7901TIP3    H245195   5.720   3.113   5.480  0.9825 -0.0948 -1.4024
 7902TIP3   OH245196   4.289   3.842  11.156 -0.0797 -0.0149  0.6183
 7902TIP3    H145197   4.199   3.861  11.182 -0.0930  0.4607  0.2395
 7902TIP3    H245198   4.336   3.925  11.167 -0.4641  0.7352 -2.4383
 7903TIP3   OH245199   3.080   5.296   0.131 -0.2264 -0.0740 -0.4007
 7903TIP3    H145200   3.160   5.247   0.152 -0.6977 -0.7863 -0.2398
 7903TIP3    H245201   3.016   5.229   0.110 -0.4377  0.5343 -1.7796
 7904TIP3   OH245202   5.863   1.844  12.024 -0.1342  0.2667  0.1256
 7904TIP3    H145203   5.847   1.938  12.031  1.8002  0.6044  0.7961
 7904TIP3    H245204   5.860   1.813  12.115 -0.1175 -0.1866 -0.0265
 7905TIP3   OH245205   4.465   1.575   5.237  0.9154 -0.1230  0.6070
 7905TIP3    H145206   4.389   1.517   5.233  0.1659  0.7495  1.6174
 7905TIP3    H245207   4.451   1.638   5.166 -0.4208  1.2914  2.0405
 7906TIP3   OH245208   3.802   3.829   0.324  0.2761  0.0485  0.4252
 7906TIP3    H145209   3.753   3.771   0.382 -0.5608 -0.7824 -1.0491
 7906TIP3    H245210   3.889   3.790   0.318  0.5086  0.3800  1.4180
 7907TIP3   OH245211   6.793   1.692  13.357 -0.6693 -0.7460  0.4512
 7907TIP3    H145212   6.864   1.652  13.306 -0.8559 -0.8854  0.2947
 7907TIP3    H245213   6.776   1.775  13.314  0.3309 -0.0722  1.3208
 7908TIP3   OH245214   6.563   4.166  16.015  0.1944  0.3260 -0.4312
 7908TIP3    H145215   6.552   4.261  16.023  2.1141  0.5075  0.8631
 7908TIP3    H245216   6.577   4.152  15.921 -0.8322  1.2244 -0.7360
 7909TIP3   OH245217   4.849   5.324  15.452  0.0299 -0.2328  0.0784
 7909TIP3    H145218   4.822   5.242  15.493 -0.0793  0.2317  0.9422
 7909TIP3    H245219   4.914   5.361  15.511  2.3580 -1.1324 -1.7528
 7910TIP3   OH245220   1.368   3.931   3.617 -0.3514  0.3491  0.0227
 7910TIP3    H145221   1.308   3.868   3.577 -0.8274  0.5217  0.4508
 7910TIP3    H245222   1.455   3.903   3.589 -0.6155 -0.0229 -0.4440
 7911TIP3   OH245223   4.579   6.297   0.263 -0.4870  0.5329 -0.0212
 7911TIP3    H145224   4.567   6.205   0.242 -1.9649  0.9021 -0.8722
 7911TIP3    H245225   4.520   6.344   0.205  0.9082  2.1032 -0.2496
 7912TIP3   OH245226   6.062   0.375  14.166 -0.4142  0.2405 -0.3274
 7912TIP3    H145227   5.988   0.316  14.152 -0.1477 -0.6355  1.5866
 7912TIP3    H245228   6.137   0.317  14.179 -0.1352  0.9372  1.5902
 7913TIP3   OH245229   0.532   5.438   0.535  0.0113  0.3288  0.0272
 7913TIP3    H145230   0.530   5.398   0.622 -0.1873  1.7404  0.6981
 7913TIP3    H245231   0.602   5.392   0.489 -1.9274 -2.6341 -0.2048
 7914TIP3   OH245232   3.566   4.217   5.026  0.1042  0.6570 -0.5440
 7914TIP3    H145233   3.480   4.246   4.994 -0.1156  0.4206 -0.1673
 7914TIP3    H245234   3.627   4.248   4.959 -0.2865  0.7170 -0.8804
 7915TIP3   OH245235   3.022   3.859   1.350 -0.5994 -0.2064 -0.2048
 7915TIP3    H145236   3.057   3.943   1.381  1.6134 -0.8021 -0.9511
 7915TIP3    H245237   2.940   3.883   1.306  0.4094  1.7215 -1.1842
 7916TIP3   OH245238   4.566   3.432  11.208  0.4987  0.4685 -0.1707
 7916TIP3    H145239   4.528   3.455  11.124 -0.1377  1.4670  0.3646
 7916TIP3    H245240   4.499   3.456  11.272  1.0323 -0.1141  0.6357
 7917TIP3   OH245241   4.620   1.550  11.868 -0.2149 -0.5427 -0.1792
 7917TIP3    H145242   4.606   1.522  11.959  0.8176  0.3097  0.2633
 7917TIP3    H245243   4.542   1.519  11.821 -1.5883  0.4697  1.3235
 7918TIP3   OH245244   0.034   5.262   2.968 -1.1150  0.2939 -0.6410
 7918TIP3    H145245   0.064   5.267   2.878 -1.5079  0.4627 -0.7666
 7918TIP3    H245246  -0.052   5.305   2.967 -0.0503  2.6307  0.2962
 7919TIP3   OH245247   6.176   4.005   5.799  0.2376  0.0941  0.1107
 7919TIP3    H145248   6.249   4.051   5.758  0.6351  0.0485  0.7506
 7919TIP3    H245249   6.215   3.925   5.836 -0.1970 -0.1024  0.1609
 7920TIP3   OH245250   3.604   3.707   5.823  0.1024  0.1234  0.4406
 7920TIP3    H145251   3.601   3.667   5.736 -1.9925  0.5227  0.2689
 7920TIP3    H245252   3.564   3.642   5.881 -2.0962  1.3214  0.3863
 7921TIP3   OH245253   0.129   2.097  11.113  0.3469  0.0635  0.1186
 7921TIP3    H145254   0.115   2.056  11.198  1.6497  0.8271  0.7295
 7921TIP3    H245255   0.218   2.075  11.089 -0.0846 -0.3451 -1.1864
 7922TIP3   OH245256   2.573   0.849   2.473  0.2525 -0.5037 -0.1195
 7922TIP3    H145257   2.638   0.791   2.432 -0.3166 -1.5324  0.3925
 7922TIP3    H245258   2.510   0.789   2.514 -0.6743  0.4773 -0.0659
 7923TIP3   OH245259   0.354   6.502  10.960  0.3095  0.1565  0.0107
 7923TIP3    H145260   0.330   6.452  10.882  1.4603  0.1436 -0.3577
 7923TIP3    H245261   0.414   6.570  10.928  0.9508  0.0304  0.9015
 7924TIP3   OH245262   0.845   0.598   1.903 -0.3026  0.2928  0.4340
 7924TIP3    H145263   0.870   0.554   1.985  0.3606 -0.2862 -0.0747
 7924TIP3    H245264   0.919   0.586   1.845 -0.1535  1.9925  0.2142
 7925TIP3   OH245265   4.071   0.287  15.742  0.0502 -0.8191 -0.2775
 7925TIP3    H145266   4.041   0.283  15.833  1.0908 -1.1623  0.0617
 7925TIP3    H245267   4.090   0.379  15.727 -2.0506 -0.4222 -0.8110
 7926TIP3   OH245268   3.310   4.432  11.597  0.4103 -0.0401  0.1755
 7926TIP3    H145269   3.319   4.405  11.688 -1.3844 -1.0889  0.0938
 7926TIP3    H245270   3.226   4.478  11.594  1.0134  1.0420 -0.7308
 7927TIP3   OH245271   0.576   6.330  13.776  0.4531 -0.4741  0.1133
 7927TIP3    H145272   0.612   6.412  13.811  1.3458 -0.3956 -0.9486
 7927TIP3    H245273   0.556   6.349  13.685  3.0783 -2.1015 -0.9138
 7928TIP3   OH245274   5.965   1.126   0.439 -0.6215 -0.1330  0.1442
 7928TIP3    H145275   6.004   1.061   0.380 -0.4747  0.0360  0.0514
 7928TIP3    H245276   5.920   1.075   0.506  1.1993 -0.3747  1.2378
 7929TIP3   OH245277   2.372   0.350   1.602  0.2128 -0.3867  0.3464
 7929TIP3    H145278   2.398   0.410   1.532 -1.9666 -0.6975 -0.8202
 7929TIP3    H245279   2.318   0.404   1.660 -0.3115 -0.7983  0.2443
 7930TIP3   OH245280   0.618   6.501   2.683  0.0438 -0.2409  0.0307
 7930TIP3    H145281   0.703   6.457   2.681 -0.3114 -0.9576 -1.8643
 7930TIP3    H245282   0.556   6.434   2.712  0.1773  0.4609  2.0541
 7931TIP3   OH245283   1.800   5.366  13.474 -0.4468 -0.5217 -0.2651
 7931TIP3    H145284   1.757   5.293  13.431 -2.6743 -0.9101  2.3924
 7931TIP3    H245285   1.849   5.327  13.546 -1.5763  0.5313  1.1215
 7932TIP3   OH245286   1.851   1.331   4.153  0.1209 -0.6827  0.0330
 7932TIP3    H145287   1.767   1.333   4.108  0.2919 -0.9128 -0.3018
 7932TIP3    H245288   1.850   1.408   4.210 -0.0139 -0.2552 -0.5312
 7933TIP3   OH245289   6.000   4.831   1.559 -0.1666 -0.7348 -0.6843
 7933TIP3    H145290   6.054   4.794   1.628 -1.8022 -2.3868 -0.2136
 7933TIP3    H245291   5.993   4.761   1.494 -2.2728 -0.8421 -0.3907
 7934TIP3   OH245292   5.274   5.305  14.729 -0.2360 -0.1624  0.3087
 7934TIP3    H145293   5.181   5.300  14.706 -0.4147  1.5459  0.5263
 7934TIP3    H245294   5.288   5.396  14.753  1.3926 -0.5063  0.8100
 7935TIP3   OH245295   3.435   5.465   4.278  0.0637  0.0900 -0.4835
 7935TIP3    H145296   3.397   5.427   4.357 -1.3506  0.3497 -1.0078
 7935TIP3    H245297   3.482   5.392   4.237  2.8649  0.4745  1.7250
 7936TIP3   OH245298   3.173   5.644  14.482  0.1882 -0.0875  0.0610
 7936TIP3    H145299   3.095   5.695  14.459 -0.3769 -0.7900  0.3465
 7936TIP3    H245300   3.178   5.650  14.577  1.8206  1.8151 -0.0864
 7937TIP3   OH245301   0.826   3.596   1.260 -0.2582 -0.4235  0.3041
 7937TIP3    H145302   0.809   3.515   1.309 -0.7094 -1.0466 -0.8260
 7937TIP3    H245303   0.921   3.603   1.257 -0.2264 -0.3769  1.2486
 7938TIP3   OH245304   3.166   0.033  14.589  0.4041 -0.2675 -0.6886
 7938TIP3    H145305   3.195   0.119  14.558  0.6412 -0.8305 -2.0976
 7938TIP3    H245306   3.243  -0.023  14.581 -0.5606 -1.4003 -3.0012
 7939TIP3   OH245307   0.398   2.265  15.370  0.4640 -0.4279 -0.4973
 7939TIP3    H145308   0.463   2.303  15.429 -0.4646  1.3385 -0.5634
 7939TIP3    H245309   0.445   2.194  15.327  2.0926  0.2244  0.1046
 7940TIP3   OH245310   3.637   4.237  12.563 -0.8372  0.1121  0.5320
 7940TIP3    H145311   3.711   4.292  12.540 -0.3024 -0.5501  0.6360
 7940TIP3    H245312   3.589   4.226  12.481  0.3963 -1.2431 -0.0658
 7941TIP3   OH245313   4.980   5.151   1.538 -0.4921  0.0492  0.0033
 7941TIP3    H145314   5.039   5.218   1.504 -1.7911  0.6449 -1.1711
 7941TIP3    H245315   5.038   5.089   1.583  0.9444  0.9236 -0.5637
 7942TIP3   OH245316   1.094   3.930   4.206  0.2198  0.1359  0.6585
 7942TIP3    H145317   1.038   3.920   4.129  0.5939 -0.3081  0.4408
 7942TIP3    H245318   1.040   3.900   4.279  0.5039 -1.2515  0.3228
 7943TIP3   OH245319   0.633   4.573  14.861 -0.1047  0.2701 -0.1796
 7943TIP3    H145320   0.640   4.530  14.775  0.8853  0.3324 -0.1450
 7943TIP3    H245321   0.637   4.666  14.842  1.1941  0.2771 -0.0142
 7944TIP3   OH245322   2.436   4.660  11.225  0.1387 -0.1408 -0.3335
 7944TIP3    H145323   2.371   4.694  11.164 -1.6937  0.4961  1.8471
 7944TIP3    H245324   2.390   4.593  11.276  0.3938  1.8067  2.7335
 7945TIP3   OH245325   0.195   0.524  14.036  0.6187  0.4163 -0.8240
 7945TIP3    H145326   0.157   0.467  13.968  0.6891 -1.3177  0.5233
 7945TIP3    H245327   0.265   0.471  14.075  0.1768  1.1028  1.0035
 7946TIP3   OH245328   5.643   2.734   5.809  0.1839  0.0668  0.6943
 7946TIP3    H145329   5.589   2.808   5.782  0.8591  0.9166  1.5628
 7946TIP3    H245330   5.581   2.663   5.825 -0.3429 -0.1092 -1.7572
 7947TIP3   OH245331   4.833   3.488  14.989  0.2383  0.1763 -0.0718
 7947TIP3    H145332   4.843   3.393  14.979 -3.0531 -0.5081  1.6186
 7947TIP3    H245333   4.765   3.512  14.926 -0.7404  0.8892  1.1994
 7948TIP3   OH245334   0.076   0.858  16.925  0.1339 -0.2800 -0.2356
 7948TIP3    H145335  -0.006   0.897  16.898  1.7326  3.1823 -0.6425
 7948TIP3    H245336   0.127   0.850  16.844  1.7525  1.9111  0.4746
 7949TIP3   OH245337   4.761   5.068   2.687  0.0181  0.1693 -0.4775
 7949TIP3    H145338   4.814   5.015   2.628 -1.3306  1.0891 -2.6029
 7949TIP3    H245339   4.671   5.058   2.655 -0.6339  1.4970  0.8153
 7950TIP3   OH245340   4.516   2.883  16.631  0.3786  0.2914 -0.1741
 7950TIP3    H145341   4.530   2.965  16.584  0.0622 -0.3234 -1.3997
 7950TIP3    H245342   4.449   2.903  16.696 -1.2159  0.5588 -1.8116
 7951TIP3   OH245343   6.448   2.204  16.154 -0.2103 -0.4118 -0.2083
 7951TIP3    H145344   6.404   2.260  16.219 -1.1107  0.1120 -1.2444
 7951TIP3    H245345   6.540   2.231  16.157 -0.4456  0.3731  0.0651
 7952TIP3   OH245346   0.201   0.345  16.529 -0.4370 -0.0927 -0.1477
 7952TIP3    H145347   0.288   0.347  16.569  0.2807  0.1997 -1.6732
 7952TIP3    H245348   0.176   0.252  16.529 -0.8351 -0.0335  1.6874
 7953TIP3   OH245349   1.615   5.521   3.341 -0.3706  0.7314  0.7716
 7953TIP3    H145350   1.599   5.442   3.392  0.1295  0.3812  0.3912
 7953TIP3    H245351   1.661   5.580   3.402  1.3836 -0.1640  0.3854
 7954TIP3   OH245352   0.343   2.535   0.480  0.2503 -0.0774 -0.5879
 7954TIP3    H145353   0.306   2.457   0.440 -0.2118 -0.2344  0.1192
 7954TIP3    H245354   0.294   2.608   0.441 -0.4254 -0.2480 -0.0803
 7955TIP3   OH245355   1.492   5.812   4.968  0.2136  0.0658 -0.0836
 7955TIP3    H145356   1.455   5.900   4.974 -0.6174 -0.3423  0.9896
 7955TIP3    H245357   1.562   5.820   4.902  0.0955  1.4959 -0.0643
 7956TIP3   OH245358   1.040   5.621   3.019 -0.4417 -0.5996 -0.3386
 7956TIP3    H145359   1.069   5.597   3.107  1.8995  1.4371 -0.4382
 7956TIP3    H245360   1.116   5.664   2.979 -2.8053  2.8048 -1.6615
 7957TIP3   OH245361   3.661   3.905   2.489  0.2140 -0.0674  0.1975
 7957TIP3    H145362   3.646   3.975   2.552 -3.2332  0.4342 -0.9137
 7957TIP3    H245363   3.624   3.827   2.530  2.3795 -0.8994  0.6830
 7958TIP3   OH245364   1.951   4.488  16.626 -0.0903 -0.0415  0.1280
 7958TIP3    H145365   2.000   4.542  16.688  0.0142 -0.2010  0.1866
 7958TIP3    H245366   1.915   4.551  16.563 -2.3871  0.4317  1.8050
 7959TIP3   OH245367   2.889   5.504   2.564 -0.5966  0.0320  0.0956
 7959TIP3    H145368   2.891   5.553   2.647 -1.9856 -0.2077  0.3021
 7959TIP3    H245369   2.907   5.570   2.497 -1.7887  0.7175  0.4234
 7960TIP3   OH245370   5.190   5.359   3.202 -0.2356 -0.4163 -0.2799
 7960TIP3    H145371   5.158   5.388   3.117 -3.3950 -0.9670  0.5773
 7960TIP3    H245372   5.221   5.439   3.245 -0.5679  0.2047 -1.1839
 7961TIP3   OH245373   2.681   3.839   5.634  0.0553 -0.3505  0.5365
 7961TIP3    H145374   2.745   3.773   5.605 -0.6228 -1.1922  0.9030
 7961TIP3    H245375   2.657   3.811   5.722 -0.3681  0.3086  0.6356
 7962TIP3   OH245376   3.361   1.118   4.622 -0.3338 -0.1190 -0.2743
 7962TIP3    H145377   3.301   1.067   4.566  0.2532  0.5790 -1.5708
 7962TIP3    H245378   3.365   1.204   4.581  0.3366  0.3348  0.7042
 7963TIP3   OH245379   6.256   1.520  11.697  0.4178  0.0835  0.9695
 7963TIP3    H145380   6.259   1.439  11.747  0.1560 -1.5811 -1.5347
 7963TIP3    H245381   6.177   1.512  11.643  2.5057 -0.0202 -2.3609
 7964TIP3   OH245382   2.077   3.443  10.756  0.1681 -0.5256 -0.6133
 7964TIP3    H145383   2.069   3.417  10.664  0.6482 -0.1750 -0.7554
 7964TIP3    H245384   2.079   3.539  10.754  0.8270 -0.5271 -0.2936
 7965TIP3   OH245385   1.894   2.147  12.677 -0.1184 -0.4332  0.5396
 7965TIP3    H145386   1.937   2.224  12.715  1.4618 -0.8043 -0.4044
 7965TIP3    H245387   1.966   2.097  12.638 -1.1360 -2.2798  0.9270
 7966TIP3   OH245388   4.366   1.687  14.910 -0.7871 -0.6828  0.1922
 7966TIP3    H145389   4.453   1.654  14.932 -1.0817 -0.9743  0.9239
 7966TIP3    H245390   4.383   1.761  14.851 -0.0909 -1.4574 -0.6071
 7967TIP3   OH245391   1.190   5.488   5.947  0.2521 -0.1041  0.0242
 7967TIP3    H145392   1.259   5.534   5.994  0.1864 -1.6784  1.7948
 7967TIP3    H245393   1.236   5.427   5.890  0.3142  0.8374 -0.9668
 7968TIP3   OH245394   5.764   5.636  16.506 -0.1835 -0.2348  0.0429
 7968TIP3    H145395   5.788   5.552  16.545 -2.5535 -0.5868  0.9340
 7968TIP3    H245396   5.792   5.701  16.570 -0.2472 -0.5043  0.3487
 7969TIP3   OH245397   3.595   6.194   2.560  0.7458  0.3337  0.1712
 7969TIP3    H145398   3.511   6.154   2.583  2.2078 -2.0886  1.5920
 7969TIP3    H245399   3.571   6.283   2.532 -2.3363 -0.4535 -0.1308
 7970TIP3   OH245400   1.855   2.799  14.879 -0.1930 -0.0446 -0.2948
 7970TIP3    H145401   1.857   2.822  14.786 -1.3646 -3.1099 -1.1926
 7970TIP3    H245402   1.947   2.793  14.904  0.1609  2.6726 -0.6393
 7971TIP3   OH245403   0.173   1.836  16.326  0.3253 -0.1187 -0.0717
 7971TIP3    H145404   0.177   1.932  16.325 -1.5467  0.0071  0.5687
 7971TIP3    H245405   0.114   1.815  16.398  1.7880 -1.8417  0.7159
 7972TIP3   OH245406   4.651   5.188  14.872 -0.3359 -0.0982  0.3567
 7972TIP3    H145407   4.701   5.155  14.797  0.0356  0.6557  0.2622
 7972TIP3    H245408   4.563   5.202  14.838 -0.2128  0.0703  0.1066
 7973TIP3   OH245409   2.178   1.882   5.836  0.1227 -0.0474 -0.4308
 7973TIP3    H145410   2.241   1.953   5.845  0.3371 -0.2726 -0.1410
 7973TIP3    H245411   2.204   1.818   5.902 -1.8182  0.9147  1.3839
 7974TIP3   OH245412   3.279   0.239  16.104  0.2788  0.2305 -0.0907
 7974TIP3    H145413   3.221   0.164  16.118  1.8499 -0.9819  0.3345
 7974TIP3    H245414   3.274   0.256  16.010  0.3448 -0.8190 -0.3025
 7975TIP3   OH245415   5.041   1.933   5.796  0.1602  0.0242 -0.2357
 7975TIP3    H145416   5.012   2.023   5.813 -4.3300 -1.2308  0.1895
 7975TIP3    H245417   5.020   1.919   5.703  0.9668 -0.5671 -0.3343
 7976TIP3   OH245418   5.676   3.070  12.714  0.3230 -0.5412  0.3023
 7976TIP3    H145419   5.603   3.010  12.697  0.3815 -0.4022 -0.4657
 7976TIP3    H245420   5.661   3.144  12.656  2.0913 -1.3697 -1.3399
 7977TIP3   OH245421   4.606   5.693   6.624  0.1597 -0.6619 -0.0521
 7977TIP3    H145422   4.653   5.752   6.683 -3.9908  1.6929  1.3491
 7977TIP3    H245423   4.606   5.608   6.670 -1.1049  0.5640  2.4449
 7978TIP3   OH245424   1.989   0.771   5.665  0.1989 -0.1838 -0.1807
 7978TIP3    H145425   1.997   0.753   5.571  0.8155  0.1925 -0.2070
 7978TIP3    H245426   1.951   0.691   5.702 -1.8938  0.3374 -1.0185
 7979TIP3   OH245427   0.283   4.873  16.449 -0.3540 -0.5227 -0.3294
 7979TIP3    H145428   0.313   4.943  16.507  0.2854 -0.4914 -0.6819
 7979TIP3    H245429   0.202   4.842  16.488 -0.0380 -0.3683  0.4702
 7980TIP3   OH245430   0.221   6.249   4.200 -0.5239 -0.5359  0.3301
 7980TIP3    H145431   0.180   6.196   4.131  1.3106 -3.6716  1.4478
 7980TIP3    H245432   0.248   6.329   4.155 -0.9442 -1.6951 -2.2029
 7981TIP3   OH245433   6.649   4.347  12.451  0.0653 -0.3753  0.3572
 7981TIP3    H145434   6.677   4.405  12.379 -1.9096 -0.5307 -0.5877
 7981TIP3    H245435   6.706   4.271  12.443  2.0908  0.9739  1.0499
 7982TIP3   OH245436   0.724   5.415  11.233  0.2236  0.2449 -0.0064
 7982TIP3    H145437   0.651   5.444  11.289  0.7586  0.2754  0.6885
 7982TIP3    H245438   0.782   5.491  11.229  1.1292 -0.3606  0.9862
 7983TIP3   OH245439   5.785   6.355  16.454 -0.1353  0.0585 -0.2942
 7983TIP3    H145440   5.743   6.285  16.405 -0.1917 -0.5231  0.5495
 7983TIP3    H245441   5.714   6.396  16.503  0.0251  0.1376 -0.1232
 7984TIP3   OH245442   2.200   4.011  13.010 -0.5350 -0.4513 -0.1636
 7984TIP3    H145443   2.133   3.952  12.975  0.5210 -1.9268  0.2096
 7984TIP3    H245444   2.197   3.996  13.105  0.3888 -0.6300 -0.1525
 7985TIP3   OH245445   2.435   6.646   3.161  0.5967 -0.6386  0.0666
 7985TIP3    H145446   2.357   6.634   3.216 -0.1809 -0.7018 -1.0272
 7985TIP3    H245447   2.480   6.720   3.201 -1.1920  0.8687 -0.5678
 7986TIP3   OH245448   4.122   6.380  16.032  0.0892  0.1876 -0.1700
 7986TIP3    H145449   4.034   6.386  15.993 -0.0159 -0.2667 -0.0197
 7986TIP3    H245450   4.179   6.356  15.959  0.2833  1.5447 -0.4909
 7987TIP3   OH245451   4.272   5.944   0.766 -0.3000  0.1553 -0.0741
 7987TIP3    H145452   4.212   5.929   0.693  0.4352  0.7882 -0.8297
 7987TIP3    H245453   4.215   5.964   0.840 -1.0614 -0.5271 -0.4573
 7988TIP3   OH245454   5.255   3.607   3.288  0.0951  0.0659  0.0904
 7988TIP3    H145455   5.247   3.664   3.364 -2.1207 -0.2913  0.1933
 7988TIP3    H245456   5.170   3.564   3.280  0.0272  0.5006 -2.9159
 7989TIP3   OH245457   5.485   0.818  13.106 -0.3358  0.4682  0.0708
 7989TIP3    H145458   5.521   0.833  13.193  0.3529  0.1501 -0.1514
 7989TIP3    H245459   5.510   0.728  13.085 -1.0312  0.3362 -0.2007
 7990TIP3   OH245460   2.267   3.761  16.297 -0.0868 -0.3911  0.0166
 7990TIP3    H145461   2.236   3.673  16.317 -1.4288 -0.9236 -3.5827
 7990TIP3    H245462   2.193   3.818  16.315  0.0959 -0.2732  0.4093
 7991TIP3   OH245463   1.375   6.556  13.191 -0.0065  0.1367 -0.1513
 7991TIP3    H145464   1.295   6.577  13.143 -0.3667  0.6031  0.6415
 7991TIP3    H245465   1.349   6.485  13.250  0.1502  0.3276  0.1453
 7992TIP3   OH245466   0.260   2.423  13.616 -0.4031  0.3948 -0.4541
 7992TIP3    H145467   0.299   2.349  13.662 -0.5956 -0.6446 -1.8856
 7992TIP3    H245468   0.325   2.494  13.623  0.7332 -0.5790 -0.8442
 7993TIP3   OH245469   5.592   0.392   3.594  0.3018 -0.0109  0.1677
 7993TIP3    H145470   5.536   0.424   3.523  0.0281 -0.8839 -0.0311
 7993TIP3    H245471   5.541   0.320   3.633  1.9157 -1.9359 -1.0599
 7994TIP3   OH245472   5.671   5.401  11.170  0.0051  0.1576 -0.6106
 7994TIP3    H145473   5.647   5.372  11.083  1.4283 -0.0408 -0.9585
 7994TIP3    H245474   5.697   5.493  11.159 -0.3415  0.2973 -0.2925
 7995TIP3   OH245475   5.312   2.868   3.235  0.3544  0.4938 -0.1242
 7995TIP3    H145476   5.350   2.866   3.147 -1.1512 -1.6129 -0.8103
 7995TIP3    H245477   5.218   2.877   3.220  0.1451  0.9880  1.3315
 7996TIP3   OH245478   2.031   0.558  15.139  0.5758  0.0674  0.3277
 7996TIP3    H145479   2.095   0.504  15.094 -0.6282 -0.6607 -0.5760
 7996TIP3    H245480   1.967   0.581  15.072 -1.7500 -1.7623  1.7697
 7997TIP3   OH245481   5.868   6.255  16.743  0.1488 -0.4834 -0.3286
 7997TIP3    H145482   5.929   6.322  16.774 -0.2456  0.4816 -1.5160
 7997TIP3    H245483   5.915   6.212  16.671  0.7596 -2.1564  1.0136
 7998TIP3   OH245484   2.600   1.516   6.544 -0.4960  0.2797 -0.2494
 7998TIP3    H145485   2.615   1.602   6.505 -1.1727  0.4670 -0.1039
 7998TIP3    H245486   2.684   1.493   6.586 -0.4193  1.0216  0.0088
 7999TIP3   OH245487   1.353   6.170   1.002  0.0791  0.1477  0.6328
 7999TIP3    H145488   1.386   6.145   1.089  0.3462  0.8940  0.7592
 7999TIP3    H245489   1.277   6.114   0.988  1.3528 -1.6088  0.3553
 8000TIP3   OH245490   1.292   4.372  17.198 -0.4866  0.1383  0.1376
 8000TIP3    H145491   1.261   4.292  17.156 -0.7401 -0.3048  1.1488
 8000TIP3    H245492   1.329   4.423  17.126 -0.8334 -0.6314 -0.6116
 8001TIP3   OH245493   0.824   1.956   0.439  0.2360 -0.8652 -0.0831
 8001TIP3    H145494   0.823   2.051   0.456 -0.3081 -1.0258  0.8509
 8001TIP3    H245495   0.915   1.937   0.416  0.7154 -0.3688  1.3045
 8002TIP3   OH245496   1.098   3.856   5.535  0.1539  0.1947 -0.0561
 8002TIP3    H145497   1.011   3.881   5.566  0.2402 -0.8711  1.1251
 8002TIP3    H245498   1.158   3.916   5.579  0.3094 -1.5258  2.2912
 8003TIP3   OH245499   5.453   5.851   3.835  0.0790  0.2764 -0.0602
 8003TIP3    H145500   5.361   5.866   3.814  0.6285  0.5557 -2.4699
 8003TIP3    H245501   5.498   5.931   3.810  1.2947 -0.7001 -1.1495
 8004TIP3   OH245502   4.337   3.649   4.306  0.5353 -0.0293 -0.4477
 8004TIP3    H145503   4.414   3.697   4.277  0.0024  0.4500 -1.1084
 8004TIP3    H245504   4.264   3.690   4.259  0.0276 -1.2999 -0.8170
 8005TIP3   OH245505   4.449   4.313   1.273 -0.1284 -0.2567  0.9191
 8005TIP3    H145506   4.493   4.230   1.253 -1.3663 -0.6263 -0.4203
 8005TIP3    H245507   4.360   4.288   1.297 -0.5035  0.6699  0.5407
 8006TIP3   OH245508   2.603   4.964   0.079 -0.4314  0.6215  0.3326
 8006TIP3    H145509   2.606   5.007  -0.006 -2.3034  1.1727  0.5111
 8006TIP3    H245510   2.590   4.872   0.059  3.0377  0.0482 -0.0297
 8007TIP3   OH245511   3.459   2.788  15.473 -0.1616 -0.4805  0.5893
 8007TIP3    H145512   3.523   2.737  15.423 -2.3907 -1.0510 -1.8950
 8007TIP3    H245513   3.487   2.879  15.464  0.3935 -0.7313 -0.3015
 8008TIP3   OH245514   1.905   5.485  11.769 -0.8348  0.6863 -0.6709
 8008TIP3    H145515   1.911   5.454  11.860  0.1516  1.9752 -0.2636
 8008TIP3    H245516   1.873   5.409  11.720 -0.6782 -0.2599  0.6257
 8009TIP3   OH245517   2.462   3.344   3.801  0.0980  0.1618  0.1288
 8009TIP3    H145518   2.473   3.395   3.881  1.4504 -0.7512  0.5606
 8009TIP3    H245519   2.367   3.339   3.788 -0.2232  5.0186 -1.4571
 8010TIP3   OH245520   4.174   0.252   3.112 -0.0071 -0.1130  0.5316
 8010TIP3    H145521   4.200   0.211   3.029 -0.0883 -1.5426  1.1856
 8010TIP3    H245522   4.098   0.305   3.090  0.9364  0.8357 -0.6103
 8011TIP3   OH245523   2.684   4.574   2.933 -0.4259  0.2558  0.3524
 8011TIP3    H145524   2.609   4.630   2.951 -0.6770 -0.3470  1.3071
 8011TIP3    H245525   2.706   4.590   2.842 -2.0455  0.0531 -0.1009
 8012TIP3   OH245526   6.821   0.555  14.652  0.6314  0.0084 -0.5040
 8012TIP3    H145527   6.811   0.638  14.699  0.6044 -0.3189  0.0755
 8012TIP3    H245528   6.882   0.575  14.581 -1.1281  1.1000 -1.8029
 8013TIP3   OH245529   3.584   1.518  16.675  0.0323  0.7482 -0.0495
 8013TIP3    H145530   3.590   1.441  16.731  0.7119  2.0836  1.8379
 8013TIP3    H245531   3.490   1.527  16.657  0.0686 -1.3422 -1.6242
 8014TIP3   OH245532   0.954   0.930  15.160 -0.6275  0.3984 -0.2402
 8014TIP3    H145533   1.018   0.998  15.139 -1.3838  0.5292 -2.2892
 8014TIP3    H245534   1.006   0.850  15.168  0.2426  1.0887  1.9699
 8015TIP3   OH245535   6.256   5.919  11.172  0.0428  0.2892  0.8094
 8015TIP3    H145536   6.234   5.987  11.109  0.0464  1.3814  1.9528
 8015TIP3    H245537   6.310   5.857  11.122 -0.3545  0.8617 -0.3709
 8016TIP3   OH245538   5.627   3.135  16.766 -0.1504 -0.0291 -0.1153
 8016TIP3    H145539   5.585   3.221  16.776  0.9013  0.4610  0.2238
 8016TIP3    H245540   5.661   3.115  16.853 -0.1182 -0.6563 -0.2704
 8017TIP3   OH245541   5.677   5.335  17.146  0.1203 -0.3940  0.3837
 8017TIP3    H145542   5.607   5.364  17.088 -0.1601 -1.0212  0.4060
 8017TIP3    H245543   5.747   5.398  17.132  0.0122 -0.4757 -0.5560
 8018TIP3   OH245544   0.124   3.934   5.783 -0.1323 -0.7039  0.0699
 8018TIP3    H145545   0.157   3.853   5.820  2.2890  0.5763  0.8913
 8018TIP3    H245546   0.111   3.992   5.858 -0.0749  0.2726 -0.6456
 8019TIP3   OH245547   2.581   1.258   6.409  0.0632  0.0711  0.5115
 8019TIP3    H145548   2.531   1.265   6.328  0.2417 -3.1647 -0.0014
 8019TIP3    H245549   2.537   1.317   6.470 -2.8908 -0.7648 -0.6476
 8020TIP3   OH245550   4.810   5.188  12.015 -0.2327 -0.2023  0.2121
 8020TIP3    H145551   4.828   5.260  12.075  1.5022 -0.3263 -0.1045
 8020TIP3    H245552   4.797   5.231  11.930  0.6230 -0.2277  0.0582
 8021TIP3   OH245553   6.631   3.935  16.157  0.1615  0.3585  0.2604
 8021TIP3    H145554   6.672   3.877  16.093 -0.1408  1.1061 -0.6445
 8021TIP3    H245555   6.601   4.010  16.105  1.1012  1.6296  1.4686
 8022TIP3   OH245556   6.514   5.345   3.710 -0.1942  0.1062  0.1822
 8022TIP3    H145557   6.489   5.253   3.723 -0.4260 -0.0955 -1.4132
 8022TIP3    H245558   6.476   5.367   3.625 -0.4435  1.8059  0.7070
 8023TIP3   OH245559   5.357   5.514  14.255  0.2488  0.2657  0.4384
 8023TIP3    H145560   5.317   5.598  14.279  2.5039  1.4756  0.2469
 8023TIP3    H245561   5.336   5.502  14.163  1.1469  1.4201  0.0562
 8024TIP3   OH245562   0.657   0.724   2.918 -0.6147 -0.8086  0.2316
 8024TIP3    H145563   0.595   0.732   2.990 -0.2378 -1.5769  0.6638
 8024TIP3    H245564   0.640   0.799   2.862 -0.5277  0.1176  1.4198
 8025TIP3   OH245565   5.777   3.173  16.500 -0.5236  0.5492 -0.2479
 8025TIP3    H145566   5.732   3.134  16.576  0.6025 -0.5429 -0.1107
 8025TIP3    H245567   5.804   3.259  16.531 -1.4866  0.7655  0.0436
 8026TIP3   OH245568   1.812   6.715  14.614 -0.0842 -0.0783  0.6876
 8026TIP3    H145569   1.815   6.730  14.520  0.9090  1.0830  0.8764
 8026TIP3    H245570   1.896   6.675  14.635  0.4373  1.2626  1.2962
 8027TIP3   OH245571   3.114   3.783   4.156 -0.2520 -0.5392  0.7953
 8027TIP3    H145572   3.025   3.769   4.188 -0.5698 -0.0088  0.1863
 8027TIP3    H245573   3.158   3.699   4.168 -0.4479 -0.4500  2.2700
 8028TIP3   OH245574   5.698   3.573  15.578  0.0135 -0.2592  0.0012
 8028TIP3    H145575   5.619   3.584  15.525  1.3949 -2.0667 -2.6331
 8028TIP3    H245576   5.668   3.525  15.656 -1.7238  0.6546 -0.0363
 8029TIP3   OH245577   4.480   0.170  12.898 -0.0942 -0.2337 -0.6562
 8029TIP3    H145578   4.474   0.108  12.971  1.8730 -0.0107 -0.2625
 8029TIP3    H245579   4.453   0.119  12.821 -2.0880 -0.5044  0.1420
 8030TIP3   OH245580   6.727   0.663   2.189 -0.3452 -0.1455  0.0632
 8030TIP3    H145581   6.793   0.718   2.146 -0.0346 -0.4929  0.0931
 8030TIP3    H245582   6.646   0.714   2.182  0.2162  0.9929  1.3876
 8031TIP3   OH245583   1.430   5.154  10.777  0.4203  0.2815  0.5060
 8031TIP3    H145584   1.362   5.132  10.713 -1.4090  0.9843  2.1161
 8031TIP3    H245585   1.454   5.069  10.815 -1.3852  0.1953  1.6141
 8032TIP3   OH245586   3.652   2.322  13.170  0.1670 -0.0793 -0.0534
 8032TIP3    H145587   3.683   2.355  13.255  4.6748 -1.4494 -0.8877
 8032TIP3    H245588   3.686   2.385  13.107 -0.9054 -0.4540 -1.0259
 8033TIP3   OH245589   6.269   1.600   3.212 -0.3456 -0.0353  0.2773
 8033TIP3    H145590   6.322   1.660   3.159 -1.0253  2.0187  1.8024
 8033TIP3    H245591   6.181   1.636   3.207 -1.0896 -1.7993  0.0442
 8034TIP3   OH245592   3.680   3.323  11.953 -0.1180 -0.3623 -0.2778
 8034TIP3    H145593   3.689   3.394  11.888 -2.1002 -1.7694 -2.2264
 8034TIP3    H245594   3.758   3.270  11.940  0.8118  0.7866  0.3924
 8035TIP3   OH245595   1.093   2.162  14.839 -0.2647  0.4332 -0.0051
 8035TIP3    H145596   1.003   2.196  14.835 -0.5477 -0.4227 -2.7619
 8035TIP3    H245597   1.083   2.069  14.858  0.0120  0.2768 -0.6072
 8036TIP3   OH245598   5.814   3.102  14.060  0.3450  0.1329 -0.5611
 8036TIP3    H145599   5.837   3.096  13.967 -1.2354  2.1848 -1.1552
 8036TIP3    H245600   5.765   3.021  14.077  0.5663 -0.2285 -1.5250
 8037TIP3   OH245601   4.323   3.923  11.641 -0.0906  0.0205  0.6697
 8037TIP3    H145602   4.243   3.944  11.592 -0.3284  2.6455  1.9808
 8037TIP3    H245603   4.298   3.849  11.696 -0.8512 -0.7606 -0.6857
 8038TIP3   OH245604   1.758   2.428   1.630  0.4909  0.1603 -0.2400
 8038TIP3    H145605   1.712   2.344   1.634  0.5742  0.1581  1.1814
 8038TIP3    H245606   1.838   2.415   1.682 -0.0977  1.4477  1.0978
 8039TIP3   OH245607   4.768   3.397  14.201 -0.1778 -0.1287 -0.2886
 8039TIP3    H145608   4.773   3.400  14.297 -1.5892 -0.3374 -0.1826
 8039TIP3    H245609   4.701   3.331  14.183  1.7277 -1.8081 -1.5076
 8040TIP3   OH245610   5.937   0.128   5.022  0.0156 -0.0830 -0.5552
 8040TIP3    H145611   5.851   0.094   5.046  0.0362  0.4382  0.2689
 8040TIP3    H245612   5.970   0.171   5.101  0.0400  1.7600 -1.5147
 8041TIP3   OH245613   5.044   3.640  14.160 -0.1442  0.1942 -0.5086
 8041TIP3    H145614   5.045   3.563  14.103  1.8095 -0.5618  0.4483
 8041TIP3    H245615   5.027   3.713  14.101  1.4563 -0.6081 -2.0704
 8042TIP3   OH245616   5.711   4.619  11.162 -0.4491 -0.1840 -0.1190
 8042TIP3    H145617   5.783   4.680  11.179  0.0757 -0.5083 -1.1083
 8042TIP3    H245618   5.737   4.573  11.083 -1.9303 -0.0457 -0.7147
 8043TIP3   OH245619   0.105   3.589   5.671 -0.4385 -0.1705 -0.7268
 8043TIP3    H145620   0.088   3.532   5.746  2.1144 -0.6782 -0.4457
 8043TIP3    H245621   0.060   3.670   5.692 -0.9157 -0.7838  0.7193
 8044TIP3   OH245622   5.247   4.197  14.978  0.0883  0.0176 -0.3627
 8044TIP3    H145623   5.243   4.287  15.011  0.2718  0.5998 -1.8494
 8044TIP3    H245624   5.155   4.171  14.968 -0.0794 -1.0259  2.6318
 8045TIP3   OH245625   1.470   4.038  16.976 -0.3070 -0.9575 -0.1723
 8045TIP3    H145626   1.434   3.961  16.933 -1.2310 -0.0827 -1.0064
 8045TIP3    H245627   1.546   4.005  17.023 -1.7033 -2.7269  0.9934
 8046TIP3   OH245628   4.917   5.353  13.449  0.0435  0.6153 -0.4633
 8046TIP3    H145629   4.883   5.407  13.521 -0.8100 -0.4086 -0.0702
 8046TIP3    H245630   4.838   5.319  13.405  0.5374 -0.8892 -0.2411
 8047TIP3   OH245631   4.453   6.086   1.505 -0.4382  0.3452 -0.2029
 8047TIP3    H145632   4.531   6.037   1.530 -0.4297 -0.0096 -0.8727
 8047TIP3    H245633   4.485   6.156   1.449 -0.6511 -0.2402 -1.0844
 8048TIP3   OH245634   6.814   0.547  15.919  0.2089 -0.2138 -0.1886
 8048TIP3    H145635   6.807   0.583  15.831 -0.4941 -0.6065 -0.2953
 8048TIP3    H245636   6.725   0.550  15.954 -0.0264 -2.4666 -0.4560
 8049TIP3   OH245637   4.249   1.230  16.425  0.5513 -0.1352  0.2228
 8049TIP3    H145638   4.164   1.249  16.383 -0.7075 -2.3871  1.5865
 8049TIP3    H245639   4.297   1.179  16.359  1.4729  2.2361 -1.0633
 8050TIP3   OH245640   3.608   4.107   5.991 -0.3428  0.1246  0.0016
 8050TIP3    H145641   3.590   4.166   6.064 -1.4560  0.1340 -0.2596
 8050TIP3    H245642   3.530   4.053   5.985  1.3445 -2.7154  1.4335
 8051TIP3   OH245643   4.272   0.005   3.789 -0.2970  0.0670 -0.7430
 8051TIP3    H145644   4.328  -0.000   3.712  0.4919 -1.4181 -0.1151
 8051TIP3    H245645   4.297   0.087   3.831 -0.1437  0.4798 -1.6140
 8052TIP3   OH245646   2.642   2.747   1.783 -0.6431  0.1523  0.7239
 8052TIP3    H145647   2.602   2.676   1.733  1.4378 -0.7642  0.2517
 8052TIP3    H245648   2.633   2.720   1.874 -0.7301 -0.2236  0.6049
 8053TIP3   OH245649   5.953   0.120  13.012  0.1707 -0.0840  0.1433
 8053TIP3    H145650   5.941   0.036  12.966 -0.8030  0.1917 -0.1089
 8053TIP3    H245651   5.960   0.096  13.104 -0.3685 -0.4185  0.0977
 8054TIP3   OH245652   3.972   5.901  15.959  0.3904  0.2537  0.1456
 8054TIP3    H145653   3.962   5.806  15.956  0.8818  0.0849  2.2619
 8054TIP3    H245654   4.066   5.916  15.947  0.1504  0.6178 -1.6285
 8055TIP3   OH245655   6.387   1.061  16.869  0.4193  0.3155 -0.0007
 8055TIP3    H145656   6.390   1.156  16.857  2.5091  0.3630  0.5342
 8055TIP3    H245657   6.349   1.049  16.956 -3.1078  0.4437 -1.3548
 8056TIP3   OH245658   2.893   5.760   1.655 -0.0678  0.0933 -0.1271
 8056TIP3    H145659   2.946   5.810   1.592 -1.2828  2.2195  0.4523
 8056TIP3    H245660   2.903   5.669   1.627  0.3356  0.8437 -2.7211
 8057TIP3   OH245661   1.869   1.765   5.378 -0.1326 -0.6775  0.3042
 8057TIP3    H145662   1.779   1.768   5.410 -0.4394  0.1194 -0.5809
 8057TIP3    H245663   1.919   1.819   5.440 -0.6945  0.7375 -0.4268
 8058TIP3   OH245664   1.178   1.521  13.553  0.0928  0.4469 -0.0500
 8058TIP3    H145665   1.236   1.457  13.595  0.3364  0.4047 -0.4473
 8058TIP3    H245666   1.144   1.574  13.626  0.5462  0.4045  0.1981
 8059TIP3   OH245667   1.154   5.707  15.225 -0.5664  0.3281 -0.5463
 8059TIP3    H145668   1.124   5.628  15.270  0.0800  0.8687  0.8809
 8059TIP3    H245669   1.187   5.676  15.140  0.1350 -0.9981  0.1929
 8060TIP3   OH245670   6.099   3.348  11.937 -0.5532 -0.0126  0.0494
 8060TIP3    H145671   6.130   3.265  11.973 -1.4283 -1.2259 -1.8348
 8060TIP3    H245672   6.175   3.406  11.941  0.0857 -0.8846  1.3691
 8061TIP3   OH245673   5.173   4.270  10.781  0.4501  0.0258  0.2104
 8061TIP3    H145674   5.214   4.260  10.866  2.0986  1.4624 -0.3614
 8061TIP3    H245675   5.238   4.238  10.719 -0.7072 -0.9653 -0.5456
 8062TIP3   OH245676   4.548   4.763  15.458  0.2021 -0.2862  0.1692
 8062TIP3    H145677   4.493   4.840  15.471 -0.1195 -0.0628 -2.1319
 8062TIP3    H245678   4.627   4.781  15.509  0.2087  1.6726 -0.4559
 8063TIP3   OH245679   0.232   1.051  13.889  0.5572  0.4108  0.6760
 8063TIP3    H145680   0.261   1.095  13.968 -0.1089 -1.4432  2.0311
 8063TIP3    H245681   0.157   0.998  13.917  0.5924 -0.6623 -1.0907
 8064TIP3   OH245682   1.600   5.849  10.703 -0.1948 -0.7639  0.3803
 8064TIP3    H145683   1.644   5.911  10.644  0.0406 -1.3698 -0.0932
 8064TIP3    H245684   1.652   5.852  10.783  1.1879 -2.0222 -0.4304
 8065TIP3   OH245685   0.416   1.743  16.354 -0.4199 -0.5227 -0.0172
 8065TIP3    H145686   0.397   1.707  16.441  1.2345 -2.7007 -0.4549
 8065TIP3    H245687   0.331   1.772  16.321 -1.0612  0.5513  2.3702
 8066TIP3   OH245688   4.174   1.213   2.629 -0.2089 -0.0092 -0.1357
 8066TIP3    H145689   4.091   1.167   2.618 -0.7441  0.8251  0.2850
 8066TIP3    H245690   4.207   1.223   2.540 -1.2775  0.9222 -0.4506
 8067TIP3   OH245691   4.813   4.582  14.582 -0.4614  0.1756  0.4542
 8067TIP3    H145692   4.909   4.580  14.578 -0.4008  0.6809  1.4058
 8067TIP3    H245693   4.792   4.550  14.670 -1.2586 -1.7812 -0.4000
 8068TIP3   OH245694   0.994   1.242   5.430  0.0059  0.3156 -0.4643
 8068TIP3    H145695   1.051   1.222   5.356 -0.8479  0.4669 -1.1769
 8068TIP3    H245696   0.923   1.178   5.423  1.0903 -1.2346  1.5972
 8069TIP3   OH245697   2.291   2.743  13.015  0.2523  0.5335 -0.2983
 8069TIP3    H145698   2.344   2.771  13.090 -0.2168  1.1446 -0.1809
 8069TIP3    H245699   2.239   2.671  13.049 -0.2683  1.0822  0.1005
 8070TIP3   OH245700   0.279   5.658  16.884 -0.2134  0.8444 -0.8357
 8070TIP3    H145701   0.252   5.568  16.868  1.5898  0.0224  0.3250
 8070TIP3    H245702   0.328   5.654  16.967 -0.6782  3.0234 -0.3819
 8071TIP3   OH245703   5.862   0.554  16.675  0.2485  0.0631  0.2745
 8071TIP3    H145704   5.949   0.526  16.705  0.6273 -0.0690 -0.8938
 8071TIP3    H245705   5.808   0.476  16.681  0.8055 -0.4619 -1.1322
 8072TIP3   OH245706   0.361   1.368   4.703  0.3508 -0.1285 -0.3717
 8072TIP3    H145707   0.424   1.329   4.764 -0.7031 -1.6632 -0.2243
 8072TIP3    H245708   0.392   1.343   4.617  0.0311 -0.7796 -0.3042
 8073TIP3   OH245709   4.663   1.762  16.581 -0.1764 -0.0655  0.4987
 8073TIP3    H145710   4.651   1.783  16.674  0.1039  1.2220  0.2659
 8073TIP3    H245711   4.757   1.748  16.572 -0.3954 -1.8438  0.7089
 8074TIP3   OH245712   5.137   4.784   4.205 -0.1160 -0.0049  0.1618
 8074TIP3    H145713   5.184   4.849   4.258 -1.3906  0.6047  0.5783
 8074TIP3    H245714   5.057   4.767   4.254 -0.8322 -0.2310 -1.0477
 8075TIP3   OH245715   3.293   5.127   0.219 -0.4514  0.2795  0.1096
 8075TIP3    H145716   3.273   5.046   0.267  1.3580 -1.0952 -1.3154
 8075TIP3    H245717   3.369   5.164   0.264  0.2689 -0.1757 -0.6977
 8076TIP3   OH245718   1.732   5.013  15.678  0.2434 -0.4094 -0.0815
 8076TIP3    H145719   1.715   5.105  15.695  0.4248 -0.3811 -0.0506
 8076TIP3    H245720   1.682   4.966  15.745  0.0550 -0.3381 -0.1729
 8077TIP3   OH245721   1.304   0.906  15.375 -0.1962  0.0783 -0.1870
 8077TIP3    H145722   1.289   0.999  15.392 -2.3949  0.0056 -1.2439
 8077TIP3    H245723   1.397   0.899  15.356 -0.0238  2.1040 -0.2814
 8078TIP3   OH245724   0.966   5.806  16.045  0.2009  0.3829  0.2747
 8078TIP3    H145725   0.972   5.739  15.977  0.6149  0.8026 -0.1034
 8078TIP3    H245726   1.020   5.772  16.117  0.9343  0.6035 -0.1648
 8079TIP3   OH245727   0.328   6.575  13.819  0.3282  0.3112 -0.2870
 8079TIP3    H145728   0.418   6.607  13.808  0.6755 -0.8015 -0.7373
 8079TIP3    H245729   0.326   6.540  13.908  0.6368 -0.5809 -0.6250
 8080TIP3   OH245730   6.482   0.193   6.255  0.2799  0.2590  0.3211
 8080TIP3    H145731   6.498   0.287   6.259 -1.8729  0.7143 -0.2902
 8080TIP3    H245732   6.389   0.186   6.232  0.4291 -2.0199  0.2155
 8081TIP3   OH245733   4.761   3.082   3.404  0.3431 -0.3157 -0.2926
 8081TIP3    H145734   4.706   3.026   3.459  0.6361  1.2745  1.7836
 8081TIP3    H245735   4.848   3.077   3.445  0.3515  1.6513  0.0426
 8082TIP3   OH245736   3.853   1.981   6.497 -0.2112 -0.4397  0.1264
 8082TIP3    H145737   3.929   1.930   6.526  0.0482 -1.4309 -2.0684
 8082TIP3    H245738   3.777   1.931   6.526  0.0419 -1.6131 -1.0927
 8083TIP3   OH245739   4.415   2.054  16.434 -0.1306 -0.0451  0.1923
 8083TIP3    H145740   4.501   2.070  16.471  1.2370 -0.5673 -2.5433
 8083TIP3    H245741   4.394   1.964  16.458  0.2426 -0.0365  0.5592
 8084TIP3   OH245742   4.536   1.521  14.398 -0.0280 -0.6069  1.3792
 8084TIP3    H145743   4.548   1.587  14.330 -0.8948 -0.1275  1.6791
 8084TIP3    H245744   4.624   1.509  14.435 -0.0288  1.2117  2.0683
 8085TIP3   OH245745   2.982   3.205  12.224 -0.1409  0.1985 -0.1187
 8085TIP3    H145746   2.990   3.218  12.318 -1.3748  1.5054 -0.1768
 8085TIP3    H245747   2.888   3.202  12.207  0.0587 -0.2413 -1.2975
 8086TIP3   OH245748   6.664   1.926  11.453 -0.1110 -0.2555  0.2728
 8086TIP3    H145749   6.653   2.011  11.495  1.4786 -0.6590  1.6050
 8086TIP3    H245750   6.757   1.919  11.436 -0.1377 -1.8850  0.5638
 8087TIP3   OH245751   2.265   2.161   4.904 -0.6534 -0.1750 -0.2928
 8087TIP3    H145752   2.353   2.165   4.869 -1.1852  0.0758 -1.6663
 8087TIP3    H245753   2.229   2.249   4.890 -1.6051 -0.6707 -1.1139
 8088TIP3   OH245754   4.769   0.104   2.360  0.2168 -0.6830 -0.2028
 8088TIP3    H145755   4.682   0.140   2.345 -0.6783 -2.0083  1.4034
 8088TIP3    H245756   4.799   0.146   2.441  1.5391  0.5264 -1.2881
 8089TIP3   OH245757   2.534   5.667   1.118  0.0591  0.1463 -0.2725
 8089TIP3    H145758   2.548   5.729   1.046 -2.2603 -0.5241 -1.4093
 8089TIP3    H245759   2.534   5.581   1.076 -0.8949 -0.2952  0.5948
 8090TIP3   OH245760   1.700   4.703  15.232 -0.4147  0.2363 -0.4482
 8090TIP3    H145761   1.623   4.656  15.264  0.1162 -0.5255 -0.2493
 8090TIP3    H245762   1.771   4.673  15.290 -0.1246  1.5408 -0.1063
 8091TIP3   OH245763   2.536   3.510   6.187 -0.4678  0.0610 -0.0420
 8091TIP3    H145764   2.451   3.553   6.192 -1.2755 -1.3476 -1.2207
 8091TIP3    H245765   2.517   3.417   6.190  1.0517 -0.2823 -0.2121
 8092TIP3   OH245766   6.623   5.022  12.977  0.6178  0.0971 -0.2003
 8092TIP3    H145767   6.687   4.970  12.928 -0.1295 -0.1694 -0.9026
 8092TIP3    H245768   6.548   5.031  12.918  0.1806  0.7905  0.4431
 8093TIP3   OH245769   4.680   6.414   2.676 -0.9576 -0.2980  0.1492
 8093TIP3    H145770   4.760   6.414   2.624  0.1883 -1.8218  1.7775
 8093TIP3    H245771   4.611   6.437   2.615  0.2853 -2.0116 -2.0376
 8094TIP3   OH245772   6.123   1.554  13.912 -0.0138 -0.5121 -0.2224
 8094TIP3    H145773   6.160   1.474  13.875 -0.2964 -0.4457 -0.6548
 8094TIP3    H245774   6.157   1.624  13.858  1.9852 -0.1021  1.4677
 8095TIP3   OH245775   3.869   5.831  14.502  0.3806 -0.7615 -0.1040
 8095TIP3    H145776   3.956   5.797  14.522  0.6201 -0.8640 -1.2421
 8095TIP3    H245777   3.830   5.766  14.443 -0.8708 -1.2243  1.1818
 8096TIP3   OH245778   3.476   1.660  15.175 -0.2081 -0.2492  0.0893
 8096TIP3    H145779   3.569   1.683  15.179 -0.5814  1.2468  0.6382
 8096TIP3    H245780   3.457   1.655  15.081  0.3682 -0.3795 -0.0282
 8097TIP3   OH245781   2.110   6.058  16.306 -0.0855  0.2114 -0.0848
 8097TIP3    H145782   2.096   5.996  16.234 -0.5525 -0.1396  0.3041
 8097TIP3    H245783   2.188   6.107  16.280  0.2107 -0.4413 -0.4651
 8098TIP3   OH245784   6.493   2.524  14.460 -0.3486 -0.6109  0.1055
 8098TIP3    H145785   6.436   2.517  14.384 -0.9647 -0.2614  0.5237
 8098TIP3    H245786   6.537   2.608  14.451  1.3949 -1.5783 -1.0729
 8099TIP3   OH245787   3.879   1.425  14.977  0.4757  0.4496  0.5078
 8099TIP3    H145788   3.951   1.424  15.040  0.7005 -0.8050  0.2617
 8099TIP3    H245789   3.895   1.504  14.924  2.2043 -0.2657 -0.1186
 8100TIP3   OH245790   3.155   2.116   3.637  0.2413 -0.2725  0.5653
 8100TIP3    H145791   3.145   2.095   3.730  0.5003  1.1644  0.9383
 8100TIP3    H245792   3.066   2.127   3.605  0.1211 -1.3885  0.4747
 8101TIP3   OH245793   2.189   3.888  17.040  0.0436 -0.0072 -0.4374
 8101TIP3    H145794   2.275   3.844  17.038  0.2647  0.4220 -0.5440
 8101TIP3    H245795   2.210   3.982  17.037 -0.4483  0.0879 -0.9916
 8102TIP3   OH245796   3.110   0.053   1.952  0.1279 -0.5838  0.0688
 8102TIP3    H145797   3.093   0.056   2.046  3.1740  0.6455  0.7063
 8102TIP3    H245798   3.130  -0.039   1.934 -0.4342 -0.8187  0.6379
 8103TIP3   OH245799   0.539   3.525  12.731 -0.3468 -1.1425 -0.4513
 8103TIP3    H145800   0.536   3.516  12.636  0.4643  1.3568 -0.7726
 8103TIP3    H245801   0.582   3.609  12.747 -1.0915 -1.1436  2.1271
 8104TIP3   OH245802   5.686   1.650   5.416  0.2711 -0.2497  0.6408
 8104TIP3    H145803   5.649   1.738   5.410 -0.3825 -0.6467 -2.2564
 8104TIP3    H245804   5.611   1.592   5.418  0.7198 -0.8581  0.0407
 8105TIP3   OH245805   1.899   0.423  13.937 -0.2336 -0.2815  0.1939
 8105TIP3    H145806   1.915   0.507  13.981  1.6485  0.3527 -1.5518
 8105TIP3    H245807   1.839   0.444  13.866 -2.9880 -1.2435  2.0551
 8106TIP3   OH245808   3.702   2.514   1.397  0.4424 -0.3004  0.4177
 8106TIP3    H145809   3.608   2.513   1.415  0.3829 -0.5516  0.1109
 8106TIP3    H245810   3.720   2.426   1.363  0.4748  0.2505 -1.0784
 8107TIP3   OH245811   2.686   2.072   4.172  0.1521 -0.1818  0.7952
 8107TIP3    H145812   2.768   2.095   4.215  0.2811 -0.5747  0.7588
 8107TIP3    H245813   2.711   2.048   4.083  0.0653 -0.8430  0.9467
 8108TIP3   OH245814   5.428   6.505  14.400  0.0512 -0.5336 -0.2742
 8108TIP3    H145815   5.451   6.463  14.316 -0.5112  0.5424 -0.9792
 8108TIP3    H245816   5.508   6.551  14.426 -0.4212  1.0129 -1.3961
 8109TIP3   OH245817   1.760   2.766   2.774 -0.4548 -0.3294 -0.3032
 8109TIP3    H145818   1.707   2.802   2.845 -2.3818  0.0354 -1.8344
 8109TIP3    H245819   1.804   2.690   2.813 -1.0153  0.1793  1.3996
 8110TIP3   OH245820   0.125   1.562   0.631 -0.5962 -0.0125  0.4370
 8110TIP3    H145821   0.207   1.575   0.677  0.4364 -1.3556 -0.9264
 8110TIP3    H245822   0.080   1.494   0.682  0.1953 -0.9407 -0.0772
 8111TIP3   OH245823   4.168   2.870  15.308  0.0357 -0.3531  0.4778
 8111TIP3    H145824   4.086   2.916  15.322 -0.0612 -0.7752  1.3858
 8111TIP3    H245825   4.188   2.882  15.215  0.1862  1.7956  0.7447
 8112TIP3   OH245826   1.531   1.194   4.176  0.4871  0.4676  0.9185
 8112TIP3    H145827   1.567   1.260   4.117 -0.4139 -0.0600 -0.2735
 8112TIP3    H245828   1.535   1.113   4.125  0.4701 -0.1790  1.9178
 8113TIP3   OH245829   1.811   4.935   0.850  0.6984 -0.3320 -0.5783
 8113TIP3    H145830   1.770   4.950   0.765 -1.2490  0.6389  0.4717
 8113TIP3    H245831   1.741   4.949   0.914  2.0825 -1.0971  1.2008
 8114TIP3   OH245832   5.626   5.757   3.234  0.0747  0.1504  0.2035
 8114TIP3    H145833   5.584   5.805   3.306 -1.5870 -1.2706  0.2622
 8114TIP3    H245834   5.715   5.741   3.264 -0.2587  0.5506  1.4772
 8115TIP3   OH245835   4.064   3.637   0.582  0.1205  0.2648  0.0843
 8115TIP3    H145836   4.028   3.626   0.494 -0.5331  1.5744  0.1651
 8115TIP3    H245837   4.123   3.712   0.575  0.8582 -0.2634  0.5378
 8116TIP3   OH245838   4.283   2.633   3.647 -0.2733  0.4032  0.4237
 8116TIP3    H145839   4.340   2.572   3.600 -1.5984 -2.4273  2.1990
 8116TIP3    H245840   4.248   2.691   3.579  1.2526 -0.6419 -1.3512
 8117TIP3   OH245841   6.725   2.640  11.062  0.4233 -0.7239  1.2532
 8117TIP3    H145842   6.799   2.604  11.014 -0.3121 -2.1476  1.1445
 8117TIP3    H245843   6.651   2.584  11.038 -0.5830  0.3503  1.7536
 8118TIP3   OH245844   4.272   1.741   3.202 -0.6271 -0.5006  0.2393
 8118TIP3    H145845   4.183   1.774   3.212  0.1560  2.3361 -1.2399
 8118TIP3    H245846   4.328   1.816   3.220  1.5880 -2.4015  1.9735
 8119TIP3   OH245847   4.891   4.681   4.326  0.0250 -0.3742  0.4032
 8119TIP3    H145848   4.884   4.613   4.394 -0.2517 -0.2510  0.5014
 8119TIP3    H245849   4.836   4.753   4.358  0.8354  0.1648  0.6141
 8120TIP3   OH245850   0.641   0.726  15.996  0.0827  0.1831 -0.8734
 8120TIP3    H145851   0.656   0.820  16.010 -1.4437  0.4329 -0.7295
 8120TIP3    H245852   0.716   0.697  15.944  0.8558  1.3559 -0.4530
 8121TIP3   OH245853   2.098   6.344   4.814 -0.0274  1.2506 -0.2563
 8121TIP3    H145854   2.093   6.285   4.739  0.5464 -0.2607  0.8605
 8121TIP3    H245855   2.044   6.419   4.789 -2.1542 -0.4502 -1.0965
 8122TIP3   OH245856   1.459   1.289  16.105  0.5977 -0.0020  0.4296
 8122TIP3    H145857   1.448   1.199  16.135  1.9761 -0.3057  0.1160
 8122TIP3    H245858   1.456   1.283  16.010  0.3820  0.3354  0.4146
 8123TIP3   OH245859   6.071   4.370   4.673  0.3694  0.0765  0.3594
 8123TIP3    H145860   6.037   4.317   4.745  0.2216 -2.3120 -1.3545
 8123TIP3    H245861   6.056   4.460   4.701 -0.9191 -0.7723  2.6989
 8124TIP3   OH245862   6.299   2.554  12.649  0.0159 -0.8279  0.1061
 8124TIP3    H145863   6.332   2.465  12.644  0.4158 -0.6030 -2.8802
 8124TIP3    H245864   6.204   2.544  12.653  0.0662 -1.4053 -0.0176
 8125TIP3   OH245865   3.662   3.990  16.915  0.0318  0.6674 -0.0638
 8125TIP3    H145866   3.693   3.903  16.940  0.1237  0.4665 -0.8726
 8125TIP3    H245867   3.722   4.018  16.846  0.6664  1.8258  0.9193
 8126TIP3   OH245868   4.777   3.609  16.641  0.4966  0.4291  0.2371
 8126TIP3    H145869   4.702   3.664  16.664  1.9730  3.0718 -0.8685
 8126TIP3    H245870   4.763   3.588  16.548  1.2196  1.1445 -0.0415
 8127TIP3   OH245871   1.236   5.351   3.959  0.3258  0.3912 -0.4220
 8127TIP3    H145872   1.294   5.281   3.988 -1.1793 -1.1742 -1.0549
 8127TIP3    H245873   1.216   5.401   4.039  2.1549  0.7244 -0.1267
 8128TIP3   OH245874   4.350   0.649   3.485  0.7689  0.4130  0.2366
 8128TIP3    H145875   4.309   0.706   3.419  1.1933 -0.2278 -0.5906
 8128TIP3    H245876   4.444   0.663   3.475  0.9669 -1.3268 -0.8498
 8129TIP3   OH245877   1.545   2.896  14.661  0.7418 -0.2482 -0.1921
 8129TIP3    H145878   1.578   2.832  14.598  0.4360 -0.8705  0.2764
 8129TIP3    H245879   1.452   2.903  14.642  1.0248  1.2186 -1.2557
 8130TIP3   OH245880   0.085   4.283   3.520  0.6176 -0.1191 -0.0138
 8130TIP3    H145881   0.093   4.190   3.498 -1.0372 -0.1965 -0.4069
 8130TIP3    H245882   0.077   4.284   3.616  1.5761 -0.2940  0.0744
 8131TIP3   OH245883   4.504   0.810   0.738 -0.4173  0.1768 -0.5612
 8131TIP3    H145884   4.501   0.899   0.774  1.5016  0.2478 -0.4434
 8131TIP3    H245885   4.597   0.788   0.738 -0.8824 -2.0356 -0.1442
 8132TIP3   OH245886   6.383   0.173  13.202 -0.1758  0.0028  0.0858
 8132TIP3    H145887   6.472   0.194  13.232 -0.0466  0.9054 -0.8691
 8132TIP3    H245888   6.383   0.195  13.109 -2.0229  2.2023  0.5057
 8133TIP3   OH245889   5.168   3.079  16.990 -0.1736 -0.4633  0.0669
 8133TIP3    H145890   5.236   3.013  16.999  0.2555 -0.0278  0.0347
 8133TIP3    H245891   5.090   3.030  16.962  0.2364 -0.8960 -0.3159
 8134TIP3   OH245892   2.053   4.161   2.255 -0.1567 -0.1816  0.5899
 8134TIP3    H145893   2.144   4.168   2.284 -0.3685  1.5300  0.9107
 8134TIP3    H245894   2.002   4.203   2.324 -1.1556 -0.6333  0.1521
 8135TIP3   OH245895   1.748   0.242   0.754  0.2264  0.0753 -0.1439
 8135TIP3    H145896   1.694   0.316   0.727 -0.3975 -0.5728 -0.6993
 8135TIP3    H245897   1.829   0.252   0.704 -0.0988  0.0353 -0.6767
 8136TIP3   OH245898   3.114   1.585   0.926  0.0983 -0.1934  0.1689
 8136TIP3    H145899   3.076   1.619   0.845  0.0808  2.2636  1.1020
 8136TIP3    H245900   3.208   1.584   0.910  0.0656 -0.1493 -0.0284
 8137TIP3   OH245901   3.858   1.657   6.254 -0.4722  0.5956 -0.7155
 8137TIP3    H145902   3.952   1.640   6.254 -0.5115  0.3803 -1.1240
 8137TIP3    H245903   3.837   1.673   6.346 -0.0881  0.3482 -0.5830
 8138TIP3   OH245904   4.348   4.174  13.157  0.2139 -0.3930 -0.0729
 8138TIP3    H145905   4.443   4.180  13.161  0.3547 -2.0912 -0.1986
 8138TIP3    H245906   4.330   4.125  13.076 -0.6553 -1.7212  0.8742
 8139TIP3   OH245907   0.814   3.315  16.641  0.3302  0.0803 -0.5068
 8139TIP3    H145908   0.834   3.283  16.729  2.8574  2.6622  0.0104
 8139TIP3    H245909   0.882   3.277  16.585  0.8970  1.2286 -0.6281
 8140TIP3   OH245910   3.822   4.380  16.292  0.2274 -0.5827 -0.4387
 8140TIP3    H145911   3.875   4.420  16.224 -1.4153  2.0588 -0.3056
 8140TIP3    H245912   3.851   4.422  16.373  0.1218 -1.4934  0.0878
 8141TIP3   OH245913   1.302   4.443   3.784 -0.2441  0.0149  0.4166
 8141TIP3    H145914   1.379   4.497   3.802  0.7549 -0.7934 -1.1445
 8141TIP3    H245915   1.325   4.357   3.820 -0.2390 -0.3238 -0.3676
 8142TIP3   OH245916   4.497   4.954   4.723 -0.4210  0.3264  0.3680
 8142TIP3    H145917   4.567   4.955   4.788 -0.3833 -0.3669  0.3447
 8142TIP3    H245918   4.444   5.030   4.744  0.4117  0.9370  0.3028
 8143TIP3   OH245919   1.307   6.073   0.552  0.1911  0.3442  0.3688
 8143TIP3    H145920   1.291   6.078   0.646 -1.2917  0.8838  0.1093
 8143TIP3    H245921   1.322   5.980   0.535  1.5953  0.3758  1.2802
 8144TIP3   OH245922   2.262   0.303  15.505  0.7821  0.2631  0.0010
 8144TIP3    H145923   2.276   0.383  15.556  0.1753 -0.8714  2.0509
 8144TIP3    H245924   2.289   0.327  15.416 -1.3621  3.3830  0.0055
 8145TIP3   OH245925   4.636   4.726   5.956  0.2238  0.2464  0.1354
 8145TIP3    H145926   4.638   4.636   5.926 -1.4009 -0.0936  0.9526
 8145TIP3    H245927   4.607   4.721   6.047 -1.5025  1.6709 -0.2783
 8146TIP3   OH245928   1.248   0.912  13.581 -0.1172  0.1530  0.0363
 8146TIP3    H145929   1.324   0.926  13.637 -0.4502  0.6745  0.3742
 8146TIP3    H245930   1.179   0.966  13.621 -0.1822  1.0513 -1.2326
 8147TIP3   OH245931   5.328   2.658  15.694  0.6824 -0.0882 -0.4725
 8147TIP3    H145932   5.294   2.679  15.607  0.3996 -2.2427 -0.9411
 8147TIP3    H245933   5.291   2.726  15.751 -2.7797 -1.0626 -1.3057
 8148TIP3   OH245934   3.927   0.337  13.847  0.0017  0.1564 -0.0912
 8148TIP3    H145935   3.879   0.322  13.929 -1.0473 -2.2739 -1.0462
 8148TIP3    H245936   3.910   0.258  13.795  0.9803  1.4397 -2.5000
 8149TIP3   OH245937   1.719   2.233  16.147 -0.0262  0.0877 -0.2087
 8149TIP3    H145938   1.643   2.260  16.199  0.1544  0.9558 -0.3725
 8149TIP3    H245939   1.794   2.261  16.199  0.1729  2.5143 -1.6147
 8150TIP3   OH245940   0.883   4.914   3.288  0.0977 -0.1306 -0.0215
 8150TIP3    H145941   0.818   4.977   3.259  1.1528  0.5364 -1.0386
 8150TIP3    H245942   0.964   4.965   3.297  1.1162 -1.3985 -1.3946
 8151TIP3   OH245943   6.386   1.896  11.942 -0.3769 -0.5859 -0.4444
 8151TIP3    H145944   6.314   1.905  11.880 -1.2087 -2.9643  0.0692
 8151TIP3    H245945   6.343   1.872  12.025  0.9889 -2.5570 -0.2459
 8152TIP3   OH245946   4.555   2.794  15.137  0.0297  0.1029 -0.0264
 8152TIP3    H145947   4.558   2.883  15.172  2.6252  0.5477 -1.1860
 8152TIP3    H245948   4.626   2.748  15.181  0.1047 -0.7566 -1.0165
 8153TIP3   OH245949   0.846   0.601  15.864  0.3894  0.3211 -0.0099
 8153TIP3    H145950   0.921   0.651  15.894  0.1911  1.4703 -1.3225
 8153TIP3    H245951   0.864   0.582  15.771  0.2408 -1.6726  0.3096
 8154TIP3   OH245952   1.935   6.208  14.409 -0.1655 -0.1869  0.6059
 8154TIP3    H145953   2.027   6.236  14.410 -0.0384 -0.6122  0.8539
 8154TIP3    H245954   1.887   6.286  14.436 -0.1208  0.8921 -2.0838
 8155TIP3   OH245955   6.344   1.589   6.118 -0.0732  0.2260 -0.1775
 8155TIP3    H145956   6.377   1.520   6.175 -1.3394  0.8230  1.3497
 8155TIP3    H245957   6.254   1.603   6.147 -0.1976  1.7445 -1.1958
 8156TIP3   OH245958   1.589   6.805  16.514  0.2954  0.1141  0.4050
 8156TIP3    H145959   1.649   6.838  16.446  2.1435 -0.6762  1.5781
 8156TIP3    H245960   1.533   6.880  16.534  0.0738  0.5327 -1.5621
 8157TIP3   OH245961   1.859   5.752  16.077 -0.0822  0.0708 -0.1185
 8157TIP3    H145962   1.926   5.762  16.009  1.2835  0.0809  1.1705
 8157TIP3    H245963   1.777   5.779  16.035  0.7493  0.2360 -1.6910
 8158TIP3   OH245964   2.791   0.932  14.886  0.0181 -0.0031  0.4176
 8158TIP3    H145965   2.825   0.871  14.951 -2.6119 -1.8064  0.2538
 8158TIP3    H245966   2.854   1.004  14.884  2.0864 -1.6650  2.2345
 8159TIP3   OH245967   3.934   5.538   1.207 -0.1518  0.6008 -0.0722
 8159TIP3    H145968   3.998   5.512   1.273  0.6085 -0.8695 -1.3350
 8159TIP3    H245969   3.850   5.510   1.243  0.0271  1.3792  1.0154
 8160TIP3   OH245970   0.123   0.597   2.621 -0.3215  0.2926  0.3564
 8160TIP3    H145971   0.142   0.594   2.527  1.5310  1.5052  0.6219
 8160TIP3    H245972   0.129   0.690   2.643 -2.4202  0.2340  1.4089
 8161TIP3   OH245973   5.383   3.955   0.938 -0.3759  0.3247 -0.4147
 8161TIP3    H145974   5.463   3.942   0.989  1.9554 -0.4511 -3.9744
 8161TIP3    H245975   5.325   3.884   0.967  0.7682 -0.0307  1.1705
 8162TIP3   OH245976   3.514   3.170  10.750  0.3429 -0.1644  0.3634
 8162TIP3    H145977   3.590   3.185  10.693  0.2938  1.2193  0.6336
 8162TIP3    H245978   3.521   3.238  10.817 -1.3495  0.2280  0.1713
 8163TIP3   OH245979   6.422   0.237  12.936  0.2720 -0.2696  0.0751
 8163TIP3    H145980   6.513   0.265  12.939 -0.1610  1.1543  0.5117
 8163TIP3    H245981   6.413   0.199  12.848  1.1819 -0.0536 -0.1295
 8164TIP3   OH245982   0.788   3.288   2.811 -0.0839 -0.1390  0.3013
 8164TIP3    H145983   0.717   3.352   2.803  0.2299  0.2149  0.3463
 8164TIP3    H245984   0.790   3.244   2.726  0.0186  0.2456  0.1012
 8165TIP3   OH245985   3.883   4.019   3.508 -0.1896  0.1391 -0.2851
 8165TIP3    H145986   3.952   4.082   3.531 -0.9605  0.6866  0.5657
 8165TIP3    H245987   3.930   3.948   3.465  0.6741  1.4686 -1.6603
 8166TIP3   OH245988   4.162   4.949  14.380 -0.0334 -0.4489 -0.0883
 8166TIP3    H145989   4.107   4.874  14.402 -0.8253  0.5128  1.3506
 8166TIP3    H245990   4.193   4.982  14.464  1.2743  0.1402 -0.7665
 8167TIP3   OH245991   3.219   2.893  13.394  0.1288 -0.2577  0.7664
 8167TIP3    H145992   3.168   2.891  13.475 -0.6708  0.9819  0.3175
 8167TIP3    H245993   3.257   2.981  13.392  0.3153 -0.3525 -0.1000
 8168TIP3   OH245994   4.858   2.600   5.686  0.0324  0.1967  0.4954
 8168TIP3    H145995   4.912   2.648   5.748  0.8207 -0.7519  0.5725
 8168TIP3    H245996   4.894   2.511   5.686 -1.1118 -0.2978  0.0530
 8169TIP3   OH245997   6.594   4.328  16.976 -0.7476  0.1037  0.0880
 8169TIP3    H145998   6.666   4.342  17.037 -1.1295  0.9026  0.3745
 8169TIP3    H245999   6.559   4.415  16.960 -1.5444 -0.2531 -0.1711
 8170TIP3   OH246000   6.058   3.729  15.492 -0.5740  0.2752  0.0270
 8170TIP3    H146001   6.001   3.775  15.554 -0.7552 -2.3676  2.0178
 8170TIP3    H246002   6.140   3.777  15.496 -1.4933  1.9390 -0.0167
 8171TIP3   OH246003   3.502   6.710  11.561 -0.5971  0.0869  0.6539
 8171TIP3    H146004   3.595   6.709  11.536 -1.1995  1.8098 -2.0106
 8171TIP3    H246005   3.496   6.644  11.630  2.4374 -0.6818  0.3535
 8172TIP3   OH246006   0.395   4.342   4.913  0.1053 -0.2572  0.5638
 8172TIP3    H146007   0.326   4.298   4.863  0.6257 -0.0090 -0.3905
 8172TIP3    H246008   0.472   4.338   4.857  0.6759  0.1344  1.3004
 8173TIP3   OH246009   4.991   4.367  16.750  0.5482 -0.3338  0.1665
 8173TIP3    H146010   4.978   4.457  16.779 -2.8409 -1.2214  1.9131
 8173TIP3    H246011   5.057   4.331  16.810 -0.1767  0.2217  1.3135
 8174TIP3   OH246012   6.469   5.721  13.022  0.3699  0.1522 -0.1916
 8174TIP3    H146013   6.386   5.768  13.013  1.3784  2.7788  2.6607
 8174TIP3    H246014   6.459   5.667  13.100  0.8540 -0.8035 -0.7615
 8175TIP3   OH246015   3.961   5.457  17.103  0.4637 -0.1606  0.4114
 8175TIP3    H146016   4.003   5.416  17.027  0.0408  0.8306 -0.3624
 8175TIP3    H246017   4.009   5.539  17.116  0.1442 -0.0387  0.8434
 8176TIP3   OH246018   5.644   5.877   4.904 -0.4447 -0.6414  0.3152
 8176TIP3    H146019   5.622   5.784   4.908 -0.8946 -0.4982  2.0931
 8176TIP3    H246020   5.721   5.882   4.847  0.2065 -2.2147  1.0280
 8177TIP3   OH246021   1.308   4.365  10.453  0.1119  0.1136  0.1462
 8177TIP3    H146022   1.362   4.356  10.532  1.8888 -1.2014 -1.1298
 8177TIP3    H246023   1.296   4.276  10.422  0.5125  0.6762 -1.7290
 8178TIP3   OH246024   4.810   0.666   3.142  0.0824  0.2066 -0.2273
 8178TIP3    H146025   4.719   0.697   3.136  0.0785 -0.0204 -3.0593
 8178TIP3    H246026   4.807   0.578   3.105  1.4394  0.1800 -0.3046
 8179TIP3   OH246027   5.739   0.271  15.193 -0.0355  0.3391  0.0055
 8179TIP3    H146028   5.676   0.343  15.195  0.3460  0.7025 -0.6429
 8179TIP3    H246029   5.791   0.284  15.273 -2.7121 -1.8144  2.3245
 8180TIP3   OH246030   3.877   1.727   2.672  0.8353 -0.3796 -0.4417
 8180TIP3    H146031   3.846   1.771   2.751  1.8177 -1.5957  0.6563
 8180TIP3    H246032   3.954   1.677   2.700  1.8453 -0.0093 -2.3998
 8181TIP3   OH246033   2.778   2.884  16.089 -0.1734 -0.7528 -0.2086
 8181TIP3    H146034   2.809   2.943  16.020 -1.1608 -0.5797 -0.5138
 8181TIP3    H246035   2.822   2.801  16.070 -0.2513 -0.6384 -0.9081
 8182TIP3   OH246036   0.647   1.803  13.937 -0.6066 -0.4256  0.1089
 8182TIP3    H146037   0.679   1.815  13.847 -3.3037 -2.9720 -1.3789
 8182TIP3    H246038   0.564   1.851  13.940 -0.4624 -0.2275  1.3271
 8183TIP3   OH246039   1.001   5.443   1.808  0.5589  0.6172  0.5770
 8183TIP3    H146040   0.949   5.414   1.733 -0.5254  0.0536  1.5245
 8183TIP3    H246041   1.059   5.369   1.827  1.7972  1.2602 -0.5039
 8184TIP3   OH246042   2.800   5.308  12.928  0.4942  0.0727  0.1168
 8184TIP3    H146043   2.845   5.255  12.862 -0.2326  1.1714 -1.3269
 8184TIP3    H246044   2.867   5.331  12.992  1.5962  0.2823 -1.0938
 8185TIP3   OH246045   3.422   3.572   2.688  0.2467 -0.2471  0.2457
 8185TIP3    H146046   3.411   3.634   2.616 -1.2870  0.9291  1.4072
 8185TIP3    H246047   3.428   3.487   2.646 -1.6951  0.2877 -1.2615
 8186TIP3   OH246048   0.498   1.266   3.006 -0.5117 -0.3504  0.3623
 8186TIP3    H146049   0.430   1.303   2.949 -1.6437 -1.9285  0.6113
 8186TIP3    H246050   0.578   1.269   2.954 -1.0689  0.2378 -0.4877
 8187TIP3   OH246051   1.032   5.003  13.494  0.3684 -0.0175 -0.6391
 8187TIP3    H146052   1.061   5.034  13.579 -0.7486 -0.3940 -0.0877
 8187TIP3    H246053   1.072   5.062  13.430  0.4644  0.8416  0.2093
 8188TIP3   OH246054   1.174   0.202   0.727  0.3755  0.0007 -0.4278
 8188TIP3    H146055   1.246   0.194   0.789  0.8157  0.4821 -0.8657
 8188TIP3    H246056   1.104   0.148   0.764 -0.0405  1.7083  1.4176
 8189TIP3   OH246057   5.699   2.475   5.249 -0.5987  0.1354 -0.0447
 8189TIP3    H146058   5.689   2.381   5.237  0.7965  0.0337 -0.4948
 8189TIP3    H246059   5.786   2.486   5.286 -0.5854  1.2780 -0.3797
 8190TIP3   OH246060   5.406   4.118   4.728 -0.6366 -0.0887  0.1646
 8190TIP3    H146061   5.378   4.120   4.637 -0.0388 -1.5427 -0.0783
 8190TIP3    H246062   5.500   4.132   4.725 -0.3814 -1.5709  0.4038
 8191TIP3   OH246063   2.262   1.187   2.847 -0.1271  0.1744 -0.2008
 8191TIP3    H146064   2.242   1.094   2.847 -0.2675  0.1966  0.6157
 8191TIP3    H246065   2.259   1.213   2.939 -0.3422  1.0404 -0.4352
 8192TIP3   OH246066   3.169   4.439  15.074 -0.0890  0.2277  0.2451
 8192TIP3    H146067   3.128   4.483  14.999  1.0664 -0.9239 -1.1087
 8192TIP3    H246068   3.233   4.502  15.107 -1.0121  0.9718  0.6838
 8193TIP3   OH246069   3.753   3.379   5.800 -0.4731  0.6175 -0.9328
 8193TIP3    H146070   3.689   3.308   5.797 -0.5180  0.6837 -1.5254
 8193TIP3    H246071   3.732   3.426   5.881 -0.2572 -0.2134 -0.3739
 8194TIP3   OH246072   0.608   2.053  14.940  0.4399  0.2291 -0.2964
 8194TIP3    H146073   0.533   2.112  14.944  0.2739  0.0895 -1.2774
 8194TIP3    H246074   0.684   2.111  14.938  0.2537  0.4550 -2.0154
 8195TIP3   OH246075   5.387   1.195  14.649 -0.1461  0.3128  0.4652
 8195TIP3    H146076   5.293   1.204  14.666 -0.1008  0.9435  0.3810
 8195TIP3    H246077   5.427   1.203  14.736 -0.0991  1.0479  0.3796
 8196TIP3   OH246078   2.672   0.457  15.577  0.2784  0.1333 -0.6299
 8196TIP3    H146079   2.640   0.416  15.657 -0.0264  0.9508 -0.3204
 8196TIP3    H246080   2.726   0.530  15.608  1.8837 -0.7946 -1.1545
 8197TIP3   OH246081   4.186   0.133   0.809 -0.3620  0.3127  0.1122
 8197TIP3    H146082   4.257   0.071   0.790 -0.1863  0.2195  1.0413
 8197TIP3    H246083   4.113   0.101   0.757 -0.0884 -0.3258  0.1064
 8198TIP3   OH246084   0.991   0.294  16.380 -0.3871  0.6667  0.2827
 8198TIP3    H146085   1.051   0.222  16.401 -2.5268 -0.6964  2.2765
 8198TIP3    H246086   1.010   0.316  16.289  2.1302 -0.6324  0.4221
 8199TIP3   OH246087   3.227   4.646  13.544  0.5470 -0.2569  0.0663
 8199TIP3    H146088   3.248   4.554  13.559 -0.4619 -0.1442  2.7629
 8199TIP3    H246089   3.135   4.654  13.568 -0.0334  1.0707 -2.2970
 8200TIP3   OH246090   1.907   0.005   3.178  0.9222  0.0319 -0.0467
 8200TIP3    H146091   1.935  -0.084   3.155  0.0813  0.0204 -1.0979
 8200TIP3    H246092   1.900   0.050   3.094 -2.0983  0.0393  0.0816
 8201TIP3   OH246093   0.810   3.179  11.000  0.1065 -0.2331  0.3377
 8201TIP3    H146094   0.785   3.122  11.073  0.1733 -0.6534  0.0338
 8201TIP3    H246095   0.885   3.228  11.034  2.1989 -2.6432 -0.4454
 8202TIP3   OH246096   3.071   4.531  12.234  0.5287  0.4035 -0.2573
 8202TIP3    H146097   3.001   4.596  12.230 -1.4149 -1.6088 -1.5636
 8202TIP3    H246098   3.032   4.457  12.281  2.8399  0.3017  1.6819
 8203TIP3   OH246099   6.047   5.952   2.669 -0.0942  0.0143 -0.0839
 8203TIP3    H146100   5.990   5.889   2.625 -1.0927 -0.5061  1.8481
 8203TIP3    H246101   6.000   6.035   2.663 -0.5547 -0.1961  0.5874
 8204TIP3   OH246102   0.855   2.339  14.615 -0.7420  0.1463 -0.0817
 8204TIP3    H146103   0.839   2.401  14.685 -2.8294 -1.2921  0.8034
 8204TIP3    H246104   0.782   2.352  14.554 -0.7560 -0.8454 -0.2962
 8205TIP3   OH246105   1.469   4.976  12.955  0.1705 -0.1620  0.1917
 8205TIP3    H146106   1.505   5.026  12.882  0.7194 -0.1690  0.4471
 8205TIP3    H246107   1.472   5.036  13.029  1.2163 -0.6721  0.5973
 8206TIP3   OH246108   4.520   0.472  17.175 -0.0018  0.2512 -0.6681
 8206TIP3    H146109   4.481   0.430  17.252  1.4211  0.3929  0.1645
 8206TIP3    H246110   4.466   0.550  17.161  0.9956  1.4525  1.5904
 8207TIP3   OH246111   5.894   4.275  16.823  0.3091 -0.4787 -0.7452
 8207TIP3    H146112   5.963   4.211  16.805  0.6990  0.0962 -1.3756
 8207TIP3    H246113   5.931   4.358  16.791 -0.9738 -0.2845 -1.7752
 8208TIP3   OH246114   1.656   4.977  14.863  0.4002 -0.0609  0.4934
 8208TIP3    H146115   1.601   5.038  14.912 -0.5808 -0.2308 -0.3825
 8208TIP3    H246116   1.727   4.956  14.924  0.2534  1.2213  1.1420
 8209TIP3   OH246117   0.719   0.486   1.061 -0.1426  0.0551  0.3129
 8209TIP3    H146118   0.779   0.437   1.004  0.3748  1.6733 -0.5800
 8209TIP3    H246119   0.632   0.468   1.026  0.1653  0.9804 -0.9753
 8210TIP3   OH246120   0.228   6.792   4.863 -0.3695 -0.0618  0.0688
 8210TIP3    H146121   0.277   6.728   4.810  0.1554 -0.7008  1.2858
 8210TIP3    H246122   0.292   6.858   4.886 -0.6484  0.3227 -0.2382
 8211TIP3   OH246123   5.498   0.645   0.269 -0.0974  0.0750  0.6209
 8211TIP3    H146124   5.497   0.696   0.350 -1.0500 -0.9385  1.2653
 8211TIP3    H246125   5.477   0.556   0.295 -0.3583 -0.2917 -0.7340
 8212TIP3   OH246126   4.080   5.381   3.594 -0.5754 -0.4752 -0.0357
 8212TIP3    H146127   4.070   5.469   3.558 -0.4351  0.3869  1.8914
 8212TIP3    H246128   3.995   5.339   3.580 -0.2776 -0.4904 -2.0365
 8213TIP3   OH246129   5.144   6.601   3.765  0.1035 -0.0337  0.5437
 8213TIP3    H146130   5.059   6.560   3.749  0.3685 -1.9301  3.3825
 8213TIP3    H246131   5.207   6.544   3.720  0.0013  1.1361 -1.1961
 8214TIP3   OH246132   1.847   6.128   6.453 -0.7673 -0.0063 -0.2686
 8214TIP3    H146133   1.870   6.205   6.402  0.9503  0.5389  1.2064
 8214TIP3    H246134   1.875   6.054   6.400 -2.8381  0.3003 -1.8968
 8215TIP3   OH246135   2.781   5.909  13.897 -0.4764 -0.2450 -0.3702
 8215TIP3    H146136   2.821   5.885  13.981 -0.7546 -0.5287 -0.3198
 8215TIP3    H246137   2.711   5.845  13.884 -1.0882  0.4182 -0.3340
 8216TIP3   OH246138   3.713   5.899   0.342  0.0874 -0.1544  0.8526
 8216TIP3    H146139   3.672   5.876   0.425 -1.6668  3.7735  1.2790
 8216TIP3    H246140   3.773   5.970   0.363 -2.2920  2.7918 -1.3661
 8217TIP3   OH246141   5.858   1.303  16.157 -0.2268  0.2790 -0.8296
 8217TIP3    H146142   5.861   1.217  16.115 -0.1539 -0.3822  0.4813
 8217TIP3    H246143   5.906   1.360  16.098 -0.6107 -0.4803 -1.9244
 8218TIP3   OH246144   5.508   2.234  12.582 -0.2187 -0.0671  0.2454
 8218TIP3    H146145   5.556   2.270  12.508 -1.7829  0.1293 -0.7115
 8218TIP3    H246146   5.548   2.148  12.597  0.9794  0.4335  0.0470
 8219TIP3   OH246147   2.726   2.110  13.233  0.1125  0.2550  0.1260
 8219TIP3    H146148   2.773   2.079  13.155 -0.8189  0.6382 -0.6121
 8219TIP3    H246149   2.775   2.074  13.307  0.6910 -0.5813 -0.6479
 8220TIP3   OH246150   4.124   0.785   3.320 -0.2263 -0.5758  0.2778
 8220TIP3    H146151   4.067   0.846   3.274 -0.7352 -0.6298  0.8338
 8220TIP3    H246152   4.159   0.729   3.250  0.1462  0.2532 -0.2171
 8221TIP3   OH246153   5.064   5.246   0.013 -0.2707  0.5863 -0.5246
 8221TIP3    H146154   5.141   5.193   0.033 -0.7870  0.1001  0.2232
 8221TIP3    H246155   5.062   5.313   0.081  0.9667  2.2839 -2.0457
 8222TIP3   OH246156   4.272   5.599   0.742 -0.2777  0.5701  0.7800
 8222TIP3    H146157   4.245   5.565   0.657 -0.5641  0.6486  0.8384
 8222TIP3    H246158   4.295   5.521   0.792 -0.5482  0.4880  0.7799
 8223TIP3   OH246159   5.441   2.298  13.103  0.6443  0.1534 -0.0691
 8223TIP3    H146160   5.396   2.301  13.018  1.1734  0.1980 -0.3495
 8223TIP3    H246161   5.505   2.369  13.098  3.0314 -1.9035 -0.9706
 8224TIP3   OH246162   4.838   2.166  11.182 -0.3185  0.0804 -0.7959
 8224TIP3    H146163   4.822   2.146  11.090  0.0313 -1.2814 -0.5905
 8224TIP3    H246164   4.811   2.086  11.228  2.5565 -0.5300 -0.0169
 8225TIP3   OH246165   3.686   4.780  16.360 -0.3282 -0.1566  0.1105
 8225TIP3    H146166   3.781   4.789  16.364 -0.2665 -0.4994 -0.4202
 8225TIP3    H246167   3.664   4.722  16.433 -0.4695  2.1839  2.0295
 8226TIP3   OH246168   5.240   1.229  13.205 -0.5868  0.2662 -0.9003
 8226TIP3    H146169   5.293   1.307  13.194  0.4907  0.0220  1.7291
 8226TIP3    H246170   5.280   1.164  13.147  0.9713  0.5957 -0.2590
 8227TIP3   OH246171   2.693   0.444  16.212 -0.3145  0.1776 -0.3872
 8227TIP3    H146172   2.734   0.387  16.278  0.2378  0.6371 -0.3218
 8227TIP3    H246173   2.604   0.410  16.203 -0.1636 -0.3562  0.0507
 8228TIP3   OH246174   0.894   5.936   3.554  0.6192 -0.4184 -0.0786
 8228TIP3    H146175   0.805   5.935   3.589  1.3217 -0.2794  1.8390
 8228TIP3    H246176   0.884   5.969   3.465 -1.3447 -1.2644 -0.2365
 8229TIP3   OH246177   6.295   6.034   3.987 -0.3191  0.3142 -0.1191
 8229TIP3    H146178   6.303   6.075   4.073 -1.9476  1.7498 -0.6094
 8229TIP3    H246179   6.326   5.944   4.001 -0.4665  0.5341  1.9396
 8230TIP3   OH246180   6.577   4.161  16.564  0.1103  0.7262 -0.7537
 8230TIP3    H146181   6.631   4.112  16.501  0.4052  0.3848 -0.2409
 8230TIP3    H246182   6.623   4.151  16.648 -2.2564 -2.1424  0.3681
 8231TIP3   OH246183   5.541   2.161  16.091 -0.1464  0.0172 -0.2748
 8231TIP3    H146184   5.480   2.095  16.059 -1.2119 -0.1186  1.8774
 8231TIP3    H246185   5.518   2.173  16.184  1.0567  2.2398 -0.1807
 8232TIP3   OH246186   2.735   5.185   4.874 -0.2929  0.0185 -0.1525
 8232TIP3    H146187   2.751   5.188   4.968 -1.1126 -1.3433  0.0449
 8232TIP3    H246188   2.654   5.136   4.864  0.8326 -1.6722 -1.6647
 8233TIP3   OH246189   1.130   4.633  12.371 -0.4037  0.2004  0.1448
 8233TIP3    H146190   1.196   4.680  12.421 -0.4081 -0.4009  0.7264
 8233TIP3    H246191   1.151   4.541  12.383 -0.9369  0.0199 -0.2349
 8234TIP3   OH246192   2.324   1.430  17.250  0.6090  0.2730 -0.6849
 8234TIP3    H146193   2.307   1.351  17.199 -1.5149  0.7240 -0.7764
 8234TIP3    H246194   2.322   1.400  17.341  0.3789  0.1179 -0.7381
 8235TIP3   OH246195   0.191   0.138  17.180 -0.0860  0.2327  0.2969
 8235TIP3    H146196   0.164   0.164  17.268  2.3766  2.9432  0.3902
 8235TIP3    H246197   0.127   0.181  17.122 -1.0246 -0.6011  0.6902
 8236TIP3   OH246198   1.982   3.191  14.115  0.8258 -0.1313  0.2375
 8236TIP3    H146199   1.943   3.217  14.199  0.0690  0.4361 -0.2748
 8236TIP3    H246200   2.040   3.118  14.137  0.0730 -0.4748  1.1516
 8237TIP3   OH246201   6.468   3.574  16.573  0.0717 -0.0900  0.0572
 8237TIP3    H146202   6.489   3.627  16.496  3.1668 -0.7608  0.2940
 8237TIP3    H246203   6.488   3.485  16.546 -2.9734 -0.9410  0.3598
 8238TIP3   OH246204   5.446   4.701   4.427 -0.0438  0.2935 -0.2991
 8238TIP3    H146205   5.510   4.652   4.376  0.5015  0.2277  0.4339
 8238TIP3    H246206   5.403   4.635   4.482  1.2977  0.7324  1.3208
 8239TIP3   OH246207   3.725   0.910  13.406 -0.6088 -0.2420  0.4019
 8239TIP3    H146208   3.798   0.911  13.468 -0.1412 -0.2060 -0.1394
 8239TIP3    H246209   3.677   0.991  13.424 -1.0467 -0.7003  1.3722
 8240TIP3   OH246210   3.888   4.153   0.588  0.0340 -0.1156 -0.5190
 8240TIP3    H146211   3.856   4.124   0.673  0.5004  1.4343  0.2302
 8240TIP3    H246212   3.879   4.249   0.590  0.7220  0.0118 -1.9332
 8241TIP3   OH246213   5.514   5.753  15.493 -0.1776  0.6991  0.3623
 8241TIP3    H146214   5.607   5.764  15.477  0.1612  1.3491  2.4093
 8241TIP3    H246215   5.471   5.805  15.426  0.9103  0.4111 -0.5889
 8242TIP3   OH246216   1.627   3.874  11.964 -0.5282  0.0650 -0.2469
 8242TIP3    H146217   1.647   3.806  12.029 -1.0986  0.9876  0.9376
 8242TIP3    H246218   1.703   3.874  11.906  0.1745 -0.5508  0.6370
 8243TIP3   OH246219   1.638   3.916  11.323  0.1961  1.2474  0.5890
 8243TIP3    H146220   1.556   3.965  11.334 -0.3003  0.2553  1.5463
 8243TIP3    H246221   1.658   3.883  11.410  0.6573 -0.0246  0.0263
 8244TIP3   OH246222   2.231   2.535  13.674 -0.4867 -0.3603 -0.4469
 8244TIP3    H146223   2.242   2.568  13.763 -2.9652  0.6003 -0.4275
 8244TIP3    H246224   2.308   2.479  13.659  0.8701  0.8453  1.6212
 8245TIP3   OH246225   4.017   6.378  15.245 -0.6978  0.2054 -0.2153
 8245TIP3    H146226   3.997   6.441  15.176 -3.2184  1.6264  1.6209
 8245TIP3    H246227   3.936   6.373  15.296  0.7651 -1.4200  2.1255
 8246TIP3   OH246228   5.220   6.307   4.958  0.1802 -0.1331  0.2802
 8246TIP3    H146229   5.182   6.303   5.046  0.9180 -1.4903  0.5654
 8246TIP3    H246230   5.277   6.230   4.953  0.2738  0.0056 -1.3359
 8247TIP3   OH246231   2.065   3.665  14.201  0.3406 -0.5697 -0.6530
 8247TIP3    H146232   2.040   3.591  14.257 -0.4787  0.1615 -0.0257
 8247TIP3    H246233   2.002   3.663  14.129 -0.7486  0.4941  0.2411
 8248TIP3   OH246234   1.684   4.928   0.571 -0.5393 -0.1123 -0.0013
 8248TIP3    H146235   1.677   5.006   0.516  1.2883 -0.3644 -0.6770
 8248TIP3    H246236   1.603   4.879   0.555 -0.7089  0.5594 -1.2992
 8249TIP3   OH246237   3.920   1.646  12.614  0.2680  0.4283 -0.0334
 8249TIP3    H146238   3.874   1.650  12.699  0.1487  2.0400 -0.1358
 8249TIP3    H246239   4.011   1.665  12.636  0.4495 -0.3130 -0.1337
 8250TIP3   OH246240   4.515   2.597   0.132 -0.1450 -0.0627 -0.3116
 8250TIP3    H146241   4.576   2.595   0.206 -0.3751  0.5709 -0.0988
 8250TIP3    H246242   4.484   2.687   0.129 -1.7908 -0.5738  0.1661
 8251TIP3   OH246243   5.503   4.209   6.198 -0.2130 -0.0062 -0.4583
 8251TIP3    H146244   5.583   4.261   6.191  1.0673 -1.6675  1.0307
 8251TIP3    H246245   5.479   4.214   6.291 -1.7756  0.3199 -0.8424
 8252TIP3   OH246246   1.622   0.082   0.209  0.3291 -0.0786 -0.1871
 8252TIP3    H146247   1.684   0.103   0.279 -0.6099  2.2806  0.0033
 8252TIP3    H246248   1.671   0.098   0.128  1.1198 -1.9205 -0.1281
 8253TIP3   OH246249   4.834   1.949  11.961 -0.1094 -0.2670 -0.6918
 8253TIP3    H146250   4.823   2.022  11.901 -0.3416 -0.9548 -1.5059
 8253TIP3    H246251   4.852   1.990  12.046 -0.5254  0.7299 -1.0714
 8254TIP3   OH246252   4.076   2.924   3.054 -0.3508 -0.2714 -0.5185
 8254TIP3    H146253   4.154   2.869   3.049  0.0526  0.2469  0.0080
 8254TIP3    H246254   4.107   3.012   3.031 -0.7593 -0.0435 -0.2120
 8255TIP3   OH246255   4.330   5.424   3.428 -0.6752  0.6519 -0.3562
 8255TIP3    H146256   4.261   5.380   3.478 -1.1497  1.6176 -0.1331
 8255TIP3    H246257   4.381   5.471   3.494 -0.4308  0.7725 -0.6267
 8256TIP3   OH246258   4.317   4.120  16.122 -0.3489  0.1197 -0.1600
 8256TIP3    H146259   4.397   4.101  16.073 -1.4255 -1.2431 -1.5315
 8256TIP3    H246260   4.263   4.042  16.109 -1.4615  0.5332  1.6700
 8257TIP3   OH246261   1.563   6.246   2.592 -0.1406  0.6416 -0.4847
 8257TIP3    H146262   1.576   6.292   2.509 -0.7990  2.3677  0.3199
 8257TIP3    H246263   1.481   6.282   2.627  1.4555  2.0559  2.1833
 8258TIP3   OH246264   5.021   1.039  13.146 -0.3809 -0.1049  0.4475
 8258TIP3    H146265   5.078   0.975  13.104 -0.0785  0.5500 -0.1713
 8258TIP3    H246266   5.070   1.067  13.224 -0.3400 -0.3348  0.5059
 8259TIP3   OH246267   6.699   1.349  16.605 -0.2228  0.4314 -0.3162
 8259TIP3    H146268   6.660   1.340  16.692 -2.9590  0.0249 -1.4859
 8259TIP3    H246269   6.738   1.263  16.587 -1.4777 -0.1588 -0.2967
 8260TIP3   OH246270   2.084   5.726  12.988  0.2811  0.3072  0.0075
 8260TIP3    H146271   1.992   5.699  12.988 -0.2836  2.0658 -0.9986
 8260TIP3    H246272   2.086   5.801  13.047  0.9143  0.7294 -0.5445
 8261TIP3   OH246273   3.933   6.605  16.637  0.3848  0.3692  0.1370
 8261TIP3    H146274   3.913   6.551  16.713  0.6371  0.2253  0.1025
 8261TIP3    H246275   3.987   6.677  16.672 -0.7634  1.1481  0.3495
 8262TIP3   OH246276   0.262   0.063   4.323  0.0271 -0.1129 -0.6551
 8262TIP3    H146277   0.298   0.074   4.411 -2.0881  1.5833  0.1055
 8262TIP3    H246278   0.336   0.081   4.265  1.6283 -1.8403  0.6978
 8263TIP3   OH246279   1.892   4.133   3.311 -0.2747  0.0926  0.6320
 8263TIP3    H146280   1.935   4.217   3.326  2.6690 -0.2109 -3.9959
 8263TIP3    H246281   1.964   4.071   3.297 -2.3120 -2.2347 -0.2576
 8264TIP3   OH246282   0.283   5.293   1.920 -0.1492  0.4979  0.3349
 8264TIP3    H146283   0.268   5.387   1.933 -0.4765  0.6262 -0.8412
 8264TIP3    H246284   0.371   5.278   1.954  0.8194  1.6970 -1.4400
 8265TIP3   OH246285   5.077   1.339   3.906  0.5931 -0.3054  0.3900
 8265TIP3    H146286   5.073   1.290   3.988 -0.5828  0.2641  0.7068
 8265TIP3    H246287   4.985   1.349   3.880  0.9423 -0.4526 -0.9902
 8266TIP3   OH246288   0.889   2.175  15.395  0.7565 -0.1136  0.2354
 8266TIP3    H146289   0.955   2.211  15.454  1.2238 -1.4994  0.6014
 8266TIP3    H246290   0.895   2.228  15.315  1.9852  0.0708  0.4449
 8267TIP3   OH246291   1.152   2.072  11.603  0.4322  0.5599  0.6533
 8267TIP3    H146292   1.194   1.998  11.560  0.4440  1.5224 -1.0509
 8267TIP3    H246293   1.058   2.055  11.592  0.4426  1.1808 -0.4251
 8268TIP3   OH246294   1.533   4.595   4.953  0.7355  0.0055  0.1325
 8268TIP3    H146295   1.627   4.613   4.949  0.4677  1.7418  0.8817
 8268TIP3    H246296   1.503   4.641   5.032 -0.8135 -0.2382 -0.2792
 8269TIP3   OH246297   4.740   4.320  17.007  0.3574  0.3453 -0.3813
 8269TIP3    H146298   4.827   4.360  17.001  0.9963 -0.5635  1.9467
 8269TIP3    H246299   4.748   4.255  17.077 -2.7156  1.6459  1.3559
 8270TIP3   OH246300   6.699   6.552  15.287  0.1291 -0.0364 -0.2317
 8270TIP3    H146301   6.614   6.594  15.306  0.6877  0.4613  1.2968
 8270TIP3    H246302   6.755   6.624  15.259 -0.2363 -0.5362 -2.4338
 8271TIP3   OH246303   0.567   3.034  13.946  0.0476 -0.2109 -0.1523
 8271TIP3    H146304   0.602   3.077  14.024 -1.7801 -0.7596  1.0270
 8271TIP3    H246305   0.476   3.062  13.941 -0.2074 -1.1733 -1.3798
 8272TIP3   OH246306   3.744   2.739  14.132 -0.0992 -0.3032 -0.3852
 8272TIP3    H146307   3.781   2.720  14.218 -0.2186  0.4578 -0.1531
 8272TIP3    H246308   3.650   2.729  14.143 -0.3671  2.2020  0.2800
 8273TIP3   OH246309   2.956   0.922  11.152 -0.6694  0.2275 -0.1210
 8273TIP3    H146310   3.005   0.841  11.168 -0.9794 -0.0650 -0.6162
 8273TIP3    H246311   2.949   0.927  11.057 -1.0957  0.5737 -0.0730
 8274TIP3   OH246312   6.741   3.165   2.007  0.3043  0.3900  0.0831
 8274TIP3    H146313   6.671   3.142   2.068  0.1228 -0.8760 -0.5699
 8274TIP3    H246314   6.696   3.203   1.931  0.5123  1.7413  0.6151
 8275TIP3   OH246315   1.709   2.905  15.687  0.7506 -0.8238  0.1474
 8275TIP3    H146316   1.701   2.981  15.744  0.9208 -0.8277  0.1775
 8275TIP3    H246317   1.656   2.837  15.730  1.0792 -0.9015  0.4326
 8276TIP3   OH246318   0.608   2.254   6.385 -0.1930  0.2333  0.2551
 8276TIP3    H146319   0.553   2.295   6.318  0.3502  0.0417 -0.3227
 8276TIP3    H246320   0.691   2.303   6.380 -0.3068  0.5373  1.1290
 8277TIP3   OH246321   5.263   3.612   4.980 -0.6570  0.7271  0.2311
 8277TIP3    H146322   5.254   3.696   4.934  0.8654  0.5110 -0.5138
 8277TIP3    H246323   5.353   3.611   5.011 -0.3583 -1.0288 -0.5808
 8278TIP3   OH246324   1.561   5.491  12.021  0.3655 -0.3032  0.0577
 8278TIP3    H146325   1.595   5.414  11.978 -2.3482 -0.9535 -1.1172
 8278TIP3    H246326   1.535   5.550  11.950  0.7770  0.9788  0.9132
 8279TIP3   OH246327   4.627   1.936  15.371  0.2927  0.1732  0.6042
 8279TIP3    H146328   4.621   1.982  15.287  3.5004  1.2082  0.8037
 8279TIP3    H246329   4.590   1.998  15.435  1.3672  1.0413  0.4113
 8280TIP3   OH246330   6.786   4.403  15.156 -0.0834 -0.2428  0.6359
 8280TIP3    H146331   6.857   4.466  15.167 -1.4627  2.0028 -1.9723
 8280TIP3    H246332   6.770   4.369  15.244  1.3592  2.3881  2.0469
 8281TIP3   OH246333   4.949   3.295   1.581  0.2009 -0.0921  1.0908
 8281TIP3    H146334   5.030   3.244   1.585  0.6902  0.7298  2.7835
 8281TIP3    H246335   4.943   3.324   1.490  1.0215 -1.3909  0.6028
 8282TIP3   OH246336   3.521   4.338   3.468 -0.0565  0.1969  0.1371
 8282TIP3    H146337   3.600   4.289   3.446 -0.1116  0.1326  0.0825
 8282TIP3    H246338   3.501   4.311   3.558  0.3470  0.6977  0.3811
 8283TIP3   OH246339   2.842   0.228   3.942  0.5155  0.3663 -0.1109
 8283TIP3    H146340   2.850   0.300   3.879  1.9447 -0.7876 -1.3178
 8283TIP3    H246341   2.782   0.166   3.900 -0.8592  0.8666  1.0052
 8284TIP3   OH246342   0.207   6.636   6.351 -0.3079 -0.5200 -0.7806
 8284TIP3    H146343   0.211   6.623   6.445  1.5646 -2.4483 -1.0329
 8284TIP3    H246344   0.299   6.643   6.324 -0.7728 -0.4261 -2.4968
 8285TIP3   OH246345   3.370   5.396  16.988 -0.8065 -0.0749  0.1290
 8285TIP3    H146346   3.343   5.382  16.897 -1.9295 -0.9315  0.5752
 8285TIP3    H246347   3.340   5.318  17.034  1.9201 -0.8331  0.7998
 8286TIP3   OH246348   4.828   0.420   5.010 -0.0903  0.2651  0.2415
 8286TIP3    H146349   4.876   0.345   5.046  0.3449  1.2314  1.7670
 8286TIP3    H246350   4.741   0.386   4.992  0.6982 -1.1624 -1.2384
 8287TIP3   OH246351   0.624   6.758  14.311  0.4421 -0.2289 -0.0719
 8287TIP3    H146352   0.691   6.695  14.339  0.5890 -0.2152 -0.3897
 8287TIP3    H246353   0.571   6.710  14.247  0.5413 -0.0392 -0.2995
 8288TIP3   OH246354   5.086   4.393   2.675 -0.2200  0.1274  0.2722
 8288TIP3    H146355   5.157   4.427   2.729 -0.7444  1.4891  0.1489
 8288TIP3    H246356   5.074   4.303   2.705 -0.4389  0.7973  2.3789
 8289TIP3   OH246357   5.715   0.453   1.626 -0.1573 -0.1682  0.5382
 8289TIP3    H146358   5.808   0.431   1.626  0.1795  0.8332 -2.1940
 8289TIP3    H246359   5.684   0.427   1.713  3.0108  1.0018  2.1940
 8290TIP3   OH246360   5.132   2.906  14.695  0.4481 -0.0049 -0.6410
 8290TIP3    H146361   5.081   2.891  14.615 -0.3038  0.6956 -0.3057
 8290TIP3    H246362   5.203   2.842  14.690 -0.3028 -0.8162 -1.2534
 8291TIP3   OH246363   3.493   1.217  11.972 -0.0573 -0.0210 -0.6323
 8291TIP3    H146364   3.432   1.212  12.045 -1.1544 -0.3291 -1.5452
 8291TIP3    H246365   3.506   1.126  11.944  0.0423  0.1244 -1.0734
 8292TIP3   OH246366   2.905   1.078  15.119  0.3143  0.4728  0.0889
 8292TIP3    H146367   2.846   1.129  15.175 -0.3106  0.9494 -0.9659
 8292TIP3    H246368   2.869   0.989  15.121 -0.2538  0.6834 -0.2601
 8293TIP3   OH246369   5.355   2.367   2.067 -0.3506 -0.7824 -0.3218
 8293TIP3    H146370   5.264   2.378   2.038  0.0861  0.8663 -1.2070
 8293TIP3    H246371   5.405   2.426   2.010  1.2494 -1.5220  0.2816
 8294TIP3   OH246372   1.459   4.726  16.616  0.0905  0.0947  0.2048
 8294TIP3    H146373   1.391   4.729  16.684  1.4641 -1.2408  1.7230
 8294TIP3    H246374   1.501   4.641  16.628  1.0337  0.2410 -1.7236
 8295TIP3   OH246375   4.610   5.794  17.268  0.4886  0.3076 -0.4680
 8295TIP3    H146376   4.601   5.704  17.235  2.7179  0.5472 -1.9297
 8295TIP3    H246377   4.681   5.790  17.331 -1.2198  0.6043  1.5712
 8296TIP3   OH246378   4.154   0.190  17.044 -0.0177  0.6366  0.6499
 8296TIP3    H146379   4.123   0.113  16.996 -0.0189  0.0944  1.5022
 8296TIP3    H246380   4.235   0.215  17.001 -1.4682  1.9715 -1.5114
 8297TIP3   OH246381   1.894   4.913   1.928 -0.4034 -0.1369 -0.2668
 8297TIP3    H146382   1.855   4.985   1.978  1.6498  0.6018  0.3683
 8297TIP3    H246383   1.830   4.893   1.860 -1.5788  1.4409  0.3269
 8298TIP3   OH246384   2.896   0.103   0.342  0.6354  0.4013  0.3083
 8298TIP3    H146385   2.938   0.083   0.259  0.9968  0.1230  0.5535
 8298TIP3    H246386   2.966   0.097   0.407  0.2734  0.1939  0.6882
 8299TIP3   OH246387   0.894   4.321   3.266 -0.0541  0.4632  0.2973
 8299TIP3    H146388   0.892   4.347   3.358  1.0809  1.6123  0.0071
 8299TIP3    H246389   0.978   4.352   3.233 -0.1779 -0.4711 -0.9883
 8300TIP3   OH246390   4.444   3.991   4.154  0.3923 -0.3020  0.0009
 8300TIP3    H146391   4.352   3.994   4.127  0.4716  0.6867 -0.2098
 8300TIP3    H246392   4.461   3.899   4.171 -0.7839 -0.4507  0.5245
 8301TIP3   OH246393   0.973   4.667   3.205  0.7377  0.2689  0.0455
 8301TIP3    H146394   0.914   4.742   3.215  1.3371  0.8210 -0.4732
 8301TIP3    H246395   0.975   4.626   3.291 -1.1330 -0.3259 -0.1447
 8302TIP3   OH246396   1.972   6.466  13.323 -0.6540  0.2972 -0.3891
 8302TIP3    H146397   1.877   6.452  13.318 -0.5216 -0.7170 -0.3493
 8302TIP3    H246398   2.007   6.411  13.254 -0.0974  0.7948 -0.5068
 8303TIP3   OH246399   4.220   5.305  14.046  0.1994 -0.0460 -0.4904
 8303TIP3    H146400   4.197   5.273  14.133 -1.9750  0.0224 -0.9923
 8303TIP3    H246401   4.316   5.312  14.047  0.3052 -1.2827  1.4432
 8304TIP3   OH246402   1.992   0.228   3.807 -0.3512  0.2413  0.2491
 8304TIP3    H146403   2.047   0.259   3.736 -0.3210  1.6208  0.8372
 8304TIP3    H246404   2.005   0.133   3.809  1.0276  0.3996 -0.4260
 8305TIP3   OH246405   2.126   6.687   5.099  0.4784  0.0989 -0.3939
 8305TIP3    H146406   2.060   6.755   5.106  1.1932  0.7574  0.1377
 8305TIP3    H246407   2.194   6.712   5.162  0.7501 -1.1166 -0.1646
 8306TIP3   OH246408   1.123   3.801   2.812 -0.3792  0.1975  0.4811
 8306TIP3    H146409   1.174   3.724   2.838 -1.5986 -0.0606  2.2878
 8306TIP3    H246410   1.186   3.873   2.814  0.1177 -0.2475  1.9044
 8307TIP3   OH246411   6.124   6.498   2.001 -0.0215  0.5729 -0.3434
 8307TIP3    H146412   6.149   6.468   2.089  1.6894  1.8037 -0.3643
 8307TIP3    H246413   6.099   6.418   1.955  3.0321 -0.7463  0.0267
 8308TIP3   OH246414   5.290   1.152   4.706 -0.2697  0.2540 -0.1516
 8308TIP3    H146415   5.346   1.102   4.647 -0.0118  0.3832 -0.0200
 8308TIP3    H246416   5.348   1.178   4.778 -0.8459 -0.9309  0.7749
 8309TIP3   OH246417   2.286   1.077  12.891  0.4624 -0.3048  0.1023
 8309TIP3    H146418   2.381   1.092  12.895  0.2231  1.1718  1.7718
 8309TIP3    H246419   2.248   1.164  12.906 -1.1412 -1.2582  2.0862
 8310TIP3   OH246420   1.725   1.674   4.548  0.3439 -0.2171 -0.3976
 8310TIP3    H146421   1.819   1.655   4.543 -0.0459 -2.1101 -1.1856
 8310TIP3    H246422   1.710   1.736   4.476  1.5404  3.0725  1.9106
 8311TIP3   OH246423   0.448   5.518   2.006 -0.7025  0.3775 -0.1375
 8311TIP3    H146424   0.484   5.537   2.093 -1.5252  1.4135 -0.0032
 8311TIP3    H246425   0.519   5.472   1.961 -0.0901  0.2463  0.9207
 8312TIP3   OH246426   5.163   3.781  13.812  0.3826  0.3119 -0.7255
 8312TIP3    H146427   5.194   3.835  13.739  2.3146 -0.7155 -0.7577
 8312TIP3    H246428   5.153   3.842  13.885  2.5433  0.7848 -0.7457
 8313TIP3   OH246429   0.383   6.456  12.152  0.3413 -0.1749 -0.3598
 8313TIP3    H146430   0.351   6.468  12.062  0.5844 -1.2292 -0.6011
 8313TIP3    H246431   0.468   6.499  12.153 -1.3047  3.4511  0.5320
 8314TIP3   OH246432   3.929   1.260  14.762 -0.7447 -0.4370 -0.5169
 8314TIP3    H146433   3.905   1.305  14.843  3.2215  0.3607  0.4538
 8314TIP3    H246434   4.005   1.309  14.729 -1.3996 -1.5385 -4.0538
 8315TIP3   OH246435   1.536   1.758   4.968 -0.5652  0.2846 -0.0486
 8315TIP3    H146436   1.533   1.716   5.054 -0.0067 -0.6182 -0.4464
 8315TIP3    H246437   1.525   1.685   4.906 -3.0166  1.1326 -0.7421
 8316TIP3   OH246438   2.502   6.268  14.874 -0.2166 -0.3512  0.2998
 8316TIP3    H146439   2.534   6.179  14.864 -2.5243 -1.3034  0.7282
 8316TIP3    H246440   2.561   6.321  14.821  0.3324 -2.3317 -1.1695
 8317TIP3   OH246441   2.173   3.284   5.938 -0.5855 -0.4251  0.1721
 8317TIP3    H146442   2.082   3.314   5.933 -1.0980 -1.6505  1.3044
 8317TIP3    H246443   2.167   3.200   5.983  1.2294  0.0599  1.4146
 8318TIP3   OH246444   1.530   6.189  11.788  0.3335 -0.2062 -0.3606
 8318TIP3    H146445   1.524   6.099  11.755  1.1849 -0.6953  0.7438
 8318TIP3    H246446   1.485   6.186  11.872 -1.2672  0.8695 -1.1270
 8319TIP3   OH246447   2.337   3.244  12.810  0.9688 -0.4119 -0.0244
 8319TIP3    H146448   2.364   3.171  12.754  0.8934  0.8063 -1.6944
 8319TIP3    H246449   2.368   3.322  12.765  0.0108  0.6831  1.1425
 8320TIP3   OH246450   3.786   2.332   6.535  0.3484  0.4980  0.1569
 8320TIP3    H146451   3.881   2.337   6.535  0.6356 -2.2230 -2.3078
 8320TIP3    H246452   3.762   2.324   6.442 -2.1040 -0.5926  0.7805
 8321TIP3   OH246453   5.565   1.423   0.699 -0.0460 -0.4415  0.5909
 8321TIP3    H146454   5.537   1.337   0.667  0.6960 -1.0462  1.5258
 8321TIP3    H246455   5.549   1.420   0.793  2.0407 -0.4145  0.9996
 8322TIP3   OH246456   0.059   6.688  17.230 -0.3243 -0.5646 -0.1516
 8322TIP3    H146457  -0.003   6.705  17.302  0.4511  0.8540  0.2167
 8322TIP3    H246458   0.114   6.766  17.227  1.4439 -1.7706 -0.4845
 8323TIP3   OH246459   6.557   2.059  15.767  0.3971  0.2081 -0.2702
 8323TIP3    H146460   6.599   1.982  15.728 -0.1818  0.2815 -1.0649
 8323TIP3    H246461   6.520   2.028  15.849  1.6106  0.0402  0.2253
 8324TIP3   OH246462   0.380   2.847  12.556  0.7203 -0.0565  0.0762
 8324TIP3    H146463   0.344   2.800  12.481  1.1182  0.2677 -0.3241
 8324TIP3    H246464   0.304   2.893  12.594  0.6146  0.2297 -0.4676
 8325TIP3   OH246465   5.873   3.722  11.764 -0.2290  0.0408 -0.1815
 8325TIP3    H146466   5.965   3.697  11.773 -0.3438 -0.2969  0.0993
 8325TIP3    H246467   5.875   3.810  11.728  0.2704  1.4851  3.0609
 8326TIP3   OH246468   3.685   1.405  12.009 -0.0394 -0.6130 -0.0086
 8326TIP3    H146469   3.722   1.373  12.091  0.5707  0.7813  0.2902
 8326TIP3    H246470   3.612   1.346  11.991  1.0355 -2.1604  0.4820
 8327TIP3   OH246471   1.412   5.221  13.716  0.8673 -0.2081 -0.1733
 8327TIP3    H146472   1.413   5.144  13.660 -0.9554 -1.3515  1.2336
 8327TIP3    H246473   1.352   5.282  13.672 -0.1645 -0.9001  0.2382
 8328TIP3   OH246474   4.007   5.891   0.888 -0.1080  0.3227 -0.2345
 8328TIP3    H146475   4.026   5.797   0.889  0.1787  0.2574 -2.9323
 8328TIP3    H246476   4.021   5.920   0.978  2.5166 -1.7158  0.1478
 8329TIP3   OH246477   1.289   4.233  13.440 -0.2406 -0.4876 -0.5003
 8329TIP3    H146478   1.282   4.170  13.511  2.1908 -1.0121 -0.6699
 8329TIP3    H246479   1.314   4.181  13.363  0.5335  0.5156 -0.9447
 8330TIP3   OH246480   1.673   5.597  15.584  0.5165 -0.5805 -0.1810
 8330TIP3    H146481   1.615   5.633  15.517  2.6782  0.7334 -1.4354
 8330TIP3    H246482   1.735   5.667  15.604  3.6122 -2.8165 -1.1719
 8331TIP3   OH246483   5.942   1.974   0.676  0.8750  0.4731 -0.7773
 8331TIP3    H146484   5.915   2.014   0.594  1.3289  0.9934 -0.6784
 8331TIP3    H246485   5.956   1.882   0.655 -0.2330  0.3444 -0.9951
 8332TIP3   OH246486   6.651   1.290  12.977 -0.2017 -0.5047  0.2446
 8332TIP3    H146487   6.684   1.297  12.887 -1.5493  0.3787 -0.2184
 8332TIP3    H246488   6.556   1.302  12.968 -0.1938  1.4215  1.9677
 8333TIP3   OH246489   0.404   2.187   5.756  0.6252 -0.3520 -0.3210
 8333TIP3    H146490   0.460   2.207   5.830 -1.0595 -0.2481  1.0005
 8333TIP3    H246491   0.377   2.273   5.722 -2.2092 -0.2261  1.8862
 8334TIP3   OH246492   2.753   0.420   4.311  0.2826 -0.2631  0.2221
 8334TIP3    H146493   2.812   0.446   4.240 -1.3970  0.8490 -0.8604
 8334TIP3    H246494   2.720   0.503   4.346  0.8890 -0.8070  2.1782
 8335TIP3   OH246495   3.313   3.769  14.891 -0.3949 -0.2836 -0.2850
 8335TIP3    H146496   3.241   3.764  14.828 -2.1397  3.4093  1.1196
 8335TIP3    H246497   3.272   3.749  14.976  1.1176 -1.6670  0.1826
 8336TIP3   OH246498   5.078   2.810  14.050  0.1462  0.2823  0.2758
 8336TIP3    H146499   4.993   2.851  14.068 -0.7334 -2.1958  2.3932
 8336TIP3    H246500   5.078   2.795  13.955 -1.7709  0.4410  0.2186
 8337TIP3   OH246501   6.200   5.259   4.380 -0.1565  0.3196 -0.2202
 8337TIP3    H146502   6.111   5.224   4.389 -0.1322  0.3529  0.1646
 8337TIP3    H246503   6.212   5.314   4.457  0.4989 -0.3457  0.1612
 8338TIP3   OH246504   1.090   2.898   1.246 -0.2644 -0.3813 -0.1773
 8338TIP3    H146505   1.170   2.877   1.198 -0.1577  1.0651 -0.7028
 8338TIP3    H246506   1.052   2.814   1.269  1.2098 -1.0863 -0.2648
 8339TIP3   OH246507   1.688   0.285  11.101  0.0495 -0.3044 -0.8309
 8339TIP3    H146508   1.711   0.241  11.183 -1.2924 -0.5881 -0.5761
 8339TIP3    H246509   1.617   0.232  11.065  0.7960 -0.3367 -2.3287
 8340TIP3   OH246510   3.188   2.380   5.440  0.2698  0.0436 -0.1038
 8340TIP3    H146511   3.190   2.469   5.405 -0.4628 -0.2645 -0.9682
 8340TIP3    H246512   3.108   2.378   5.494  0.5233  0.0325  0.2779
 8341TIP3   OH246513   4.841   6.579   6.467 -0.8138  0.1605 -0.5929
 8341TIP3    H146514   4.856   6.671   6.490  1.7518 -0.5405  0.9443
 8341TIP3    H246515   4.747   6.567   6.479 -1.0014  2.2361  0.5972
 8342TIP3   OH246516   5.435   3.525   2.578  0.1653  0.3336  0.8744
 8342TIP3    H146517   5.517   3.481   2.601 -0.2206 -0.6285  0.4820
 8342TIP3    H246518   5.383   3.524   2.658  0.4299  0.7228  1.0560
 8343TIP3   OH246519   3.614   1.927  16.677  0.0220  0.1217  0.0254
 8343TIP3    H146520   3.595   1.909  16.585 -0.1210  0.4676 -0.0128
 8343TIP3    H246521   3.546   1.988  16.704  0.1245  0.1019  0.3352
 8344TIP3   OH246522   1.017   5.879  11.828 -0.2515  0.1025 -0.6043
 8344TIP3    H146523   1.013   5.804  11.887  1.3378 -0.6780 -1.4291
 8344TIP3    H246524   0.964   5.854  11.753  1.0073 -0.6268 -1.2893
 8345TIP3   OH246525   5.724   0.752   1.108 -0.7539  0.3152 -0.0561
 8345TIP3    H146526   5.645   0.779   1.154  0.7557  0.3647  2.6598
 8345TIP3    H246527   5.737   0.661   1.135  0.3231  0.4306 -0.1426
 8346TIP3   OH246528   4.281   6.696   3.418 -0.0833 -0.5621  0.4944
 8346TIP3    H146529   4.318   6.784   3.428  0.7109 -0.5397 -2.0276
 8346TIP3    H246530   4.339   6.640   3.470 -0.4846  0.3282  1.9656
 8347TIP3   OH246531   4.906   2.500   6.516  0.2068 -0.1675 -0.1014
 8347TIP3    H146532   4.837   2.558   6.549 -0.0438 -1.0697  1.0121
 8347TIP3    H246533   4.859   2.422   6.485  0.8003 -1.7017  2.5905
 8348TIP3   OH246534   4.318   0.113  15.952  0.2221  0.6997  0.8129
 8348TIP3    H146535   4.247   0.058  15.919 -1.0146  1.8500  1.4323
 8348TIP3    H246536   4.389   0.101  15.890  0.1743 -1.9128  1.1671
 8349TIP3   OH246537   4.955   0.171   5.372 -0.1676 -0.0133  0.5090
 8349TIP3    H146538   4.869   0.188   5.410 -0.7465 -0.5668 -0.5022
 8349TIP3    H246539   4.941   0.178   5.278  0.8621 -0.2676  0.3285
 8350TIP3   OH246540   1.163   3.568  15.516 -0.1389 -0.1956  0.1233
 8350TIP3    H146541   1.249   3.526  15.512  0.1606  0.1800  1.7873
 8350TIP3    H246542   1.163   3.630  15.443  0.4702 -1.1403 -0.7040
 8351TIP3   OH246543   0.958   5.586  15.566  0.4288  0.1382  0.3305
 8351TIP3    H146544   0.987   5.498  15.590  1.9066  1.0065  1.8821
 8351TIP3    H246545   0.960   5.636  15.647  0.3622  1.8197 -0.6551
 8352TIP3   OH246546   3.189   4.199  14.636  0.1053 -0.1825  0.0551
 8352TIP3    H146547   3.113   4.217  14.690 -0.4692  1.9643 -1.3179
 8352TIP3    H246548   3.179   4.108  14.610 -1.1851 -0.3760  1.1255
 8353TIP3   OH246549   2.492   4.866   5.798  0.7681 -0.1590 -0.1933
 8353TIP3    H146550   2.551   4.920   5.851 -0.0267 -0.0891  0.6629
 8353TIP3    H246551   2.487   4.782   5.846 -0.7870  0.2633  0.4804
 8354TIP3   OH246552   5.061   6.226   3.371 -0.3450  0.3073 -0.1138
 8354TIP3    H146553   5.063   6.321   3.361 -1.8687  0.4355  0.5343
 8354TIP3    H246554   4.973   6.200   3.343  0.3267 -1.0365 -1.1312
 8355TIP3   OH246555   5.546   0.030   6.046  0.4306 -0.1271 -0.0546
 8355TIP3    H146556   5.517   0.088   6.116  1.3985  1.1009 -0.6153
 8355TIP3    H246557   5.585  -0.045   6.090 -2.3627 -1.2725  0.7080
 8356TIP3   OH246558   0.764   3.794   2.770 -0.0970 -0.5608 -0.1522
 8356TIP3    H146559   0.690   3.741   2.739  0.3405 -1.5882  0.5165
 8356TIP3    H246560   0.778   3.766   2.860  0.7043  0.0866 -0.0636
 8357TIP3   OH246561   6.108   0.229   4.818 -0.1392  0.2383 -0.4474
 8357TIP3    H146562   6.133   0.144   4.781 -0.6418 -0.8831  1.6043
 8357TIP3    H246563   6.027   0.211   4.865 -0.1098  1.8069  0.2417
 8358TIP3   OH246564   1.847   5.238  12.450 -0.0508 -0.1933 -0.2947
 8358TIP3    H146565   1.873   5.311  12.507 -0.6648  1.8844 -2.5023
 8358TIP3    H246566   1.904   5.245  12.374 -0.1579 -2.0535 -0.5948
 8359TIP3   OH246567   2.297   4.377   1.161 -0.5660 -0.1161  0.3495
 8359TIP3    H146568   2.370   4.365   1.222 -0.9068 -0.1402  0.7567
 8359TIP3    H246569   2.242   4.299   1.174 -0.0464 -0.6965 -0.8242
 8360TIP3   OH246570   3.864   1.524  15.314  0.9131 -0.3035 -0.1167
 8360TIP3    H146571   3.931   1.480  15.368  1.6917 -0.4492 -1.1614
 8360TIP3    H246572   3.822   1.453  15.266  0.4814 -0.1418  0.0234
 8361TIP3   OH246573   2.265   6.711   4.140 -0.2522  0.6892 -0.4293
 8361TIP3    H146574   2.329   6.641   4.151  0.7493  1.6146 -0.1431
 8361TIP3    H246575   2.183   6.673   4.171 -0.4772 -1.3825 -3.2149
 8362TIP3   OH246576   2.837   5.618  11.776  0.3232 -0.5951  0.0493
 8362TIP3    H146577   2.904   5.550  11.771  0.8878  0.0514 -2.1885
 8362TIP3    H246578   2.886   5.700  11.783 -0.1316 -0.0509 -2.3834
 8363TIP3   OH246579   2.037   3.827  14.821  0.2542 -0.9719 -0.1630
 8363TIP3    H146580   2.093   3.754  14.795  2.2605  0.0454  1.0919
 8363TIP3    H246581   2.021   3.813  14.915 -1.7155 -1.2655 -0.4861
 8364TIP3   OH246582   3.511   3.377   3.471 -0.4660 -0.4388  0.7936
 8364TIP3    H146583   3.454   3.354   3.397  0.5740 -2.6098  0.5672
 8364TIP3    H246584   3.532   3.469   3.457  0.0782 -0.8780 -1.9232
 8365TIP3   OH246585   3.542   2.163   4.473  0.1597  0.5586  0.2656
 8365TIP3    H146586   3.492   2.234   4.433 -0.1859 -0.6558 -1.5466
 8365TIP3    H246587   3.629   2.169   4.434  0.1673  0.0665  0.2024
 8366TIP3   OH246588   5.139   6.727  15.434  0.2156 -0.4006  0.5493
 8366TIP3    H146589   5.047   6.751  15.450 -0.3193 -1.3503 -0.9606
 8366TIP3    H246590   5.189   6.801  15.471 -1.0649 -0.4338  2.5017
 8367TIP3   OH246591   6.059   4.096   6.031  0.5871 -0.3209 -0.0987
 8367TIP3    H146592   5.985   4.039   6.049 -0.0556  0.5970  0.2218
 8367TIP3    H246593   6.087   4.073   5.942 -0.3533 -0.3726 -0.3844
 8368TIP3   OH246594   0.487   1.928  11.341 -0.0350  0.4630 -0.3995
 8368TIP3    H146595   0.500   2.023  11.336  0.8035  0.6039  2.7018
 8368TIP3    H246596   0.393   1.918  11.359  0.1482  0.8362  0.8459
 8369TIP3   OH246597   2.404   0.180  16.483 -0.3215 -0.1038  0.4859
 8369TIP3    H146598   2.490   0.137  16.483 -0.0042  0.4459 -1.2804
 8369TIP3    H246599   2.352   0.130  16.419 -1.9569 -1.5207  2.7636
 8370TIP3   OH246600   4.328   4.165   4.695 -0.0429 -0.4281 -0.3382
 8370TIP3    H146601   4.316   4.254   4.661 -0.3624 -0.9629 -1.7051
 8370TIP3    H246602   4.343   4.112   4.617  0.5372 -1.5232  0.4929
 8371TIP3   OH246603   0.841   4.391   5.378  0.6984 -0.2332  0.4458
 8371TIP3    H146604   0.825   4.297   5.373 -0.9839 -0.0590  1.8544
 8371TIP3    H246605   0.810   4.425   5.294  2.7586 -1.0633 -0.7314
 8372TIP3   OH246606   5.063   1.608  14.114  0.5437  0.5275 -0.1408
 8372TIP3    H146607   5.079   1.541  14.181 -0.3317 -0.3565 -0.7939
 8372TIP3    H246608   5.056   1.559  14.032 -0.4101  1.3804 -0.5868
 8373TIP3   OH246609   6.532   0.756   4.837 -0.1049  0.3745 -0.1336
 8373TIP3    H146610   6.610   0.714   4.802 -0.5941 -1.4408  0.8410
 8373TIP3    H246611   6.552   0.850   4.834  2.2086 -0.0406  0.3085
 8374TIP3   OH246612   5.650   4.416   5.127 -0.1634 -0.4997 -0.0076
 8374TIP3    H146613   5.593   4.485   5.161 -0.6685 -1.2464  0.6929
 8374TIP3    H246614   5.739   4.449   5.140 -0.3948 -0.0295  0.4239
 8375TIP3   OH246615   6.509   4.673   5.816  0.2985 -0.0452  0.2777
 8375TIP3    H146616   6.480   4.749   5.765 -0.8177  0.1533  1.1819
 8375TIP3    H246617   6.512   4.704   5.906 -0.7330 -1.2043  0.7485
 8376TIP3   OH246618   0.773   4.639   6.141  0.1824 -0.2780  0.0128
 8376TIP3    H146619   0.719   4.605   6.070 -0.2043 -0.0676  0.2063
 8376TIP3    H246620   0.789   4.730   6.117  2.5401 -0.9359 -1.3254
 8377TIP3   OH246621   3.721   1.800   2.952  0.2561 -0.4623  0.5621
 8377TIP3    H146622   3.653   1.867   2.940  0.2366 -0.5395  0.2168
 8377TIP3    H246623   3.673   1.722   2.980  0.2543 -0.3875  0.7636
 8378TIP3   OH246624   3.476   4.908  11.612 -0.1636 -0.1460 -0.1343
 8378TIP3    H146625   3.434   4.879  11.531 -2.0095  0.5396  0.5414
 8378TIP3    H246626   3.409   4.959  11.658  1.3483  0.8448  1.0900
 8379TIP3   OH246627   5.411   3.580  14.100 -0.0311  0.5097  0.0864
 8379TIP3    H146628   5.460   3.503  14.070  0.2609  0.4283  0.7435
 8379TIP3    H246629   5.368   3.614  14.021  1.1805  0.6566 -0.5272
 8380TIP3   OH246630   2.796   1.181  12.486 -0.0304 -0.1641  0.1164
 8380TIP3    H146631   2.872   1.235  12.507 -0.3290  0.1928  0.2892
 8380TIP3    H246632   2.778   1.133  12.567  0.4337 -0.7657 -0.1355
 8381TIP3   OH246633   6.672   0.490   3.513  0.3007  0.1537  0.1276
 8381TIP3    H146634   6.700   0.459   3.427 -0.3382 -1.6422  0.5206
 8381TIP3    H246635   6.652   0.583   3.500  2.0922  0.4081 -1.1775
 8382TIP3   OH246636   0.854   3.055  11.864 -0.1457  0.0294  0.0671
 8382TIP3    H146637   0.810   3.056  11.948 -2.0626 -1.6509 -0.8514
 8382TIP3    H246638   0.784   3.064  11.799  1.1011 -0.4087 -1.4090
 8383TIP3   OH246639   3.424   4.350   0.688 -0.2849 -0.0287 -0.1339
 8383TIP3    H146640   3.471   4.287   0.634 -0.9814 -1.2952  0.6828
 8383TIP3    H246641   3.478   4.359   0.766 -0.6625 -0.3636  0.1694
 8384TIP3   OH246642   4.995   0.547   5.534  0.2692  0.2033 -0.1315
 8384TIP3    H146643   4.964   0.605   5.464 -0.3768 -1.2202 -1.0861
 8384TIP3    H246644   5.070   0.501   5.496  1.0612  0.7080  0.7695
 8385TIP3   OH246645   4.727   2.241   4.216  0.0969 -0.1442 -0.2382
 8385TIP3    H146646   4.670   2.185   4.269 -0.8529 -0.5916 -1.6840
 8385TIP3    H246647   4.706   2.330   4.244 -0.4129 -0.3671  0.1065
 8386TIP3   OH246648   2.275   1.725  15.110 -0.2294 -0.1425  0.1394
 8386TIP3    H146649   2.303   1.780  15.036  1.6559 -0.2411  0.7250
 8386TIP3    H246650   2.334   1.749  15.181  0.2334 -2.4566  0.6189
 8387TIP3   OH246651   1.963   5.190   2.730  0.3771  0.1742  0.1950
 8387TIP3    H146652   1.925   5.244   2.661 -0.5373  1.0178  1.3107
 8387TIP3    H246653   2.042   5.237   2.757  0.0039  0.5751  0.6245
 8388TIP3   OH246654   3.392   1.591  12.646 -0.0826 -0.3846 -0.6635
 8388TIP3    H146655   3.448   1.662  12.676 -1.1443  1.2817 -2.4179
 8388TIP3    H246656   3.434   1.560  12.566 -0.9981  0.0805 -1.3440
 8389TIP3   OH246657   3.051   0.001  14.023  0.2452  0.4059  0.5374
 8389TIP3    H146658   2.983  -0.015  14.088  1.0176 -1.8429  0.8725
 8389TIP3    H246659   3.125  -0.052  14.051  0.4470 -1.0358 -2.3804
 8390TIP3   OH246660   0.518   3.873  16.334 -0.3932 -0.1983 -0.2919
 8390TIP3    H146661   0.491   3.942  16.394  1.2265 -0.7740  1.1860
 8390TIP3    H246662   0.497   3.792  16.379 -1.1612 -0.6960 -1.4872
 8391TIP3   OH246663   5.009   3.031  16.403 -0.3232 -0.2110  0.7842
 8391TIP3    H146664   5.089   3.002  16.446 -1.2709 -3.0964  0.8001
 8391TIP3    H246665   4.962   3.079  16.470  0.6611  0.1061  1.2654
 8392TIP3   OH246666   0.123   3.932  16.772  0.2244 -0.7609  0.6252
 8392TIP3    H146667   0.175   3.868  16.820 -0.0486  0.0717  2.0804
 8392TIP3    H246668   0.150   4.016  16.807  0.8366 -0.0127 -1.5098
 8393TIP3   OH246669   1.928   2.069   2.030 -0.0022 -0.3232  0.4321
 8393TIP3    H146670   1.840   2.094   2.059  0.3267  0.2280  0.9693
 8393TIP3    H246671   1.985   2.137   2.065  0.5250 -0.1310 -0.7541
 8394TIP3   OH246672   2.561   1.570   2.585  0.5575  0.6106 -0.0062
 8394TIP3    H146673   2.511   1.635   2.634 -0.3920 -0.1712  0.0880
 8394TIP3    H246674   2.568   1.495   2.645 -0.5249 -0.3116 -0.9719
 8395TIP3   OH246675   4.898   4.462   1.853 -0.6179 -0.8322 -0.0444
 8395TIP3    H146676   4.977   4.428   1.896  0.2057 -1.4417 -1.9150
 8395TIP3    H246677   4.871   4.391   1.795 -1.2822  0.1934 -1.0184
 8396TIP3   OH246678   2.941   4.363  16.536  0.5631 -0.2549  0.0162
 8396TIP3    H146679   3.035   4.356  16.549  0.6354  0.0758 -0.2948
 8396TIP3    H246680   2.932   4.427  16.465  0.0842  0.1931  0.4741
 8397TIP3   OH246681   0.450   3.084  12.421 -0.0424  0.1696 -0.0582
 8397TIP3    H146682   0.476   2.993  12.439 -0.5705  0.4010  2.0535
 8397TIP3    H246683   0.527   3.136  12.443 -0.3656  0.3778  0.5987
 8398TIP3   OH246684   4.144   0.152   5.646 -0.3117 -0.0773  0.1995
 8398TIP3    H146685   4.204   0.133   5.574  0.0497 -0.8158  0.6855
 8398TIP3    H246686   4.065   0.102   5.624 -1.0097  1.3617 -0.7463
 8399TIP3   OH246687   6.024   5.383  15.181 -0.5263 -0.0303 -0.3208
 8399TIP3    H146688   6.020   5.422  15.268  0.2018  0.6246 -0.5648
 8399TIP3    H246689   6.066   5.298  15.194 -1.4074 -0.4124  0.1090
 8400TIP3   OH246690   5.958   2.878  14.616 -0.5816 -0.0530 -0.2620
 8400TIP3    H146691   5.908   2.858  14.537 -0.6673  1.0739 -0.5030
 8400TIP3    H246692   5.960   2.973  14.620 -1.1058 -0.0775  1.4371
 8401TIP3   OH246693   1.230   0.464   0.457  0.3527 -0.1869 -0.0446
 8401TIP3    H146694   1.304   0.442   0.401  1.7328  1.3768  1.0960
 8401TIP3    H246695   1.154   0.427   0.411  1.9489 -3.2478 -0.4454
 8402TIP3   OH246696   1.633   0.129  16.146  0.4718 -0.1696  0.3967
 8402TIP3    H146697   1.573   0.056  16.130  1.3978 -0.8542 -0.0773
 8402TIP3    H246698   1.686   0.134  16.066  0.2232  1.2325  0.2921
 8403TIP3   OH246699   2.704   4.526   3.224 -0.3289 -0.3763  0.1427
 8403TIP3    H146700   2.688   4.580   3.146 -1.1758  0.8151  1.0881
 8403TIP3    H246701   2.634   4.461   3.224 -0.3656 -0.3353 -0.0687
 8404TIP3   OH246702   5.612   3.815   3.379 -0.3458 -0.2473 -0.1382
 8404TIP3    H146703   5.689   3.866   3.354 -0.0005 -1.8210 -2.7047
 8404TIP3    H246704   5.574   3.863   3.452  2.7152  0.8974  0.8593
 8405TIP3   OH246705   6.356   0.310   4.404 -0.5664  0.2337 -0.1117
 8405TIP3    H146706   6.270   0.337   4.435 -0.1962 -1.0783  2.3298
 8405TIP3    H246707   6.357   0.334   4.311 -3.2226  1.0205 -0.0203
 8406TIP3   OH246708   4.120   6.696  12.977 -0.4444 -0.2392  0.0243
 8406TIP3    H146709   4.199   6.647  12.958 -1.6998 -1.9063 -1.2150
 8406TIP3    H246710   4.151   6.780  13.010  1.8173 -1.8980  2.5439
 8407TIP3   OH246711   6.746   3.703   5.116 -0.4709 -0.1981 -0.4872
 8407TIP3    H146712   6.727   3.611   5.102 -0.6824 -0.2652  0.2258
 8407TIP3    H246713   6.663   3.742   5.142 -0.2532  0.0708 -0.1775
 8408TIP3   OH246714   5.366   5.338   2.002 -0.5312 -0.3276  0.2134
 8408TIP3    H146715   5.318   5.274   2.054 -0.8622 -0.6854 -0.5120
 8408TIP3    H246716   5.442   5.289   1.968 -1.9745 -1.0653 -2.2330
 8409TIP3   OH246717   5.487   1.666   2.477  0.2180  0.0706 -0.6460
 8409TIP3    H146718   5.414   1.727   2.492 -1.2220 -0.9591 -2.8304
 8409TIP3    H246719   5.520   1.646   2.564 -0.3942  2.5764  0.2564
 8410TIP3   OH246720   6.133   3.030  14.217 -0.5449 -0.5346  0.2732
 8410TIP3    H146721   6.133   3.022  14.122  2.1734  2.4538 -0.1731
 8410TIP3    H246722   6.064   3.094  14.235  1.2515  1.7033 -0.2457
 8411TIP3   OH246723   1.544   4.669  15.004  0.0476 -0.3792 -0.1263
 8411TIP3    H146724   1.623   4.624  14.974 -0.1654 -0.7950 -0.0744
 8411TIP3    H246725   1.573   4.720  15.080  0.0621 -1.3408  0.5397
 8412TIP3   OH246726   3.934   5.449   5.083  0.4890 -0.0335 -1.0242
 8412TIP3    H146727   3.969   5.522   5.135 -0.2852 -0.2894 -0.1156
 8412TIP3    H246728   3.862   5.487   5.034 -0.2187 -0.2749 -0.1912
 8413TIP3   OH246729   2.833   2.006  12.117  0.0910 -0.9564  0.4096
 8413TIP3    H146730   2.895   1.937  12.095  0.5005 -0.5921  0.3993
 8413TIP3    H246731   2.796   1.980  12.201  0.3836 -1.0867  0.4974
 8414TIP3   OH246732   0.851   1.016  15.409  0.2422 -0.1695  0.3195
 8414TIP3    H146733   0.755   1.021  15.414  0.3116  0.9915  0.7734
 8414TIP3    H246734   0.870   1.021  15.315 -0.0451  2.9363  0.3259
 8415TIP3   OH246735   4.436   1.420   4.789  0.1942 -1.1634  0.3805
 8415TIP3    H146736   4.530   1.417   4.772  0.1401  0.2282 -0.3328
 8415TIP3    H246737   4.415   1.514   4.792 -1.5443 -1.3729 -1.8896
 8416TIP3   OH246738   2.659   4.721   0.910 -0.9389 -0.0319 -0.0727
 8416TIP3    H146739   2.687   4.804   0.948 -0.3060  0.7778 -2.1222
 8416TIP3    H246740   2.707   4.655   0.959  2.4301  1.1362 -1.4684
 8417TIP3   OH246741   6.491   1.431   6.699  0.3043 -0.0227 -0.4545
 8417TIP3    H146742   6.579   1.394   6.706  0.2948  0.2265  2.0468
 8417TIP3    H246743   6.433   1.364   6.736 -0.4667  0.1720 -1.2638
 8418TIP3   OH246744   3.037   0.423  12.442  0.5327  0.4465 -0.2202
 8418TIP3    H146745   2.945   0.397  12.432  0.2413  0.0894  2.5095
 8418TIP3    H246746   3.076   0.353  12.495  1.7646  1.7316  0.6347
 8419TIP3   OH246747   4.455   3.612   1.797 -0.5012 -0.6207  0.3933
 8419TIP3    H146748   4.496   3.636   1.714  1.0118 -0.9787  1.0107
 8419TIP3    H246749   4.526   3.614   1.861 -1.6476 -0.2579  1.7143
 8420TIP3   OH246750   3.940   3.753  15.671 -0.0476 -0.3373  0.4785
 8420TIP3    H146751   3.860   3.747  15.618  0.5114 -0.3344 -0.3677
 8420TIP3    H246752   3.924   3.692  15.744 -0.7851 -0.4034  0.2720
 8421TIP3   OH246753   6.695   4.958   4.960  0.3301 -0.4958 -0.7920
 8421TIP3    H146754   6.737   5.029   4.909  1.4892 -1.3095 -1.0199
 8421TIP3    H246755   6.695   4.884   4.900 -2.8056 -0.1910 -1.3215
 8422TIP3   OH246756   6.179   3.125   4.037  0.6978 -0.4390 -0.2128
 8422TIP3    H146757   6.159   3.113   4.130  1.9212 -0.5897  0.0485
 8422TIP3    H246758   6.100   3.164   4.000  0.2944 -0.1259  0.9441
 8423TIP3   OH246759   2.608   5.030  13.771 -0.3052  0.1507 -0.5537
 8423TIP3    H146760   2.569   5.110  13.736 -0.0512 -0.0974 -1.4375
 8423TIP3    H246761   2.541   4.963  13.757 -0.5606  0.2269  0.2865
 8424TIP3   OH246762   6.233   2.619   4.149  0.4395  0.1359  0.5231
 8424TIP3    H146763   6.174   2.544   4.137  1.3029 -0.4427 -0.2650
 8424TIP3    H246764   6.175   2.692   4.169 -0.6725 -0.1327 -1.4526
 8425TIP3   OH246765   2.760   3.649  16.791  0.2422 -0.4538  0.4228
 8425TIP3    H146766   2.675   3.688  16.810 -0.9471 -2.5704 -0.2281
 8425TIP3    H246767   2.750   3.557  16.815  2.2530 -0.8180  0.0160
 8426TIP3   OH246768   2.738   4.497  15.043 -0.4691  0.0878  0.6362
 8426TIP3    H146769   2.806   4.561  15.061  1.8454 -1.3105 -2.2788
 8426TIP3    H246770   2.704   4.521  14.956 -1.6540 -0.9298  0.7797
 8427TIP3   OH246771   1.223   4.406  11.440  0.1325  0.1267 -0.1109
 8427TIP3    H146772   1.163   4.382  11.510 -0.8715  0.3317 -0.8607
 8427TIP3    H246773   1.170   4.400  11.360  0.7542  1.5411 -0.6771
 8428TIP3   OH246774   0.087   6.411   5.268 -0.1837 -0.0462  0.3829
 8428TIP3    H146775   0.076   6.367   5.184 -0.0549  2.3561 -0.9817
 8428TIP3    H246776   0.067   6.503   5.250  1.2157  0.7900  2.6591
 8429TIP3   OH246777   0.854   3.372   4.382  0.0331 -0.0697 -0.2625
 8429TIP3    H146778   0.838   3.279   4.398  0.2894 -0.4295 -1.8980
 8429TIP3    H246779   0.857   3.411   4.469 -3.3367 -1.0075  0.3888
 8430TIP3   OH246780   3.943   0.118   3.644  0.1763  0.5505 -0.2647
 8430TIP3    H146781   3.963   0.062   3.569 -0.0853  0.9243 -0.6207
 8430TIP3    H246782   3.948   0.060   3.720  3.1984  0.6940 -0.2370
 8431TIP3   OH246783   4.995   1.182  16.774  0.4636  0.0583  0.0411
 8431TIP3    H146784   4.987   1.118  16.845 -0.2310 -0.8984 -0.8588
 8431TIP3    H246785   4.978   1.266  16.815  0.7504 -0.4060  1.1404
 8432TIP3   OH246786   6.559   2.995  10.908  0.5478 -0.1124  0.3868
 8432TIP3    H146787   6.543   2.951  10.991  1.6440 -0.6008  0.3548
 8432TIP3    H246788   6.593   3.081  10.933 -0.8605  0.4681  0.4371
 8433TIP3   OH246789   1.136   3.758   3.618  0.5063  0.0298  0.3004
 8433TIP3    H146790   1.122   3.801   3.534 -2.5146  0.5803  0.9523
 8433TIP3    H246791   1.118   3.665   3.601  1.7692 -0.1826  0.0028
 8434TIP3   OH246792   4.486   3.191   5.180  0.0076  0.0308 -0.1917
 8434TIP3    H146793   4.572   3.155   5.157 -0.6683 -1.5093 -0.4416
 8434TIP3    H246794   4.443   3.120   5.228 -0.7027  1.1951  0.9763
 8435TIP3   OH246795   1.097   3.267  11.959 -0.0398  0.6221  0.3677
 8435TIP3    H146796   1.087   3.253  11.864  0.3963  1.5225  0.1780
 8435TIP3    H246797   1.120   3.181  11.993  3.2088  0.8596 -0.8370
 8436TIP3   OH246798   5.991   5.678   2.993  0.0312 -0.1602 -0.2599
 8436TIP3    H146799   6.083   5.660   2.975 -0.0842 -0.4550 -0.5652
 8436TIP3    H246800   5.955   5.594   3.020 -0.4246 -0.3247 -1.3350
 8437TIP3   OH246801   2.386   2.137   5.309 -0.3516 -0.1332 -0.0336
 8437TIP3    H146802   2.380   2.191   5.388 -0.7568 -0.2497  0.0218
 8437TIP3    H246803   2.426   2.194   5.244  0.1165 -0.0833  0.2962
 8438TIP3   OH246804   6.315   2.851   4.795 -0.3568  0.1625 -0.2370
 8438TIP3    H146805   6.384   2.790   4.821  0.5309  0.8747 -0.8212
 8438TIP3    H246806   6.297   2.901   4.874 -0.0788  0.0797 -0.1168
 8439TIP3   OH246807   0.004   5.056   2.540 -0.8373  0.1051  0.4207
 8439TIP3    H146808   0.049   4.974   2.520  1.0111  0.6258  2.1329
 8439TIP3    H246809  -0.089   5.036   2.530 -0.4219 -2.1592  0.6565
 8440TIP3   OH246810   1.484   2.189  11.598 -0.3509 -0.4902 -0.3443
 8440TIP3    H146811   1.489   2.102  11.558 -0.4833 -0.5014 -0.3383
 8440TIP3    H246812   1.456   2.172  11.688  0.5777 -0.5133 -0.0548
 8441TIP3   OH246813   1.306   5.503   2.226 -0.4772  0.0539 -0.1248
 8441TIP3    H146814   1.283   5.537   2.312 -0.1913  0.1170 -0.0726
 8441TIP3    H246815   1.310   5.581   2.169  0.9705  0.2249  0.1682
 8442TIP3   OH246816   5.571   4.194  14.719 -0.5721 -0.2546  0.0107
 8442TIP3    H146817   5.594   4.231  14.804  1.1477 -1.7605  0.2594
 8442TIP3    H246818   5.587   4.264  14.657 -0.1335  0.3068  0.7426
 8443TIP3   OH246819   6.551   1.753  15.160  0.0469 -0.2744  0.0827
 8443TIP3    H146820   6.644   1.751  15.182 -0.4256 -0.6120  2.2153
 8443TIP3    H246821   6.536   1.669  15.115  0.6994 -0.3797  0.0479
 8444TIP3   OH246822   2.170   1.722   4.999 -0.0258  0.7553  0.5517
 8444TIP3    H146823   2.091   1.718   5.053 -0.0083 -0.2247  0.5221
 8444TIP3    H246824   2.209   1.635   5.007  0.0864  0.6426 -0.8561
 8445TIP3   OH246825   5.254   5.475   5.467  0.4315 -0.0599 -0.5209
 8445TIP3    H146826   5.227   5.553   5.418 -0.4515  0.7952  1.2433
 8445TIP3    H246827   5.338   5.500   5.507 -1.1831  1.1962  2.4244
 8446TIP3   OH246828   4.765   2.640  16.379  0.2130  0.2659  0.4507
 8446TIP3    H146829   4.820   2.616  16.305 -0.2604  1.1923 -0.2251
 8446TIP3    H246830   4.724   2.722  16.353 -0.6713  0.1404  1.3645
 8447TIP3   OH246831   0.664   3.921  11.862 -0.2351 -0.0871  0.0550
 8447TIP3    H146832   0.717   4.000  11.858  0.4610 -0.4020  1.9161
 8447TIP3    H246833   0.708   3.859  11.804  1.2586 -0.2240  1.2825
 8448TIP3   OH246834   6.230   0.592  17.173 -0.0441 -0.0234  0.3629
 8448TIP3    H146835   6.305   0.573  17.230 -0.1752  0.4316  0.6908
 8448TIP3    H246836   6.153   0.576  17.228 -0.1716  0.4110  0.3165
 8449TIP3   OH246837   1.459   5.182   5.988 -0.4842  0.5317 -0.5410
 8449TIP3    H146838   1.501   5.100   5.965 -0.8015 -0.0976  1.0257
 8449TIP3    H246839   1.453   5.181   6.084  1.1634  3.1909 -0.2976
 8450TIP3   OH246840   6.784   3.826   5.574 -0.0110 -0.3503  0.4067
 8450TIP3    H146841   6.800   3.908   5.621  0.4979 -0.9724  1.3286
 8450TIP3    H246842   6.831   3.837   5.491 -0.7643  0.6800  0.0953
 8451TIP3   OH246843   6.276   6.003   6.372  0.4208 -0.5709  0.4213
 8451TIP3    H146844   6.357   6.013   6.422  1.0742  0.3000 -0.7534
 8451TIP3    H246845   6.287   5.921   6.325  0.9551 -0.0966 -0.2983
 8452TIP3   OH246846   0.426   4.172  14.425  0.6462  0.8902  0.1346
 8452TIP3    H146847   0.399   4.221  14.347  0.2616  1.5432  0.6698
 8452TIP3    H246848   0.484   4.232  14.471  2.4944 -0.2166 -0.6263
 8453TIP3   OH246849   4.055   6.772  16.895  0.0421 -0.4968  0.2117
 8453TIP3    H146850   4.136   6.733  16.864  0.6588  1.1086 -0.3234
 8453TIP3    H246851   4.012   6.703  16.946 -0.3280 -2.8030 -2.9263
 8454TIP3   OH246852   0.754   2.104  16.123 -0.4316  0.5642  0.1294
 8454TIP3    H146853   0.696   2.029  16.132  2.1313 -1.4117  1.1031
 8454TIP3    H246854   0.743   2.132  16.031 -2.6406  0.1265  0.2115
 8455TIP3   OH246855   3.003   1.407   4.142 -0.2088 -0.8370  0.9370
 8455TIP3    H146856   3.021   1.397   4.236  3.4945  1.8301  0.7120
 8455TIP3    H246857   3.049   1.334   4.101  0.9916 -0.1486  1.0350
 8456TIP3   OH246858   5.309   0.113  14.247  0.2882 -0.1017  0.4188
 8456TIP3    H146859   5.358   0.074  14.319  1.0303 -1.2889 -0.6883
 8456TIP3    H246860   5.321   0.207  14.258  1.2606 -0.3009  1.2480
 8457TIP3   OH246861   6.143   4.650  17.161 -0.0624  0.0755  0.1669
 8457TIP3    H146862   6.146   4.564  17.203  1.4249 -0.8061 -1.6216
 8457TIP3    H246863   6.109   4.634  17.073  0.0716  1.3407 -0.1383
 8458TIP3   OH246864   6.580   6.116  14.362  0.6377 -0.4729  0.0581
 8458TIP3    H146865   6.517   6.132  14.292 -0.2125 -0.4765  0.7974
 8458TIP3    H246866   6.646   6.184  14.351  0.6557 -0.6381 -0.8971
 8459TIP3   OH246867   3.190   5.880  12.438 -0.0461  0.4461  0.3993
 8459TIP3    H146868   3.141   5.827  12.501  1.7021 -1.5202  0.1745
 8459TIP3    H246869   3.170   5.842  12.353  0.1655  1.0416  0.0741
 8460TIP3   OH246870   5.529   3.741  16.189 -0.1056 -0.0454  0.3545
 8460TIP3    H146871   5.465   3.676  16.218  2.3635 -2.0577  1.5567
 8460TIP3    H246872   5.521   3.812  16.253 -0.5069 -0.6575  0.9889
 8461TIP3   OH246873   3.340   6.091   2.543 -0.5135 -0.5316  0.3232
 8461TIP3    H146874   3.262   6.143   2.562 -1.0191 -1.3480  0.4964
 8461TIP3    H246875   3.344   6.088   2.447 -0.3577 -0.0003  0.3082
 8462TIP3   OH246876   1.758   4.183   5.361 -0.1146  0.2737  0.3266
 8462TIP3    H146877   1.690   4.247   5.338  0.4795  0.8954  0.2511
 8462TIP3    H246878   1.727   4.101   5.322 -0.6344  0.6294 -0.0419
 8463TIP3   OH246879   5.640   4.873   4.096 -0.4527  0.5057  0.3659
 8463TIP3    H146880   5.648   4.965   4.068  0.6097  0.0270 -1.0078
 8463TIP3    H246881   5.625   4.825   4.015  2.3275 -0.9003  0.5717
 8464TIP3   OH246882   1.410   1.776   3.800  0.2155 -0.0993 -0.3473
 8464TIP3    H146883   1.363   1.854   3.830 -0.4950 -0.1318 -1.3476
 8464TIP3    H246884   1.342   1.716   3.771  0.8418  0.2525 -2.7874
 8465TIP3   OH246885   6.802   3.747   3.285 -0.4624 -0.0827 -0.3824
 8465TIP3    H146886   6.838   3.747   3.374 -1.3452  0.1913 -0.0128
 8465TIP3    H246887   6.711   3.775   3.296  0.4955  4.6675 -1.8067
 8466TIP3   OH246888   0.543   2.485   5.756  0.0050 -0.8649 -0.4329
 8466TIP3    H146889   0.487   2.475   5.833  1.1424  1.2995  0.7773
 8466TIP3    H246890   0.608   2.415   5.765 -0.0062 -0.7746  0.4950
 8467TIP3   OH246891   4.218   5.581  11.494 -0.2154  0.6399 -0.5834
 8467TIP3    H146892   4.123   5.577  11.483 -0.2216 -1.4063 -0.2373
 8467TIP3    H246893   4.237   5.519  11.564  1.3061  1.6929 -0.0186
 8468TIP3   OH246894   0.431   5.461  12.278 -0.0821 -0.0292  0.7283
 8468TIP3    H146895   0.342   5.485  12.305 -1.5965 -2.2391 -1.8387
 8468TIP3    H246896   0.427   5.457  12.183  2.6350 -0.8175  0.5716
 8469TIP3   OH246897   6.279   3.377  12.965  0.0789  1.1108  0.4828
 8469TIP3    H146898   6.298   3.431  13.042  0.7652  1.4444  0.0908
 8469TIP3    H246899   6.365   3.346  12.937 -0.2726  0.0780  0.5054
 8470TIP3   OH246900   0.114   3.441   0.391 -0.0789  0.0325  0.3419
 8470TIP3    H146901   0.200   3.404   0.371  1.0589  1.6064  2.0416
 8470TIP3    H246902   0.066   3.368   0.431  0.1971 -1.0329 -1.1745
 8471TIP3   OH246903   6.590   6.042  10.970  0.5567  0.1827  0.4691
 8471TIP3    H146904   6.539   6.108  11.018 -1.5804  0.4487 -1.9629
 8471TIP3    H246905   6.633   5.991  11.039 -2.9119  0.0162  2.7753
 8472TIP3   OH246906   3.575   3.144  11.627 -0.1712  0.1054 -0.3989
 8472TIP3    H146907   3.480   3.140  11.618 -0.3321  0.0391  1.0996
 8472TIP3    H246908   3.598   3.232  11.596 -0.9138  0.6948  0.6465
 8473TIP3   OH246909   1.846   6.795  14.979  0.2005  0.3177  0.6237
 8473TIP3    H146910   1.819   6.882  14.952  0.6125  0.2673  0.0286
 8473TIP3    H246911   1.788   6.736  14.931  0.2994  0.2536  0.5816
 8474TIP3   OH246912   6.819   6.375   2.796 -0.4378 -0.1391  0.0297
 8474TIP3    H146913   6.881   6.420   2.738  0.4527  0.2725  1.2514
 8474TIP3    H246914   6.867   6.298   2.826 -1.4391 -1.1750 -0.9182
 8475TIP3   OH246915   1.096   0.992   1.019  0.5222 -0.0874  0.5131
 8475TIP3    H146916   1.011   0.958   0.993  0.3201  0.2202  0.7577
 8475TIP3    H246917   1.153   0.916   1.022  0.2525 -0.2958  0.3509
 8476TIP3   OH246918   0.087   3.054   2.641 -0.6518 -0.0048 -0.2213
 8476TIP3    H146919   0.160   3.067   2.581 -1.9072  1.5231 -1.5088
 8476TIP3    H246920   0.127   3.022   2.722  1.2723 -0.4253 -1.3014
 8477TIP3   OH246921   2.693   5.832   2.748  0.9172 -0.0618 -0.4453
 8477TIP3    H146922   2.655   5.802   2.666  0.0974 -2.6708  0.7828
 8477TIP3    H246923   2.767   5.774   2.763  0.1130 -0.6896  1.3775
 8478TIP3   OH246924   6.546   4.121  14.806 -0.1218 -0.0213 -0.3102
 8478TIP3    H146925   6.547   4.191  14.871  0.6851  0.2726 -0.6312
 8478TIP3    H246926   6.496   4.157  14.733  0.0786  0.1304 -0.3738
 8479TIP3   OH246927   1.968   5.560   5.591 -0.4279  0.2295 -0.6574
 8479TIP3    H146928   1.894   5.618   5.605 -0.1340  0.2308  1.1466
 8479TIP3    H246929   1.966   5.499   5.665  1.0654 -0.0941 -0.8301
 8480TIP3   OH246930   3.668   4.641   6.081  0.3533  0.0658  0.5339
 8480TIP3    H146931   3.705   4.711   6.027  1.1635 -0.6139  0.1952
 8480TIP3    H246932   3.646   4.572   6.018 -0.1644 -0.1111  0.9020
 8481TIP3   OH246933   5.370   1.855  13.473  0.0365  0.1606 -0.2669
 8481TIP3    H146934   5.400   1.770  13.506 -0.1921  0.6226  1.1870
 8481TIP3    H246935   5.402   1.919  13.538 -2.0382  0.9135  0.0771
 8482TIP3   OH246936   0.157   4.588  15.214 -0.4122  0.2704 -0.4186
 8482TIP3    H146937   0.221   4.629  15.155  0.8171 -1.5509 -0.4324
 8482TIP3    H246938   0.194   4.599  15.301 -0.3068 -0.3921 -0.3778
 8483TIP3   OH246939   1.814   6.553   1.422  0.6283  0.0064  0.1051
 8483TIP3    H146940   1.729   6.509   1.415  0.2383  0.8712 -0.8599
 8483TIP3    H246941   1.857   6.534   1.339  0.7928  0.7449  0.0209
 8484TIP3   OH246942   3.114   2.173   1.045  0.3138 -0.3953  0.3420
 8484TIP3    H146943   3.139   2.095   0.994 -2.2698 -0.5532 -0.8570
 8484TIP3    H246944   3.054   2.139   1.111 -2.1438  0.6597 -1.2049
 8485TIP3   OH246945   2.638   2.414   3.063  0.4963  0.3724 -0.4435
 8485TIP3    H146946   2.674   2.337   3.020 -0.2214  1.5462 -3.3398
 8485TIP3    H246947   2.715   2.469   3.081  0.8590 -0.3685  0.3647
 8486TIP3   OH246948   5.008   2.903  15.976  0.3277 -0.1320 -0.0237
 8486TIP3    H146949   4.918   2.935  15.973  0.5090  0.3547 -0.6430
 8486TIP3    H246950   4.999   2.807  15.979 -0.2095 -0.0708  0.5116
 8487TIP3   OH246951   5.677   5.088  16.292  0.4563  0.5812  0.1113
 8487TIP3    H146952   5.691   5.029  16.219  1.8085 -1.9350  2.2330
 8487TIP3    H246953   5.746   5.067  16.354 -0.0960  3.1945  1.7838
 8488TIP3   OH246954   2.235   2.880   2.327 -0.7113  0.2677 -0.2317
 8488TIP3    H146955   2.314   2.826   2.321 -0.2104  1.0690 -1.0376
 8488TIP3    H246956   2.189   2.865   2.245 -0.9998  0.4114 -0.0964
 8489TIP3   OH246957   1.365   4.063  13.667  0.0656  0.3715  0.8719
 8489TIP3    H146958   1.380   4.064  13.761  1.6457 -0.4251  0.6607
 8489TIP3    H246959   1.446   4.030  13.630 -1.0414 -0.7609 -0.6864
 8490TIP3   OH246960   0.355   3.200  15.939  0.2013 -0.4893  0.3470
 8490TIP3    H146961   0.293   3.178  16.008 -1.0480 -0.6547 -0.7860
 8490TIP3    H246962   0.425   3.136  15.948 -1.4825 -2.5363 -0.4790
 8491TIP3   OH246963   0.855   5.718   0.058  0.0308  0.2206  0.1773
 8491TIP3    H146964   0.950   5.712   0.062 -0.0657 -0.8241  2.2998
 8491TIP3    H246965   0.837   5.812   0.051  1.2119  0.5756  1.3832
 8492TIP3   OH246966   5.384   1.940   6.156 -0.0989 -0.5531  0.0350
 8492TIP3    H146967   5.323   1.931   6.229 -1.0618 -0.1948 -0.6957
 8492TIP3    H246968   5.421   1.852   6.145  0.2096 -0.5686  1.0594
 8493TIP3   OH246969   1.561   1.221  15.849 -0.0384 -0.2014  0.3936
 8493TIP3    H146970   1.580   1.272  15.770 -0.0695  0.3498  0.7331
 8493TIP3    H246971   1.545   1.132  15.818  2.3490 -0.5528 -0.0045
 8494TIP3   OH246972   6.391   6.739   4.692  0.0878  0.0284  0.2517
 8494TIP3    H146973   6.417   6.728   4.783  0.3583  0.7738  0.2752
 8494TIP3    H246974   6.300   6.768   4.697 -0.1809 -0.7821  0.2420
 8495TIP3   OH246975   0.031   0.565   3.084  0.5237  0.0208  0.6490
 8495TIP3    H146976  -0.040   0.599   3.028  0.6942 -0.4039  0.1587
 8495TIP3    H246977  -0.012   0.500   3.140  0.4782 -0.0616  0.5197
 8496TIP3   OH246978   2.527   6.602   6.103  0.3052  0.1431 -0.3352
 8496TIP3    H146979   2.608   6.642   6.136 -0.1737  0.5544  0.3590
 8496TIP3    H246980   2.557   6.543   6.034  1.0928  1.2414 -0.9755
 8497TIP3   OH246981   1.360   5.583   0.429 -0.2783 -1.0260  0.0762
 8497TIP3    H146982   1.433   5.586   0.367 -0.3155 -0.6605  0.0435
 8497TIP3    H246983   1.331   5.492   0.429 -0.3956 -0.9901 -0.5822
 8498TIP3   OH246984   4.138   4.802  13.916 -0.3285  0.3885  0.1861
 8498TIP3    H146985   4.130   4.727  13.857  2.4978 -1.1239  1.4921
 8498TIP3    H246986   4.111   4.769  14.001 -0.8032  1.4346  0.4613
 8499TIP3   OH246987   2.588   0.610   1.282  0.0326  0.3315 -0.1797
 8499TIP3    H146988   2.651   0.538   1.270 -0.5659 -0.2478  0.0679
 8499TIP3    H246989   2.542   0.616   1.199 -0.7985 -0.4474  0.2048
 8500TIP3   OH246990   2.945   6.123   6.671  0.7187 -0.3783 -0.3729
 8500TIP3    H146991   2.964   6.031   6.687  2.7972  0.0302 -0.3274
 8500TIP3    H246992   2.889   6.123   6.593 -0.9468 -1.7535  0.7409
 8501TIP3   OH246993   6.028   4.699   6.318 -0.2179 -0.2786  0.2585
 8501TIP3    H146994   5.959   4.714   6.382  0.2168  0.2295  0.6160
 8501TIP3    H246995   6.108   4.686   6.370  0.2864  0.9244 -0.1845
 8502TIP3   OH246996   4.453   1.054   0.316 -0.2703 -0.2464 -0.1348
 8502TIP3    H146997   4.464   1.068   0.410 -0.7633 -0.0934 -0.0923
 8502TIP3    H246998   4.509   1.120   0.275 -0.5135  0.0845  0.0573
 8503TIP3   OH246999   4.645   5.591  12.102  0.3631  0.2854 -0.4138
 8503TIP3    H147000   4.550   5.588  12.099  0.3808  0.1560 -0.9266
 8503TIP3    H247001   4.672   5.602  12.011  0.8133  1.0858 -0.1962
 8504TIP3   OH247002   4.777   6.764  13.380 -0.6246 -0.6380 -0.0234
 8504TIP3    H147003   4.732   6.777  13.464  1.3032  0.0288  0.9466
 8504TIP3    H247004   4.847   6.702  13.399 -1.3768 -2.1073 -1.6487
 8505TIP3   OH247005   2.376   3.240   0.295  0.0248  0.4751 -0.2230
 8505TIP3    H147006   2.362   3.165   0.237  1.8484 -0.5330  0.5583
 8505TIP3    H247007   2.457   3.280   0.264  0.0053  1.0860  0.4719
 8506TIP3   OH247008   3.281   1.769  17.080 -0.0274  0.1212 -0.1297
 8506TIP3    H147009   3.266   1.675  17.071 -0.4667 -0.0140  1.6125
 8506TIP3    H247010   3.300   1.799  16.991  0.8160 -1.7228 -0.6208
 8507TIP3   OH247011   1.856   4.179   4.069  0.3881  0.5998  0.6897
 8507TIP3    H147012   1.910   4.124   4.013  0.1540 -0.3539  1.3712
 8507TIP3    H247013   1.814   4.240   4.009  0.4125 -0.1650 -0.1382
 8508TIP3   OH247014   4.932   1.027   3.457  0.1948  0.0604  0.1508
 8508TIP3    H147015   4.860   1.029   3.394  2.1782  0.0582 -2.2591
 8508TIP3    H247016   4.913   1.099   3.517 -0.7726  1.3948 -1.6606
 8509TIP3   OH247017   0.789   0.804   2.311 -0.7978  0.0934 -0.2301
 8509TIP3    H147018   0.856   0.815   2.243 -0.9442 -0.0872 -0.4052
 8509TIP3    H247019   0.766   0.711   2.306  0.6083 -0.3898  1.3852
 8510TIP3   OH247020   2.320   3.910  11.321 -0.2099 -0.3614 -0.4212
 8510TIP3    H147021   2.355   3.960  11.247 -1.7052 -0.4281 -1.2050
 8510TIP3    H247022   2.251   3.966  11.357 -1.2968 -1.4628 -0.7482
 8511TIP3   OH247023   6.810   5.744   2.463 -0.4336  0.4120 -0.2081
 8511TIP3    H147024   6.871   5.730   2.390 -1.3468 -0.0484 -0.9142
 8511TIP3    H247025   6.734   5.785   2.422 -0.6661  0.8155  0.6233
 8512TIP3   OH247026   0.489   1.171   0.239  0.1297  0.6334 -0.4693
 8512TIP3    H147027   0.483   1.165   0.334  3.5780  0.6451 -0.1157
 8512TIP3    H247028   0.510   1.082   0.211  1.4204  1.0594 -0.9182
 8513TIP3   OH247029   2.787   2.047   2.404 -0.5538  0.1535 -0.0259
 8513TIP3    H147030   2.728   2.045   2.480 -0.7858 -0.6229 -0.2227
 8513TIP3    H247031   2.862   2.098   2.434 -2.2985  3.2373 -0.4683
 8514TIP3   OH247032   1.930   3.473  12.308 -0.0809  0.5740  0.0629
 8514TIP3    H147033   1.983   3.426  12.372  0.2463  1.4808  0.4816
 8514TIP3    H247034   1.864   3.410  12.279  0.0884 -0.0065  0.9171
 8515TIP3   OH247035   2.885   4.095   2.140 -0.0109 -0.8433 -0.0978
 8515TIP3    H147036   2.913   4.022   2.195 -0.0428 -0.4769  0.4138
 8515TIP3    H247037   2.798   4.070   2.109 -0.4345 -0.6122  0.8536
 8516TIP3   OH247038   0.912   1.596   2.383 -0.1594  0.0256 -0.2502
 8516TIP3    H147039   0.835   1.558   2.427 -1.7142  1.8801 -1.2364
 8516TIP3    H247040   0.920   1.684   2.419  1.8255 -0.2522  0.1322
 8517TIP3   OH247041   5.261   1.860   4.025 -0.0435 -0.1850  0.4433
 8517TIP3    H147042   5.237   1.790   3.964 -0.4140 -0.0511  0.4314
 8517TIP3    H247043   5.357   1.865   4.020 -0.1086  0.2866 -0.6476
 8518TIP3   OH247044   3.176   2.616  12.040 -0.0518  0.1854 -0.0563
 8518TIP3    H147045   3.180   2.569  12.123 -0.1115 -0.0891 -0.2111
 8518TIP3    H247046   3.260   2.597  11.997  0.0057  0.3783 -0.0332
 8519TIP3   OH247047   6.416   1.447  15.353 -0.2686  0.0625 -0.7116
 8519TIP3    H147048   6.371   1.488  15.427 -1.3399 -1.9274 -0.2051
 8519TIP3    H247049   6.509   1.469  15.367 -0.4529 -0.2406  1.2192
 8520TIP3   OH247050   5.040   5.695  10.601 -0.0904  0.2839  0.8227
 8520TIP3    H147051   4.956   5.666  10.565 -0.1680  0.3640  0.9397
 8520TIP3    H247052   5.101   5.624  10.579 -0.2216  0.1542  0.8770
 8521TIP3   OH247053   0.163   4.780  13.670 -0.1024 -0.4836  0.3366
 8521TIP3    H147054   0.231   4.847  13.670  1.3932 -1.8900 -1.2231
 8521TIP3    H247055   0.109   4.801  13.593  1.1804 -1.7398 -0.9774
 8522TIP3   OH247056   4.775   6.772  13.824 -0.5526  0.5621  0.0398
 8522TIP3    H147057   4.702   6.829  13.845  0.0351  0.1476  4.0200
 8522TIP3    H247058   4.734   6.690  13.797 -1.4738  1.2768 -0.8041
 8523TIP3   OH247059   2.852   6.032  16.444  0.0405 -0.6358  0.7057
 8523TIP3    H147060   2.816   6.098  16.385 -1.3271 -0.7728  1.3471
 8523TIP3    H247061   2.802   6.042  16.525  1.5796 -0.7378  1.7073
 8524TIP3   OH247062   0.990   3.917   6.146 -0.7927  0.7694  0.7246
 8524TIP3    H147063   1.052   3.853   6.183 -0.0530  0.1131 -1.4901
 8524TIP3    H247064   0.964   3.971   6.221  0.2782 -0.7195  2.2582
 8525TIP3   OH247065   5.636   6.759  12.930  0.5847 -0.0450 -0.2452
 8525TIP3    H147066   5.732   6.757  12.939  0.8857  2.2762 -2.0798
 8525TIP3    H247067   5.615   6.851  12.919 -1.6739 -0.6646 -1.7092
 8526TIP3   OH247068   3.814   4.718  11.276  0.1676 -0.0060  0.4749
 8526TIP3    H147069   3.762   4.743  11.199  2.2292  4.0996  0.1338
 8526TIP3    H247070   3.765   4.754  11.350  0.4557  0.1727  0.5808
 8527TIP3   OH247071   6.691   5.143   2.015  0.4990 -0.1288  0.0769
 8527TIP3    H147072   6.755   5.085   1.974 -0.9986 -0.2179 -2.3338
 8527TIP3    H247073   6.705   5.228   1.972  2.2636  1.2923  3.1247
 8528TIP3   OH247074   0.589   2.447   2.053  0.5401  0.1758 -0.0288
 8528TIP3    H147075   0.597   2.407   2.139  3.3105 -0.3682 -0.4583
 8528TIP3    H247076   0.554   2.535   2.071 -0.2150 -0.4003  1.4816
 8529TIP3   OH247077   0.261   6.655  16.269 -0.0179 -0.5939  0.3226
 8529TIP3    H147078   0.346   6.622  16.301  0.5328  0.5672  0.0880
 8529TIP3    H247079   0.284   6.719  16.202 -1.1200 -1.2167 -0.6828
 8530TIP3   OH247080   0.664   2.008   4.249  0.3708 -0.1274 -0.6233
 8530TIP3    H147081   0.586   1.957   4.227  0.4743 -0.2781 -0.6412
 8530TIP3    H247082   0.714   2.012   4.168 -1.1745  2.7826 -1.5893
 8531TIP3   OH247083   0.024   5.805  13.557 -0.6161  0.0221 -0.1655
 8531TIP3    H147084  -0.008   5.733  13.503  1.9505  0.1916 -2.1086
 8531TIP3    H247085   0.061   5.763  13.634 -2.2752 -0.4003  0.4472
 8532TIP3   OH247086   2.895   0.403   3.528  0.2785  0.5761  0.6430
 8532TIP3    H147087   2.923   0.362   3.610 -1.0728  0.4496  1.0628
 8532TIP3    H247088   2.822   0.460   3.553  0.2621  1.0164 -0.3753
 8533TIP3   OH247089   2.833   2.692  14.615 -0.2296 -0.1614 -0.1373
 8533TIP3    H147090   2.928   2.685  14.628 -0.4189 -0.1073  1.4991
 8533TIP3    H247091   2.822   2.699  14.520  1.4260  0.2232 -0.3296
 8534TIP3   OH247092   1.413   0.783  12.825  0.3591 -0.8242  0.5014
 8534TIP3    H147093   1.446   0.804  12.913  1.0381 -1.8504  0.5117
 8534TIP3    H247094   1.323   0.753  12.840  0.2652 -0.4300  0.7673
 8535TIP3   OH247095   3.398   4.016  16.858  0.5462  0.8225  0.2188
 8535TIP3    H147096   3.483   4.030  16.902  0.2197  2.0826  0.5076
 8535TIP3    H247097   3.334   4.056  16.917  0.1217  2.8670 -1.4948
 8536TIP3   OH247098   3.570   0.805   1.595  0.0756  0.0764 -0.0144
 8536TIP3    H147099   3.494   0.799   1.537 -0.7220  1.6253  0.8306
 8536TIP3    H247100   3.554   0.738   1.662 -1.8048  1.9427  1.5213
 8537TIP3   OH247101   3.170   5.974   2.288 -0.3340 -0.1631 -0.0728
 8537TIP3    H147102   3.118   5.965   2.368  0.2702  0.3294  0.3794
 8537TIP3    H247103   3.105   5.972   2.218 -0.9732  0.4310  0.4838
 8538TIP3   OH247104   6.226   5.697   3.271 -0.1013  0.0992  0.1650
 8538TIP3    H147105   6.141   5.707   3.228  0.4047 -2.9696 -1.7914
 8538TIP3    H247106   6.215   5.623   3.330  1.0084  0.2273  0.5586
 8539TIP3   OH247107   1.056   5.350  15.684 -0.1052 -0.3766 -0.0212
 8539TIP3    H147108   1.088   5.339  15.594 -0.4544 -0.5491 -0.1254
 8539TIP3    H247109   1.079   5.269  15.728  1.0014  0.1043  0.3414
 8540TIP3   OH247110   3.501   2.015  15.588 -0.3252 -0.7536 -0.0857
 8540TIP3    H147111   3.553   2.052  15.658 -0.4467  1.5955 -1.1542
 8540TIP3    H247112   3.449   2.088  15.554  0.2560 -1.5649 -3.0878
 8541TIP3   OH247113   6.211   3.724  11.229  0.1626 -0.6165  0.2567
 8541TIP3    H147114   6.276   3.666  11.187 -0.7807 -0.1645 -1.9880
 8541TIP3    H247115   6.174   3.671  11.299  1.4303 -1.6622  0.1821
 8542TIP3   OH247116   6.525   1.006   6.402 -0.3911  0.1659 -0.0992
 8542TIP3    H147117   6.479   1.080   6.363 -0.3538  0.3177  0.1430
 8542TIP3    H247118   6.610   1.004   6.357  0.0230  0.9214  0.6223
 8543TIP3   OH247119   5.097   4.980   1.699 -0.5358 -0.2167  0.0044
 8543TIP3    H147120   5.064   4.891   1.712  0.6371 -0.5584  0.8140
 8543TIP3    H247121   5.093   5.020   1.786 -1.0441  0.5221 -0.3533
 8544TIP3   OH247122   5.948   5.206  11.797 -0.1478  0.5378  0.3843
 8544TIP3    H147123   5.905   5.127  11.766  0.0020 -0.0822  1.6817
 8544TIP3    H247124   6.035   5.204  11.756 -1.0776  1.5370 -1.8417
 8545TIP3   OH247125   3.375   5.658   1.092 -0.3433 -0.4418  0.0434
 8545TIP3    H147126   3.378   5.630   1.001 -1.7551 -0.4032 -0.0409
 8545TIP3    H247127   3.314   5.731   1.093 -0.0178 -0.1682  0.9513
 8546TIP3   OH247128   1.184   1.607   6.199  0.1955  0.1810 -0.0936
 8546TIP3    H147129   1.096   1.643   6.209 -0.2079 -0.6836 -0.4591
 8546TIP3    H247130   1.208   1.626   6.108  0.4409  0.5233  0.0399
 8547TIP3   OH247131   4.004   4.682   1.796 -0.0880  0.5691  0.2740
 8547TIP3    H147132   3.953   4.642   1.866  0.6162 -0.0151  0.4689
 8547TIP3    H247133   3.997   4.621   1.723 -0.9166  1.2347 -0.2119
 8548TIP3   OH247134   0.932   4.691  15.429 -0.0584  0.1622 -0.0603
 8548TIP3    H147135   0.881   4.680  15.510 -0.3775  0.7308 -0.1757
 8548TIP3    H247136   0.948   4.602  15.399  0.4875 -0.0782  0.8860
 8549TIP3   OH247137   3.610   4.023   2.245 -0.1279  0.1477 -0.1551
 8549TIP3    H147138   3.592   3.975   2.326 -0.5887  1.3392  0.4815
 8549TIP3    H247139   3.705   4.022   2.237 -0.0589  0.2545  0.5575
 8550TIP3   OH247140   3.593   6.793   1.499 -0.6764  0.2317 -0.0675
 8550TIP3    H147141   3.531   6.862   1.521 -0.2324  0.2037  1.3837
 8550TIP3    H247142   3.674   6.839   1.477 -0.5801  0.2089  0.2279
 8551TIP3   OH247143   3.903   0.542  13.235 -0.1133 -0.0083  0.0229
 8551TIP3    H147144   3.873   0.614  13.179 -0.3997  1.8348  2.3919
 8551TIP3    H247145   3.998   0.549  13.233 -0.0994 -0.2934 -0.6161
 8552TIP3   OH247146   5.139   4.381  16.311  0.6039 -0.6498 -0.7747
 8552TIP3    H147147   5.099   4.296  16.327 -0.0551 -0.5577 -1.8110
 8552TIP3    H247148   5.098   4.440  16.374  1.1788 -1.1212  0.0536
 8553TIP3   OH247149   1.017   1.544  16.215  0.8337  0.1296  0.0387
 8553TIP3    H147150   1.067   1.545  16.134 -0.0687  3.1194 -0.5997
 8553TIP3    H247151   1.031   1.630  16.254  0.3519 -0.8191  2.5461
 8554TIP3   OH247152   4.883   0.588   2.058  0.1387 -0.3882 -0.9414
 8554TIP3    H147153   4.975   0.589   2.084 -0.3232  0.4005  0.8399
 8554TIP3    H247154   4.839   0.537   2.126 -0.5751 -2.0346 -2.5548
 8555TIP3   OH247155   2.384   0.882   4.122 -0.1923 -0.4842  0.7241
 8555TIP3    H147156   2.335   0.846   4.048  0.2316 -0.3999  0.3930
 8555TIP3    H247157   2.334   0.958   4.151 -1.0461 -1.2772  1.3647
 8556TIP3   OH247158   0.951   6.046  15.159  0.2319  0.1749 -0.2728
 8556TIP3    H147159   1.021   6.009  15.106  0.0804  0.8332 -0.9608
 8556TIP3    H247160   0.993   6.113  15.212  0.5999 -1.2706  1.3496
 8557TIP3   OH247161   5.997   4.913   2.149  0.0483 -0.5091  0.1589
 8557TIP3    H147162   5.944   4.992   2.155  0.0982 -0.5176  0.7159
 8557TIP3    H247163   6.087   4.943   2.160 -0.0927 -0.9495  3.2210
 8558TIP3   OH247164   0.521   2.453   5.492 -0.1585  0.1611 -0.2643
 8558TIP3    H147165   0.519   2.457   5.588 -3.6750 -2.5185 -0.0263
 8558TIP3    H247166   0.603   2.409   5.472  0.0006 -0.4886  1.6206
 8559TIP3   OH247167   1.678   5.944   4.818  0.2944  0.3714  0.2442
 8559TIP3    H147168   1.730   5.905   4.748  0.2972  0.2524  0.3117
 8559TIP3    H247169   1.734   5.939   4.896  0.3103  0.5480  0.2439
 8560TIP3   OH247170   3.604   6.134  14.841 -0.9502 -0.1416  0.2204
 8560TIP3    H147171   3.674   6.069  14.849 -1.6122 -0.9137 -0.1254
 8560TIP3    H247172   3.569   6.143  14.929 -0.0836  0.6463  0.5021
 8561TIP3   OH247173   2.814   1.707   4.735  0.2042 -0.0928  0.1426
 8561TIP3    H147174   2.877   1.767   4.775  0.6458 -1.2842  1.2507
 8561TIP3    H247175   2.866   1.632   4.707 -0.6927 -1.0179  0.9156
 8562TIP3   OH247176   4.526   5.861  13.508 -0.7720  0.2040  0.3942
 8562TIP3    H147177   4.469   5.854  13.432 -0.9214  0.2067  0.5063
 8562TIP3    H247178   4.493   5.937  13.556  0.1542  1.0271 -0.2356
 8563TIP3   OH247179   1.170   3.586  16.548  0.0568 -0.1108  0.2582
 8563TIP3    H147180   1.207   3.526  16.484 -0.8461  0.5547 -0.9413
 8563TIP3    H247181   1.169   3.671  16.503 -0.2547  0.4549  1.2926
 8564TIP3   OH247182   1.671   3.263   6.666 -0.2979  0.5376  0.3203
 8564TIP3    H147183   1.596   3.269   6.607  1.0818  1.9092 -1.4288
 8564TIP3    H247184   1.714   3.181   6.641 -0.1153  0.7558 -0.0908
 8565TIP3   OH247185   4.306   4.880   5.856 -0.1392 -1.2091  0.4342
 8565TIP3    H147186   4.321   4.842   5.943 -2.1200 -0.7727  1.0204
 8565TIP3    H247187   4.223   4.842   5.828 -2.4770  2.7561  1.2287
 8566TIP3   OH247188   5.239   4.565   4.582 -0.0510  0.4514 -0.5229
 8566TIP3    H147189   5.167   4.620   4.613  0.2525  0.4116  0.2800
 8566TIP3    H247190   5.202   4.515   4.509 -0.7067  0.7494 -0.3992
 8567TIP3   OH247191   4.471   4.328   6.057 -0.6543 -0.1471 -0.3213
 8567TIP3    H147192   4.505   4.357   6.142  0.2507  2.1821 -1.3893
 8567TIP3    H247193   4.383   4.364   6.053 -1.4522 -1.8908  0.3522
 8568TIP3   OH247194   1.969   3.746  12.329  0.3719  0.4866 -0.3202
 8568TIP3    H147195   1.945   3.654  12.340 -1.5732  1.0503  0.6901
 8568TIP3    H247196   1.990   3.754  12.236 -1.5852 -0.5566 -0.9180
 8569TIP3   OH247197   6.659   0.941  11.671 -0.6349 -0.2670  0.4669
 8569TIP3    H147198   6.677   0.895  11.753  0.1966 -0.9291 -0.0714
 8569TIP3    H247199   6.745   0.963  11.636 -0.5549 -4.3363 -2.6519
 8570TIP3   OH247200   2.065   5.816  15.899 -0.3826  0.7205  0.4243
 8570TIP3    H147201   2.132   5.803  15.832 -0.1725 -0.6455  0.8535
 8570TIP3    H247202   2.097   5.891  15.950  0.5419  0.4350  0.2896
 8571TIP3   OH247203   2.922   0.932   4.854 -0.3800  0.5639  0.4599
 8571TIP3    H147204   2.994   0.991   4.831 -0.1762  0.0395 -0.2995
 8571TIP3    H247205   2.880   0.973   4.930  0.5281  1.0334  0.7177
 8572TIP3   OH247206   3.491   0.196  14.114  0.6116 -0.1617  0.4078
 8572TIP3    H147207   3.502   0.272  14.057 -3.2284  0.0145 -0.3433
 8572TIP3    H247208   3.503   0.120  14.055  1.6477 -0.1179  0.5422
 8573TIP3   OH247209   0.314   4.320  14.222  0.1076  0.2416 -0.3867
 8573TIP3    H147210   0.257   4.389  14.188  0.0170  1.4009  1.9154
 8573TIP3    H247211   0.322   4.258  14.150 -1.9432  1.3406 -1.6617
 8574TIP3   OH247212   4.338   1.898  13.315 -0.5538 -0.2957  0.5069
 8574TIP3    H147213   4.281   1.974  13.306  0.6811  0.8016  1.4913
 8574TIP3    H247214   4.345   1.884  13.409 -2.9585 -3.4347  0.3801
 8575TIP3   OH247215   2.623   6.447  16.835  1.0325  0.1865 -0.2801
 8575TIP3    H147216   2.620   6.352  16.832 -1.2266  0.2028 -0.6942
 8575TIP3    H247217   2.565   6.471  16.907 -1.0346  1.2212 -2.1411
 8576TIP3   OH247218   1.196   0.706  11.253  0.0039  0.0686  0.9140
 8576TIP3    H147219   1.107   0.683  11.228 -0.0440 -1.0242  1.9882
 8576TIP3    H247220   1.227   0.763  11.182 -0.7794 -1.2870 -0.5914
 8577TIP3   OH247221   0.476   3.754  15.706  0.0219 -0.4491  1.0144
 8577TIP3    H147222   0.536   3.720  15.640  0.6814  1.5890  0.4919
 8577TIP3    H247223   0.431   3.827  15.663 -0.2175  0.3254  2.5128
 8578TIP3   OH247224   4.503   3.447  14.808 -0.1865 -0.1497 -0.1627
 8578TIP3    H147225   4.443   3.513  14.774  0.8878  0.4377 -0.9612
 8578TIP3    H247226   4.446   3.374  14.832 -1.1468  0.0256 -1.7411
 8579TIP3   OH247227   1.856   6.578  16.261  0.6173 -0.1247 -0.0117
 8579TIP3    H147228   1.920   6.638  16.300  0.7595  0.3967 -1.0282
 8579TIP3    H247229   1.781   6.581  16.320  1.0373  0.2316  0.5111
 8580TIP3   OH247230   3.356   1.923   5.493  0.4578  0.1721  0.5007
 8580TIP3    H147231   3.391   1.929   5.404 -1.2212  0.7936 -0.1605
 8580TIP3    H247232   3.414   1.861   5.537  0.8174 -0.8258 -1.2728
 8581TIP3   OH247233   2.293   4.903   1.732  0.1516 -0.3617  0.3323
 8581TIP3    H147234   2.210   4.929   1.693 -0.6290 -0.2554  1.9830
 8581TIP3    H247235   2.359   4.930   1.668 -1.1071 -1.3232 -1.4619
 8582TIP3   OH247236   1.400   4.443  16.473  0.1121 -0.1008 -0.3400
 8582TIP3    H147237   1.415   4.388  16.550 -1.0687 -2.5167 -1.7267
 8582TIP3    H247238   1.335   4.507  16.502  0.3674 -0.3853  0.9315
 8583TIP3   OH247239   2.224   4.496   6.258  0.1546  0.4659  0.6252
 8583TIP3    H147240   2.171   4.440   6.315 -0.3015 -0.1268 -0.3438
 8583TIP3    H247241   2.314   4.471   6.276  0.0371  0.5342  1.3278
 8584TIP3   OH247242   6.522   5.084   4.450 -0.5171  0.0996  0.2983
 8584TIP3    H147243   6.481   5.063   4.367 -2.9285  1.8911  0.9517
 8584TIP3    H247244   6.546   4.998   4.487 -1.2633 -0.8406 -1.3107
 8585TIP3   OH247245   6.766   2.781   3.957 -0.0152  0.6234  0.1471
 8585TIP3    H147246   6.720   2.698   3.944 -3.4647  2.3548  0.0659
 8585TIP3    H247247   6.752   2.828   3.875  2.2667  1.1885  0.0266
 8586TIP3   OH247248   3.424   5.015   1.667  0.1086  1.1234  0.2808
 8586TIP3    H147249   3.476   5.086   1.703  0.2286  1.3179 -0.2604
 8586TIP3    H247250   3.486   4.964   1.614 -0.0187  0.7288  0.5015
 8587TIP3   OH247251   2.099   3.319  16.547 -0.1498 -0.1535  0.2236
 8587TIP3    H147252   2.181   3.362  16.525 -1.3821  1.6929 -1.0305
 8587TIP3    H247253   2.043   3.389  16.579 -2.1479 -0.8345 -1.5990
 8588TIP3   OH247254   4.387   1.502   3.145 -0.4956 -0.5593 -0.2231
 8588TIP3    H147255   4.369   1.593   3.167 -1.1528 -0.3984 -1.3458
 8588TIP3    H247256   4.338   1.451   3.211  1.4473 -0.1627  1.6488
 8589TIP3   OH247257   4.993   5.653   2.283 -0.2062 -0.4939  0.3344
 8589TIP3    H147258   5.055   5.582   2.297 -0.2343 -0.5093  0.3828
 8589TIP3    H247259   4.922   5.613   2.233 -1.4852 -1.1921  2.5522
 8590TIP3   OH247260   3.114   0.798  16.748  0.4568  0.2876 -0.2429
 8590TIP3    H147261   3.145   0.761  16.666  0.2820  1.0495 -0.6606
 8590TIP3    H247262   3.026   0.830  16.729  0.6050  0.9206  0.1011
 8591TIP3   OH247263   0.830   1.217  14.976 -0.2157  0.3467  0.1082
 8591TIP3    H147264   0.839   1.122  14.965 -1.8279  0.2180 -0.3514
 8591TIP3    H247265   0.911   1.253  14.940  0.8330 -0.8762  1.1108
 8592TIP3   OH247266   5.569   4.036   0.715 -0.1021 -0.2964 -0.0738
 8592TIP3    H147267   5.493   4.037   0.774 -0.4213 -0.5979 -0.4742
 8592TIP3    H247268   5.543   4.091   0.642  0.6432  0.8335  0.4826
 8593TIP3   OH247269   5.506   2.755  15.992 -0.4719 -0.7363 -0.0292
 8593TIP3    H147270   5.445   2.681  15.990 -0.6670 -0.6402  1.5870
 8593TIP3    H247271   5.467   2.818  16.052 -0.0342  0.4744 -0.9603
 8594TIP3   OH247272   0.168   0.758   2.307 -0.1447 -0.7488 -0.8149
 8594TIP3    H147273   0.078   0.788   2.296 -0.2572 -1.4561 -2.0348
 8594TIP3    H247274   0.217   0.836   2.330 -0.3614  0.5416 -4.2562
 8595TIP3   OH247275   3.280   3.826  11.562 -0.4695  0.0873  0.3075
 8595TIP3    H147276   3.187   3.804  11.555 -0.4424  0.1338 -0.2483
 8595TIP3    H247277   3.286   3.880  11.641 -0.6686 -1.1694  1.2092
 8596TIP3   OH247278   4.861   4.530  16.439 -0.2370 -0.4390 -0.5598
 8596TIP3    H147279   4.804   4.577  16.500  0.6418 -1.2073  0.8896
 8596TIP3    H247280   4.835   4.439  16.447 -0.1415 -0.5527 -1.3974
 8597TIP3   OH247281   5.964   4.399  13.217 -0.4212  0.2247  0.1187
 8597TIP3    H147282   6.000   4.488  13.220  1.9557 -0.7002  0.6654
 8597TIP3    H247283   6.003   4.360  13.139  0.0732 -0.9417  0.9338
 8598TIP3   OH247284   1.006   1.941  16.562  0.3014 -0.7349  0.1454
 8598TIP3    H147285   0.961   1.970  16.641  2.2641  1.3763  0.5918
 8598TIP3    H247286   0.979   2.004  16.495 -0.3679 -1.7665 -0.5958
 8599TIP3   OH247287   1.930   5.202   0.127  0.0047 -0.5890  0.3951
 8599TIP3    H147288   2.020   5.221   0.151  0.0798  1.3160 -1.1712
 8599TIP3    H247289   1.927   5.214   0.032 -1.5317 -2.2792  0.1696
 8600TIP3   OH247290   6.605   4.839  13.915 -0.3962 -0.0563 -0.0034
 8600TIP3    H147291   6.590   4.817  14.007  2.1429  2.9209  1.2967
 8600TIP3    H247292   6.569   4.927  13.905  2.0920  0.9566 -0.8995
 8601TIP3   OH247293   1.630   4.096  16.114  0.0143  0.6413  0.0213
 8601TIP3    H147294   1.572   4.024  16.090 -0.7187  0.7680  1.3123
 8601TIP3    H247295   1.663   4.129  16.030  0.0709 -0.9369 -0.6136
 8602TIP3   OH247296   5.547   6.540   2.884  0.1192  0.3944  0.0889
 8602TIP3    H147297   5.455   6.560   2.904 -0.7520 -2.3935 -0.6605
 8602TIP3    H247298   5.589   6.534   2.970 -0.6589  0.6148  0.4985
 8603TIP3   OH247299   0.381   6.365  12.872  0.3149 -0.2483 -0.4193
 8603TIP3    H147300   0.336   6.412  12.802  1.8397 -0.0553 -1.3243
 8603TIP3    H247301   0.383   6.274  12.842 -1.4249 -0.7015  0.6917
 8604TIP3   OH247302   2.731   5.507   6.147  0.4565  0.2721 -0.2254
 8604TIP3    H147303   2.728   5.600   6.124  0.7693  0.2843 -0.2275
 8604TIP3    H247304   2.804   5.472   6.095 -0.2444 -0.1718 -0.9211
 8605TIP3   OH247305   3.904   5.049   2.762 -0.1423  0.2670 -0.0268
 8605TIP3    H147306   3.858   5.043   2.846 -0.4259  1.9413 -0.0195
 8605TIP3    H247307   3.885   4.966   2.718 -0.7465 -0.2608  1.1815
 8606TIP3   OH247308   2.223   6.125  12.041 -0.3794  0.8213 -0.0283
 8606TIP3    H147309   2.305   6.164  12.071 -0.4513  0.8032  0.1939
 8606TIP3    H247310   2.251   6.061  11.975 -0.2381  1.0152 -0.1594
 8607TIP3   OH247311   1.301   0.466   0.007  0.3984  0.3999  0.5341
 8607TIP3    H147312   1.300   0.490   0.100  0.5657  3.1585 -0.0920
 8607TIP3    H247313   1.368   0.523  -0.031 -1.0864  0.8205 -1.6035
 8608TIP3   OH247314   5.832   1.356  12.667  0.1703 -0.4882  0.0287
 8608TIP3    H147315   5.902   1.374  12.604 -1.1232  0.0631 -1.3104
 8608TIP3    H247316   5.835   1.430  12.727  0.5636 -0.3370 -0.1699
 8609TIP3   OH247317   1.992   1.614   1.746 -0.1267 -0.0984  0.4988
 8609TIP3    H147318   2.059   1.633   1.812  0.7099 -0.0195 -0.3490
 8609TIP3    H247319   1.964   1.524   1.766 -0.6865  0.3000  1.6163
 8610TIP3   OH247320   0.365   4.401  11.924  0.2000  0.4392  0.3243
 8610TIP3    H147321   0.312   4.441  11.855 -0.8872 -0.3093  0.7062
 8610TIP3    H247322   0.455   4.416  11.896 -0.2112  0.9303 -0.8060
 8611TIP3   OH247323   4.844   1.455  16.801 -0.3723  0.5030  0.3666
 8611TIP3    H147324   4.939   1.468  16.797 -0.2052 -0.7018  0.0789
 8611TIP3    H247325   4.814   1.464  16.711 -0.3136 -0.5437  0.2281
 8612TIP3   OH247326   0.451   4.200  10.915  0.2530 -0.3870 -0.4651
 8612TIP3    H147327   0.420   4.250  10.839  0.4918  0.4433 -0.0226
 8612TIP3    H247328   0.544   4.220  10.921  0.6468 -1.9122 -1.0485
 8613TIP3   OH247329   2.894   4.208   3.049 -0.0694  0.1357  0.1564
 8613TIP3    H147330   2.878   4.118   3.078 -2.0322  0.6186  0.7032
 8613TIP3    H247331   2.898   4.258   3.130 -0.5190  0.7645 -0.2039
 8614TIP3   OH247332   1.182   0.276   6.680  0.0355 -0.9687 -0.0839
 8614TIP3    H147333   1.227   0.360   6.674 -0.5114 -0.5675  1.1968
 8614TIP3    H247334   1.090   0.297   6.664 -0.1507 -1.2626  0.5849
 8615TIP3   OH247335   3.858   5.373   4.002 -0.2822 -0.4048  0.3338
 8615TIP3    H147336   3.837   5.286   3.969  1.1907 -0.2989 -1.0390
 8615TIP3    H247337   3.790   5.430   3.965 -0.6388 -0.8202  0.3452
 8616TIP3   OH247338   0.081   6.426   2.216  0.1401 -0.1122  0.3878
 8616TIP3    H147339   0.030   6.453   2.292  0.2372 -0.5316  0.6034
 8616TIP3    H247340   0.036   6.467   2.142 -0.4470 -0.3788  0.5858
 8617TIP3   OH247341   5.540   2.143   1.701  0.3719  0.2794  0.4399
 8617TIP3    H147342   5.552   2.109   1.790  1.8058 -0.9485 -0.1797
 8617TIP3    H247343   5.476   2.084   1.661  1.3489 -0.5215  0.0050
 8618TIP3   OH247344   2.310   1.846   1.028  0.1711  0.2067  0.5670
 8618TIP3    H147345   2.274   1.809   0.947  0.9268 -0.0264  0.3327
 8618TIP3    H247346   2.309   1.773   1.090  1.4174 -0.1627  0.1814
 8619TIP3   OH247347   5.228   3.062   4.879 -0.0898 -0.0489 -0.0903
 8619TIP3    H147348   5.303   3.004   4.892  0.3779  0.6717  0.4385
 8619TIP3    H247349   5.155   3.015   4.918  0.3775 -0.0682  0.7744
 8620TIP3   OH247350   0.333   0.128   1.497 -0.2043  0.1529  0.3174
 8620TIP3    H147351   0.250   0.160   1.461 -0.4126 -0.1895  0.4835
 8620TIP3    H247352   0.306   0.066   1.566  0.1256 -2.9633 -2.1140
 8621TIP3   OH247353   2.867   6.253  15.161 -0.0243 -0.0229  0.1888
 8621TIP3    H147354   2.774   6.231  15.160 -0.2948  1.0403 -1.1192
 8621TIP3    H247355   2.912   6.171  15.145 -0.6472 -0.7887  2.0723
 8622TIP3   OH247356   1.123   6.440   3.221  0.8169 -0.1411  0.3091
 8622TIP3    H147357   1.145   6.369   3.161 -1.5897 -0.8993  0.2336
 8622TIP3    H247358   1.082   6.397   3.296  0.2580  1.0945  0.7470
 8623TIP3   OH247359   0.887   4.956   2.624 -0.6385 -0.9928 -0.3403
 8623TIP3    H147360   0.848   5.004   2.697 -0.3010  0.2674 -0.9577
 8623TIP3    H247361   0.977   4.988   2.619 -0.7741 -0.7181 -1.5589
 8624TIP3   OH247362   2.786   1.009   3.526  0.0995 -0.1280 -0.2466
 8624TIP3    H147363   2.799   1.085   3.584 -1.9773  0.2845 -0.2194
 8624TIP3    H247364   2.835   1.031   3.447 -0.8308  1.5166 -0.4223
 8625TIP3   OH247365   3.665   0.350  15.642  0.5198  0.4640 -0.0024
 8625TIP3    H147366   3.749   0.380  15.675  0.3745  1.0365 -0.1412
 8625TIP3    H247367   3.625   0.428  15.604 -0.3081  0.3189  0.5508
 8626TIP3   OH247368   6.597   5.771   5.605 -0.3351  0.3703 -0.8286
 8626TIP3    H147369   6.643   5.850   5.578  0.3229  0.4817  0.5687
 8626TIP3    H247370   6.665   5.714   5.641 -0.7458 -0.9982 -2.1324
 8627TIP3   OH247371   2.038   1.404  15.894 -0.2168  0.3209 -0.6593
 8627TIP3    H147372   2.036   1.391  15.799  0.8155  0.9619 -0.7896
 8627TIP3    H247373   2.058   1.317  15.930  0.0560  0.2081 -1.0772
 8628TIP3   OH247374   5.094   5.599  11.548  0.2169  0.3540  0.4799
 8628TIP3    H147375   5.152   5.674  11.558  1.2971 -0.6716  2.4375
 8628TIP3    H247376   5.136   5.544  11.482  0.0255  0.8877 -0.0993
 8629TIP3   OH247377   0.365   1.407  13.353 -0.5028 -0.3627 -0.1378
 8629TIP3    H147378   0.388   1.322  13.390  0.2499 -0.7032 -1.3604
 8629TIP3    H247379   0.386   1.400  13.260  1.8265  1.9365  0.1115
 8630TIP3   OH247380   5.317   6.354  15.148 -0.3457 -0.0405 -0.1142
 8630TIP3    H147381   5.322   6.356  15.243  1.2805  1.9997 -0.1592
 8630TIP3    H247382   5.364   6.275  15.122  0.4563  0.1361  0.7604
 8631TIP3   OH247383   4.564   0.546   4.780 -0.2623 -0.0463 -0.0050
 8631TIP3    H147384   4.484   0.587   4.813 -0.2236  0.6606 -0.7536
 8631TIP3    H247385   4.635   0.589   4.828 -0.2678  0.2223 -0.2327
 8632TIP3   OH247386   4.372   6.477  12.447  0.5095 -0.0926  0.2047
 8632TIP3    H147387   4.433   6.494  12.375 -0.0531 -0.3790 -0.3502
 8632TIP3    H247388   4.297   6.533  12.428 -0.2959 -1.3037 -0.2786
 8633TIP3   OH247389   5.073   4.880   4.662  0.4457 -0.6711 -0.3094
 8633TIP3    H147390   5.010   4.948   4.637  0.2425 -0.6176  0.3264
 8633TIP3    H247391   5.037   4.843   4.743  2.9793  1.7937  2.1622
 8634TIP3   OH247392   4.398   5.935   5.017 -0.1987 -0.2800 -0.0587
 8634TIP3    H147393   4.397   5.841   5.034 -0.2930 -0.0378  1.4340
 8634TIP3    H247394   4.332   5.970   5.077 -0.8217  0.6481 -1.2501
 8635TIP3   OH247395   5.113   5.608   5.835 -0.2839 -0.3208  0.3472
 8635TIP3    H147396   5.128   5.681   5.775  0.6661 -0.4455  0.4131
 8635TIP3    H247397   5.201   5.573   5.852 -0.8022 -2.2825 -0.6772
 8636TIP3   OH247398   0.169   3.372  14.426 -0.0616 -0.3614 -0.5154
 8636TIP3    H147399   0.134   3.353  14.513  1.6848 -0.3949  0.2146
 8636TIP3    H247400   0.188   3.465  14.428  1.3628 -0.6345 -0.3122
 8637TIP3   OH247401   4.893   0.640   0.590  0.1456  0.0764  0.4082
 8637TIP3    H147402   4.975   0.662   0.634  0.7173 -0.3828 -0.4147
 8637TIP3    H247403   4.829   0.701   0.628  1.1492  1.3788  0.0828
 8638TIP3   OH247404   6.550   2.481   1.347  0.4801  0.2424 -0.1598
 8638TIP3    H147405   6.484   2.509   1.284  0.7622 -0.5377 -0.8280
 8638TIP3    H247406   6.632   2.520   1.316  0.4752  0.5387  0.1981
 8639TIP3   OH247407   5.037   3.001  12.386  0.0127  0.0704 -0.1940
 8639TIP3    H147408   5.114   3.006  12.329 -0.3703 -0.1141 -0.7399
 8639TIP3    H247409   5.031   2.909  12.411 -0.1892  0.0360 -0.3727
 8640TIP3   OH247410   4.489   3.775  12.401  0.0079  0.0762  0.4740
 8640TIP3    H147411   4.402   3.789  12.364 -0.0323 -0.8060  0.1959
 8640TIP3    H247412   4.546   3.836  12.353 -0.3280  0.1151  0.1185
 8641TIP3   OH247413   2.674   6.729   1.280 -0.2542  0.3468 -0.0564
 8641TIP3    H147414   2.742   6.788   1.249 -1.1025  0.8703 -0.9557
 8641TIP3    H247415   2.717   6.643   1.285  0.6949  0.8349  0.2401
 8642TIP3   OH247416   0.223   3.571   3.852  0.3280  0.6079  0.7256
 8642TIP3    H147417   0.217   3.480   3.882  0.2291  0.7046  1.0082
 8642TIP3    H247418   0.238   3.621   3.932 -1.3941  1.0246  0.8305
 8643TIP3   OH247419   0.403   3.924  15.142  0.1472 -0.3186 -0.1438
 8643TIP3    H147420   0.349   3.847  15.160 -3.2514  1.7363 -0.7551
 8643TIP3    H247421   0.418   3.964  15.227  0.6096 -0.7768  0.0006
 8644TIP3   OH247422   0.464   0.907  11.857 -0.5097 -0.0908 -0.1438
 8644TIP3    H147423   0.379   0.935  11.824 -1.6901 -1.2827  1.7506
 8644TIP3    H247424   0.458   0.915  11.952  0.2699 -3.2420  0.2962
 8645TIP3   OH247425   0.041   5.352  16.245 -0.4197  0.0277 -0.3345
 8645TIP3    H147426   0.005   5.433  16.209  0.7947  0.5130 -0.5253
 8645TIP3    H247427   0.102   5.321  16.177  0.7143  0.1088  0.6105
 8646TIP3   OH247428   2.359   0.894   2.262  0.7180 -0.7985 -0.2793
 8646TIP3    H147429   2.424   0.905   2.331  0.2444 -3.8437  0.8119
 8646TIP3    H247430   2.275   0.895   2.307 -0.0805  2.5177 -1.5967
 8647TIP3   OH247431   1.613   5.284  15.976  0.2150 -0.1646 -0.7767
 8647TIP3    H147432   1.597   5.374  15.947  0.0331  0.5504  1.3755
 8647TIP3    H247433   1.680   5.293  16.043 -0.1775 -1.5937 -0.1691
 8648TIP3   OH247434   1.948   6.265   1.925 -0.3584  0.1323  0.1246
 8648TIP3    H147435   2.009   6.326   1.967 -0.6133 -0.1937  0.9828
 8648TIP3    H247436   1.864   6.311   1.926  0.0271  1.0120 -1.9810
 8649TIP3   OH247437   5.817   5.155  14.107 -0.2635 -0.2280  0.4083
 8649TIP3    H147438   5.839   5.122  14.194  1.0489 -0.3718  0.0390
 8649TIP3    H247439   5.786   5.245  14.123 -1.1835 -0.6548  1.1249
 8650TIP3   OH247440   2.585   3.097   2.850  0.2467  0.3113 -0.2437
 8650TIP3    H147441   2.554   3.018   2.806 -2.3345  1.6626 -1.0898
 8650TIP3    H247442   2.530   3.104   2.928 -0.2200  1.7205 -0.6652
 8651TIP3   OH247443   5.419   1.864  15.415 -0.0560  0.0346 -0.0607
 8651TIP3    H147444   5.449   1.801  15.350  0.9225  2.0990 -1.7233
 8651TIP3    H247445   5.390   1.940  15.364 -0.5254  1.2336  1.8749
 8652TIP3   OH247446   4.920   3.757   3.212 -0.3314  0.2828  0.6446
 8652TIP3    H147447   4.914   3.692   3.282  1.0751  0.5248  1.0195
 8652TIP3    H247448   4.887   3.711   3.135 -0.1728 -0.6052  1.0838
 8653TIP3   OH247449   1.912   6.791   6.495  0.0746 -0.4908 -0.6025
 8653TIP3    H147450   1.891   6.714   6.548 -1.8676  0.7128  0.5038
 8653TIP3    H247451   1.830   6.814   6.452  1.1045 -0.1618 -2.5089
 8654TIP3   OH247452   3.437   4.030  12.116 -0.1951  0.4295 -0.2233
 8654TIP3    H147453   3.349   4.007  12.086  0.6731 -2.5455 -0.8983
 8654TIP3    H247454   3.449   3.978  12.196  0.9045  0.8526 -0.0947
 8655TIP3   OH247455   2.335   0.709   5.186  0.4095  0.1244 -0.8010
 8655TIP3    H147456   2.262   0.764   5.215 -0.1318 -0.1540 -1.6217
 8655TIP3    H247457   2.391   0.769   5.136 -1.0832 -0.3945 -3.2397
 8656TIP3   OH247458   5.686   2.063  12.266  0.3476 -0.5871 -0.0176
 8656TIP3    H147459   5.747   2.122  12.311  0.9200 -1.2696  0.1360
 8656TIP3    H247460   5.630   2.121  12.214 -0.6719  0.2696  1.9451
 8657TIP3   OH247461   4.340   5.611  16.339  0.1654 -0.0863 -0.4615
 8657TIP3    H147462   4.310   5.683  16.394  1.1277 -0.1523  0.1719
 8657TIP3    H247463   4.383   5.550  16.400  1.1998 -0.1846 -1.2599
 8658TIP3   OH247464   6.520   0.790  16.636 -0.1411  0.3887 -0.2184
 8658TIP3    H147465   6.449   0.836  16.592 -2.8106 -1.5563  1.7342
 8658TIP3    H247466   6.497   0.697  16.629  2.8511 -0.4282 -0.4417
 8659TIP3   OH247467   1.426   3.517   4.956  0.4053 -0.0062  0.2981
 8659TIP3    H147468   1.508   3.568   4.956  0.4673 -0.1062  0.1106
 8659TIP3    H247469   1.366   3.568   4.902  0.0942  0.4616  1.0577
 8660TIP3   OH247470   0.786   2.637   5.506  0.3836 -0.0961 -0.6485
 8660TIP3    H147471   0.865   2.588   5.532  2.0373  1.8284 -1.7345
 8660TIP3    H247472   0.750   2.588   5.433 -1.6341 -2.9815  2.0111
 8661TIP3   OH247473   3.956   4.108  16.189 -0.3770 -0.6162 -0.1650
 8661TIP3    H147474   3.930   4.040  16.127 -2.5603 -0.1266  0.1301
 8661TIP3    H247475   4.002   4.061  16.259 -1.4154 -1.7320 -0.1995
 8662TIP3   OH247476   5.268   5.529   0.728  0.7949  0.3760  0.1730
 8662TIP3    H147477   5.213   5.608   0.730 -0.7064 -0.6341  0.7325
 8662TIP3    H247478   5.296   5.517   0.819  1.0606  0.2873  0.0799
 8663TIP3   OH247479   6.272   5.033  12.076 -0.4548 -0.0138 -0.6235
 8663TIP3    H147480   6.180   5.022  12.052 -0.2683 -0.7636 -1.0137
 8663TIP3    H247481   6.280   4.986  12.159 -0.2911 -0.4794 -0.8975
 8664TIP3   OH247482   3.318   5.156  14.951  0.3395  0.5136  0.5258
 8664TIP3    H147483   3.309   5.166  15.046 -1.1625  1.1464  0.3454
 8664TIP3    H247484   3.333   5.062  14.939 -1.7267  0.0357  1.2836
 8665TIP3   OH247485   1.700   0.122  12.024  0.4129 -0.3409  0.1929
 8665TIP3    H147486   1.623   0.147  11.972 -0.0025  1.4278  1.5787
 8665TIP3    H247487   1.724   0.035  11.990  0.0356  0.5813 -2.7727
 8666TIP3   OH247488   1.759   0.979  11.063  0.3627 -0.4587  0.1014
 8666TIP3    H147489   1.753   1.015  11.152 -1.4231  2.1283 -0.9267
 8666TIP3    H247490   1.840   1.017  11.028  0.7942 -1.0592  0.4334
 8667TIP3   OH247491   2.166   0.256  13.800  0.8169 -0.3391  0.0300
 8667TIP3    H147492   2.244   0.204  13.819  1.0400  0.5124  1.6468
 8667TIP3    H247493   2.151   0.307  13.880  0.0129  1.3098 -1.1144
 8668TIP3   OH247494   5.457   0.984   1.747  0.6626 -0.2769 -0.2236
 8668TIP3    H147495   5.370   0.972   1.783  1.0982  1.0257  1.4169
 8668TIP3    H247496   5.465   1.078   1.733  1.2960 -0.5341 -1.7368
 8669TIP3   OH247497   0.922   0.083  17.059  0.1704 -0.2907 -0.2810
 8669TIP3    H147498   0.913   0.130  17.142 -1.3252 -3.2577  1.3778
 8669TIP3    H247499   1.006   0.037  17.066 -0.1891 -0.9402 -0.1648
 8670TIP3   OH247500   1.124   1.271   1.076 -0.5325 -0.1097 -0.2481
 8670TIP3    H147501   1.117   1.176   1.064 -1.0209  0.2255 -3.5914
 8670TIP3    H247502   1.120   1.307   0.988  2.3553  2.9202  0.6305
 8671TIP3   OH247503   0.405   2.679   1.067 -0.3245  0.2386  0.2078
 8671TIP3    H147504   0.344   2.639   1.130 -1.4627 -0.0109 -1.0160
 8671TIP3    H247505   0.357   2.679   0.984  0.7253  1.5897 -0.4240
 8672TIP3   OH247506   3.019   1.756  16.591  0.1294 -0.4740  0.3024
 8672TIP3    H147507   3.020   1.846  16.623 -1.1038 -0.6108  0.7810
 8672TIP3    H247508   2.946   1.754  16.530  0.9794 -0.8283 -0.7233
 8673TIP3   OH247509   4.750   2.925  16.305  0.3461 -0.0164  0.3859
 8673TIP3    H147510   4.743   2.942  16.211  0.0508 -0.3383  0.3472
 8673TIP3    H247511   4.843   2.940  16.324  0.1085  1.5701  0.3598
 8674TIP3   OH247512   2.226   6.568  12.409  0.4404  0.0088  0.4557
 8674TIP3    H147513   2.190   6.534  12.327  1.5673  0.4256 -0.2354
 8674TIP3    H247514   2.258   6.490  12.455 -1.7634 -0.4402  1.3477
 8675TIP3   OH247515   6.340   1.830  16.925 -0.8570 -0.1527  0.4929
 8675TIP3    H147516   6.337   1.764  16.855 -1.1020  1.3460 -0.9566
 8675TIP3    H247517   6.292   1.905  16.890  0.8693  1.4567  1.3955
 8676TIP3   OH247518   0.000   1.370  13.628 -0.0325  0.1084 -0.1770
 8676TIP3    H147519   0.083   1.417  13.620  0.7234 -1.2166 -0.4737
 8676TIP3    H247520  -0.048   1.392  13.548 -0.3970  1.6214  0.4237
 8677TIP3   OH247521   5.375   1.434   0.949  0.2010  0.5741  0.2532
 8677TIP3    H147522   5.419   1.519   0.954 -0.9169  1.1160  1.8954
 8677TIP3    H247523   5.297   1.449   0.896  0.6483  0.2456 -0.5113
 8678TIP3   OH247524   6.326   4.879   0.093 -0.0759  0.7118 -0.2786
 8678TIP3    H147525   6.241   4.884   0.049  0.1897 -1.7707 -1.2341
 8678TIP3    H247526   6.314   4.813   0.161  1.4838 -0.9909 -1.5583
 8679TIP3   OH247527   2.561   3.517  12.224  0.3197 -0.0799  0.2043
 8679TIP3    H147528   2.593   3.427  12.228  0.6283 -0.1225 -1.9263
 8679TIP3    H247529   2.545   3.541  12.315 -0.2267 -2.4383  0.7870
 8680TIP3   OH247530   5.791   0.028   5.890  0.4516 -0.1447  0.4020
 8680TIP3    H147531   5.752  -0.002   5.972 -1.5827  1.1490 -0.0216
 8680TIP3    H247532   5.816  -0.052   5.844 -0.4141 -0.9704  1.3211
 8681TIP3   OH247533   5.977   0.098   1.476  0.0050 -0.0158  0.2028
 8681TIP3    H147534   5.984   0.008   1.510 -1.8560  0.6898  2.7268
 8681TIP3    H247535   6.068   0.126   1.464  0.6381 -1.8884  0.2606
 8682TIP3   OH247536   5.885   2.856   0.889 -0.4553 -0.3822  0.0242
 8682TIP3    H147537   5.955   2.922   0.898 -0.3965 -0.4117 -0.2177
 8682TIP3    H247538   5.862   2.859   0.796 -0.5816 -0.5727  0.0512
 8683TIP3   OH247539   3.405   4.696   1.193 -0.1074  0.1930  0.0774
 8683TIP3    H147540   3.406   4.790   1.212  2.0161  0.1900  0.2038
 8683TIP3    H247541   3.484   4.662   1.235  0.3803 -1.2636 -1.8885
 8684TIP3   OH247542   3.296   5.963  17.181  0.0607  0.4678 -0.1935
 8684TIP3    H147543   3.258   5.910  17.251  0.1399  0.7143  0.0399
 8684TIP3    H247544   3.318   6.046  17.224  0.3963  0.5082 -0.4384
 8685TIP3   OH247545   5.246   0.621   0.540  0.1501  0.5056  0.3712
 8685TIP3    H147546   5.198   0.678   0.600 -0.1779  0.6387 -0.0190
 8685TIP3    H247547   5.299   0.565   0.598  0.7247  1.4129  0.7397
 8686TIP3   OH247548   4.346   2.012   1.627  0.2780 -0.0051 -0.9355
 8686TIP3    H147549   4.336   2.093   1.676 -0.1884 -0.0843 -0.8913
 8686TIP3    H247550   4.259   1.971   1.631 -0.0133  0.3830 -2.5340
 8687TIP3   OH247551   0.768   6.305   4.818  0.4512  0.2396 -0.1363
 8687TIP3    H147552   0.673   6.300   4.817  0.1319  2.8045  2.9861
 8687TIP3    H247553   0.795   6.223   4.859  0.1545 -2.5926 -4.7954
 8688TIP3   OH247554   4.991   5.422   4.609 -0.0392  0.0815  0.7243
 8688TIP3    H147555   4.979   5.328   4.626  0.9679 -0.2007 -0.0268
 8688TIP3    H247556   5.031   5.455   4.689 -1.4009  0.1092  1.4226
 8689TIP3   OH247557   4.769   3.883  11.255  0.2648 -0.3666 -0.0087
 8689TIP3    H147558   4.832   3.954  11.270 -2.3600  2.2690 -0.4376
 8689TIP3    H247559   4.737   3.898  11.166 -1.7975 -0.8240  0.6016
 8690TIP3   OH247560   0.075   4.023   3.431 -0.2898 -0.0076  0.0020
 8690TIP3    H147561   0.025   3.958   3.480 -0.2525 -1.3755 -1.6427
 8690TIP3    H247562   0.167   4.000   3.446 -0.2822 -1.5947 -2.0316
 8691TIP3   OH247563   4.363   3.156   2.172 -0.3844 -0.7652 -0.5517
 8691TIP3    H147564   4.323   3.234   2.132  0.1378  0.5321  1.2991
 8691TIP3    H247565   4.445   3.188   2.210 -1.0671 -1.7294  1.9642
 8692TIP3   OH247566   3.792   3.045  15.072  0.7533  0.2023 -0.2782
 8692TIP3    H147567   3.724   3.075  15.133 -0.6183  0.8606 -2.0406
 8692TIP3    H247568   3.787   2.949  15.077 -0.7233  0.2231 -0.7603
 8693TIP3   OH247569   0.357   1.196  12.049  0.0608 -0.0306 -0.0412
 8693TIP3    H147570   0.365   1.110  12.091 -2.2508 -0.4075 -0.2802
 8693TIP3    H247571   0.349   1.176  11.956  0.6119  0.5315 -0.2152
 8694TIP3   OH247572   0.410   3.973   0.324 -0.2533 -0.5876  0.4909
 8694TIP3    H147573   0.432   4.014   0.240 -1.5553  1.0099  0.8588
 8694TIP3    H247574   0.349   3.903   0.302 -1.4719  0.5376  0.1329
 8695TIP3   OH247575   3.566   4.528   3.816  0.6715  0.0993 -0.6566
 8695TIP3    H147576   3.511   4.586   3.869  1.0827 -0.9543  0.9848
 8695TIP3    H247577   3.655   4.562   3.827  0.4989  1.4665 -2.8652
 8696TIP3   OH247578   4.591   4.089   2.480  0.1446  0.1781 -0.1360
 8696TIP3    H147579   4.554   4.006   2.451 -0.1812 -0.0415  0.8596
 8696TIP3    H247580   4.640   4.122   2.405  1.8076 -1.7853 -0.0007
 8697TIP3   OH247581   3.386   4.034   2.509 -0.3695  0.2236 -0.7171
 8697TIP3    H147582   3.461   4.061   2.562  0.5563  0.0588 -1.9024
 8697TIP3    H247583   3.310   4.056   2.563  0.3898  3.0082 -0.6358
 8698TIP3   OH247584   0.639   5.863  17.021  0.2205 -0.1322  0.6320
 8698TIP3    H147585   0.716   5.817  16.988  0.9232  1.1035  0.4698
 8698TIP3    H247586   0.639   5.947  16.973 -2.0476 -0.6615 -0.4422
 8699TIP3   OH247587   4.436   0.743  13.880 -0.3471 -0.4319 -0.7555
 8699TIP3    H147588   4.455   0.837  13.887 -1.4470 -0.0006 -2.9032
 8699TIP3    H247589   4.521   0.701  13.893  0.2289  0.8669 -0.1010
 8700TIP3   OH247590   5.388   6.486  11.706  0.1372 -0.2564  0.1007
 8700TIP3    H147591   5.326   6.506  11.636 -1.6563 -0.8607  1.4203
 8700TIP3    H247592   5.435   6.568  11.721 -0.8573  0.4390 -0.4702
 8701TIP3   OH247593   3.951   4.253   1.185 -0.0381 -0.1256 -0.1889
 8701TIP3    H147594   3.918   4.164   1.176  0.7058 -0.4334  0.0490
 8701TIP3    H247595   3.911   4.285   1.266  0.3918 -0.5650  0.2050
 8702TIP3   OH247596   2.656   2.409  10.444 -0.8575  0.3146 -0.1144
 8702TIP3    H147597   2.573   2.449  10.416 -0.6473  0.0108 -1.2338
 8702TIP3    H247598   2.637   2.315  10.447 -0.7225  0.2977  0.2401
 8703TIP3   OH247599   5.746   4.891  15.007 -0.3757 -0.2681 -0.7177
 8703TIP3    H147600   5.665   4.849  14.979 -1.9666 -0.5601  3.5891
 8703TIP3    H247601   5.722   4.982  15.023  0.0173 -0.4211  0.8765
 8704TIP3   OH247602   6.389   5.245   3.128 -0.2109 -0.3765 -0.0739
 8704TIP3    H147603   6.458   5.188   3.093 -1.3048 -1.5939 -0.3468
 8704TIP3    H247604   6.310   5.191   3.125 -1.0146  0.6831  1.0479
 8705TIP3   OH247605   6.464   2.269   2.340  0.2515  0.2325 -0.0169
 8705TIP3    H147606   6.403   2.203   2.306  2.0477 -2.2998  1.2664
 8705TIP3    H247607   6.438   2.350   2.297 -2.7010 -1.0868 -1.0289
 8706TIP3   OH247608   4.483   4.912  16.997 -0.4482  0.4924 -0.3418
 8706TIP3    H147609   4.527   4.996  17.003 -0.1055  0.3568 -0.9254
 8706TIP3    H247610   4.390   4.934  16.986 -0.2155  0.8311 -1.8698
 8707TIP3   OH247611   6.323   6.323   0.038 -0.4052  0.2626 -0.8500
 8707TIP3    H147612   6.250   6.365  -0.008 -1.4616 -1.2821 -0.6659
 8707TIP3    H247613   6.282   6.263   0.100  1.0259  0.6585  0.5471
 8708TIP3   OH247614   6.553   4.469   0.817 -0.6336 -0.2532  0.4245
 8708TIP3    H147615   6.488   4.406   0.848  0.3407 -1.2005  0.5836
 8708TIP3    H247616   6.632   4.449   0.867  0.0134  0.3621 -0.3242
 8709TIP3   OH247617   3.560   0.168   0.200  0.8293  0.5910  0.0743
 8709TIP3    H147618   3.557   0.115   0.279  0.2157 -0.5340 -0.6768
 8709TIP3    H247619   3.593   0.253   0.229  0.2275  0.3318  1.6028
 8710TIP3   OH247620   0.600   4.850  14.813 -0.3171 -0.1483  0.0606
 8710TIP3    H147621   0.538   4.891  14.754 -0.6477 -0.6626  0.0407
 8710TIP3    H247622   0.607   4.911  14.886 -0.0791  0.3822 -0.4001
 8711TIP3   OH247623   3.472   0.456   5.152 -0.3923  0.1636 -0.1139
 8711TIP3    H147624   3.408   0.519   5.119  1.1203  1.1807 -1.2668
 8711TIP3    H247625   3.422   0.399   5.210 -2.2224  1.2068 -0.5820
 8712TIP3   OH247626   2.688   3.453  16.293  0.0035 -0.2901  0.2725
 8712TIP3    H147627   2.774   3.492  16.282 -0.0117 -0.1823  0.5356
 8712TIP3    H247628   2.627   3.527  16.290  0.0690 -0.1327  2.0319
 8713TIP3   OH247629   0.626   3.632   5.759  0.2070 -0.2474 -0.4024
 8713TIP3    H147630   0.610   3.713   5.808  1.1146  0.3309 -1.0178
 8713TIP3    H247631   0.539   3.599   5.737 -0.1751  0.6715 -0.3168
 8714TIP3   OH247632   2.303   6.064   5.660  0.3687  0.1733  0.0913
 8714TIP3    H147633   2.233   5.999   5.664 -0.2680  0.6634 -1.9701
 8714TIP3    H247634   2.367   6.028   5.599  1.7368 -0.0263  1.5526
 8715TIP3   OH247635   0.223   1.110   0.128  0.4582 -0.1843 -0.7828
 8715TIP3    H147636   0.250   1.111   0.036  0.5984  2.5248 -0.7794
 8715TIP3    H247637   0.294   1.065   0.174  1.1698 -0.0945 -1.7795
 8716TIP3   OH247638   1.361   6.722   4.079  0.5347 -0.0397 -0.2458
 8716TIP3    H147639   1.312   6.804   4.073  0.0849 -0.3223 -0.5097
 8716TIP3    H247640   1.444   6.746   4.119  0.9340  0.7723 -1.5112
 8717TIP3   OH247641   0.240   6.187  13.347 -0.0934  0.2384  0.0222
 8717TIP3    H147642   0.334   6.185  13.333 -0.0780 -0.1659  0.1615
 8717TIP3    H247643   0.228   6.155  13.436 -0.5000 -1.8683 -0.7407
 8718TIP3   OH247644   0.483   5.446  12.730 -0.4979  1.2871 -0.2193
 8718TIP3    H147645   0.559   5.410  12.684 -0.6793 -0.3423  0.6983
 8718TIP3    H247646   0.499   5.541  12.730  1.9913  0.9569  0.6642
 8719TIP3   OH247647   3.371   2.579  17.022 -0.1109 -1.0147  0.0426
 8719TIP3    H147648   3.383   2.541  16.934  2.5347  1.5271 -0.8727
 8719TIP3    H247649   3.439   2.537  17.075 -0.6237 -1.3369  0.4496
 8720TIP3   OH247650   0.878   0.336   1.666 -0.1942  0.6740 -0.6475
 8720TIP3    H147651   0.924   0.332   1.750 -1.5916 -1.4516  0.1004
 8720TIP3    H247652   0.947   0.332   1.600  0.8162 -0.3915  0.4284
 8721TIP3   OH247653   1.314   6.382  14.408  0.1572 -0.2805 -0.4014
 8721TIP3    H147654   1.283   6.393  14.498  0.0716  0.1226 -0.4796
 8721TIP3    H247655   1.270   6.451  14.359  0.6449 -0.1381 -0.6419
 8722TIP3   OH247656   1.080   4.032   0.341 -0.1560 -0.1736  0.0506
 8722TIP3    H147657   1.145   4.015   0.408 -0.4574 -0.7916  0.1894
 8722TIP3    H247658   1.116   3.994   0.261  0.3455  0.8368 -0.2188
 8723TIP3   OH247659   6.366   5.453   0.975 -0.3415  0.0174  0.3831
 8723TIP3    H147660   6.367   5.413   1.062 -2.2077 -1.5316 -0.2325
 8723TIP3    H247661   6.316   5.533   0.986 -1.6450 -0.7938  0.5420
 8724TIP3   OH247662   2.462   5.769  16.854 -0.1498  0.2542 -0.4392
 8724TIP3    H147663   2.456   5.786  16.948  0.2119  0.4236 -0.4438
 8724TIP3    H247664   2.504   5.847  16.818 -1.2534  0.6547 -0.8967
 8725TIP3   OH247665   6.372   6.540  11.267 -0.0055  0.3318 -0.2659
 8725TIP3    H147666   6.373   6.473  11.198 -3.2868 -0.1150 -0.0236
 8725TIP3    H247667   6.381   6.491  11.348  1.4593  0.6335 -0.2160
 8726TIP3   OH247668   0.658   2.571   2.643  0.4565  0.0619 -0.1978
 8726TIP3    H147669   0.751   2.595   2.640  0.3355  0.4192 -1.1473
 8726TIP3    H247670   0.639   2.563   2.737  1.4915 -0.2040  0.0062
 8727TIP3   OH247671   0.642   0.438   6.102  0.1446 -0.1169 -0.2903
 8727TIP3    H147672   0.704   0.511   6.102  0.2966 -0.2333 -1.4657
 8727TIP3    H247673   0.556   0.480   6.098  0.1649  0.0192  0.4466
 8728TIP3   OH247674   2.403   1.039   0.207 -0.3680  0.2272 -0.2931
 8728TIP3    H147675   2.485   0.991   0.221 -0.5921  0.1679  0.9311
 8728TIP3    H247676   2.392   1.040   0.112  0.4966 -0.7034 -0.4257
 8729TIP3   OH247677   3.275   4.283   5.229  0.4856  0.5736  0.0082
 8729TIP3    H147678   3.286   4.196   5.192  1.8129  0.9707 -0.5620
 8729TIP3    H247679   3.294   4.273   5.322 -3.0612 -0.4710  0.7983
 8730TIP3   OH247680   4.974   1.323   5.540  0.2672 -0.1237  0.2857
 8730TIP3    H147681   4.905   1.304   5.476 -0.0448  0.8208  0.3355
 8730TIP3    H247682   5.013   1.405   5.510  0.2579  0.2221  1.1854
 8731TIP3   OH247683   0.298   0.138  13.325 -0.3386 -0.2023 -0.6685
 8731TIP3    H147684   0.344   0.156  13.244  0.3265 -0.6781 -0.3982
 8731TIP3    H247685   0.218   0.092  13.298 -1.2353  1.5806 -1.2318
 8732TIP3   OH247686   1.640   3.838   5.522 -0.2946  0.1138 -0.1655
 8732TIP3    H147687   1.617   3.878   5.606 -2.4121 -1.8152  0.2806
 8732TIP3    H247688   1.621   3.906   5.457  0.2227  1.2251  0.8125
 8733TIP3   OH247689   0.197   1.152   1.783 -0.1105 -0.7333 -0.5974
 8733TIP3    H147690   0.179   1.074   1.731  1.4300 -0.0068 -2.3057
 8733TIP3    H247691   0.166   1.225   1.730 -1.5240 -0.1072  0.9711
 8734TIP3   OH247692   6.242   3.353  10.496 -0.2500  0.3528 -0.1268
 8734TIP3    H147693   6.198   3.399  10.425  0.8221  0.5813 -0.6750
 8734TIP3    H247694   6.330   3.337  10.463 -0.0854 -0.5850  0.7132
 8735TIP3   OH247695   1.591   6.677  13.086  0.2222 -0.2880 -0.3434
 8735TIP3    H147696   1.546   6.761  13.084 -0.5233 -0.6807 -0.3698
 8735TIP3    H247697   1.525   6.615  13.118  0.4437 -1.0469 -1.3102
 8736TIP3   OH247698   1.193   5.295   0.174 -0.8134  0.4719  0.0268
 8736TIP3    H147699   1.207   5.328   0.262  1.6586 -0.5957  0.1106
 8736TIP3    H247700   1.254   5.345   0.119 -1.8943  0.7156 -1.0205
 8737TIP3   OH247701   4.395   5.560  15.268 -0.0787 -0.0924  0.7978
 8737TIP3    H147702   4.475   5.507  15.267  1.1737  1.7033 -0.6819
 8737TIP3    H247703   4.368   5.560  15.360  2.4387  0.4048  1.6173
 8738TIP3   OH247704   0.728   5.646   6.145  0.3981  0.2290 -0.0191
 8738TIP3    H147705   0.779   5.684   6.074 -0.6042  1.6824 -0.0076
 8738TIP3    H247706   0.719   5.717   6.209 -1.6115  0.0489 -0.0215
 8739TIP3   OH247707   1.938   6.646   5.885  0.3437 -0.5447  0.1724
 8739TIP3    H147708   2.004   6.582   5.912 -0.2379 -0.7082  1.2772
 8739TIP3    H247709   1.897   6.673   5.967 -0.8546 -0.3381 -0.4781
 8740TIP3   OH247710   6.109   2.284   0.636 -0.0741 -0.0662 -0.2333
 8740TIP3    H147711   6.026   2.237   0.649  0.2370 -0.3250  0.9952
 8740TIP3    H247712   6.097   2.332   0.554 -1.6710  0.3667  0.2177
 8741TIP3   OH247713   4.341   5.185   0.505 -0.1755  0.0174  0.2556
 8741TIP3    H147714   4.299   5.151   0.425  0.3077  1.0203 -0.4458
 8741TIP3    H247715   4.400   5.253   0.473 -1.0727  1.4905  1.6009
 8742TIP3   OH247716   4.365   4.649   1.779 -0.0682  0.0219  0.3440
 8742TIP3    H147717   4.346   4.556   1.771  0.0730 -0.2312  2.3610
 8742TIP3    H247718   4.302   4.681   1.844 -0.5606  1.4941 -0.8089
 8743TIP3   OH247719   0.939   2.494  12.126 -0.0424  0.4706  0.0902
 8743TIP3    H147720   1.034   2.482  12.123 -0.0407  0.5126 -0.0063
 8743TIP3    H247721   0.922   2.568  12.067 -0.0371  1.0290  0.7723
 8744TIP3   OH247722   4.112   5.212  11.884  0.2397  0.1107  0.1217
 8744TIP3    H147723   4.112   5.200  11.789 -0.9577 -2.8624  0.3726
 8744TIP3    H247724   4.192   5.169  11.913 -0.5718 -1.1647  0.5721
 8745TIP3   OH247725   4.886   2.645  16.116 -0.5900 -0.2767  0.2463
 8745TIP3    H147726   4.866   2.572  16.057 -1.3808  1.0250 -1.1573
 8745TIP3    H247727   4.977   2.631  16.141 -0.9357 -2.1366  0.5991
 8746TIP3   OH247728   1.469   6.605  12.343 -0.3492  0.2036 -0.0218
 8746TIP3    H147729   1.472   6.701  12.346  0.1220  0.3014 -1.8435
 8746TIP3    H247730   1.461   6.585  12.249 -2.0644 -1.5166  0.4408
 8747TIP3   OH247731   2.843   0.228   2.381  0.1487 -0.1823  0.2089
 8747TIP3    H147732   2.774   0.205   2.319  1.0207 -1.1913 -0.4122
 8747TIP3    H247733   2.870   0.316   2.355  0.5336 -0.6062 -0.8924
 8748TIP3   OH247734   1.017   1.517  14.038  0.6582  0.1965  0.0095
 8748TIP3    H147735   1.018   1.588  14.102 -1.3979  0.5922 -0.3065
 8748TIP3    H247736   1.031   1.438  14.090 -1.5756  0.4476  1.1422
 8749TIP3   OH247737   2.937   5.327   5.119  0.0133 -0.0897 -0.0022
 8749TIP3    H147738   2.997   5.254   5.107 -0.8893 -1.0263  0.9925
 8749TIP3    H247739   2.853   5.286   5.141 -0.8425  1.2021 -0.6954
 8750TIP3   OH247740   3.097   3.264   5.276  0.4042  0.0969 -0.4920
 8750TIP3    H147741   3.154   3.266   5.353  1.3429  1.8882 -1.1687
 8750TIP3    H247742   3.022   3.318   5.301 -0.0208 -0.5581 -0.3279
 8751TIP3   OH247743   0.874   3.105  14.680  0.0060 -0.2579 -0.1976
 8751TIP3    H147744   0.787   3.142  14.697  0.0216 -0.0380 -0.5861
 8751TIP3    H247745   0.923   3.120  14.761  0.7684  2.7216 -1.0891
 8752TIP3   OH247746   3.324   3.179  15.499  0.1830  0.5317 -0.1505
 8752TIP3    H147747   3.333   3.260  15.449 -0.9807 -0.5636 -2.2261
 8752TIP3    H247748   3.256   3.129  15.455  1.0929 -1.7657  0.8270
 8753TIP3   OH247749   2.657   1.034   3.225 -0.0230  0.5065 -0.0046
 8753TIP3    H147750   2.748   1.060   3.234  0.0182  0.9893 -1.4723
 8753TIP3    H247751   2.610   1.117   3.214 -0.6569  0.2658  0.7759
 8754TIP3   OH247752   6.145   3.571   0.166 -0.0392  0.2754 -0.0894
 8754TIP3    H147753   6.101   3.639   0.114  0.3636  0.8052  0.2517
 8754TIP3    H247754   6.173   3.506   0.101 -0.5531  0.3637 -0.4046
 8755TIP3   OH247755   4.472   6.729   5.573 -0.0688 -0.1138  0.1503
 8755TIP3    H147756   4.423   6.793   5.522  0.3166 -0.4510 -0.6516
 8755TIP3    H247757   4.542   6.780   5.614 -1.6841  0.5942  2.2219
 8756TIP3   OH247758   2.668   3.848   5.902  0.4303  0.1758  0.0095
 8756TIP3    H147759   2.683   3.940   5.923 -0.3820  0.3497 -0.1271
 8756TIP3    H247760   2.612   3.816   5.973  0.6747 -0.2053  0.0349
 8757TIP3   OH247761   5.625   3.023  10.446 -0.4236  0.5476 -0.2651
 8757TIP3    H147762   5.542   2.977  10.457 -0.1102 -0.0201 -0.1836
 8757TIP3    H247763   5.671   2.974  10.377 -0.0138  0.6313 -0.0588
 8758TIP3   OH247764   1.164   6.566  11.962 -0.0034 -0.5775 -0.4134
 8758TIP3    H147765   1.079   6.522  11.962  0.7772 -2.1480 -1.0926
 8758TIP3    H247766   1.157   6.632  11.893  0.0539 -2.2577 -2.1010
 8759TIP3   OH247767   1.994   2.625   2.224  0.1589 -0.2861  0.8048
 8759TIP3    H147768   1.994   2.689   2.153  0.0833 -0.6438  0.4820
 8759TIP3    H247769   1.925   2.563   2.201  1.3331 -1.4222  0.2588
 8760TIP3   OH247770   5.708   2.535   0.791  0.0866  0.1557 -0.0622
 8760TIP3    H147771   5.651   2.605   0.760  0.6583  0.4209 -0.5372
 8760TIP3    H247772   5.757   2.508   0.713 -0.0346 -0.6856  0.1434
 8761TIP3   OH247773   3.090   3.585   3.876 -0.1866 -0.4148  0.5360
 8761TIP3    H147774   3.144   3.509   3.855  0.6122  0.6537 -1.5621
 8761TIP3    H247775   3.154   3.653   3.899 -0.6520  0.5778 -1.0032
 8762TIP3   OH247776   1.134   6.284   1.925 -0.5048 -0.0632 -0.1411
 8762TIP3    H147777   1.146   6.190   1.935 -1.1085 -0.1822 -0.5024
 8762TIP3    H247778   1.040   6.296   1.908 -0.7461  0.7564  1.5545
 8763TIP3   OH247779   5.966   1.823  12.959 -0.0724 -0.3839  0.1591
 8763TIP3    H147780   5.878   1.844  12.927 -0.0901 -1.4054 -0.5247
 8763TIP3    H247781   5.992   1.899  13.010 -1.3940 -0.0992  0.4456
 8764TIP3   OH247782   0.180   6.601  11.143 -0.4418 -0.2892  0.0069
 8764TIP3    H147783   0.264   6.569  11.111 -0.2372 -0.9924  1.1952
 8764TIP3    H247784   0.114   6.556  11.090 -0.0922 -0.5162 -0.2319
 8765TIP3   OH247785   5.894   2.809  17.050  0.8698  0.2414 -0.1294
 8765TIP3    H147786   5.869   2.851  16.967  1.5255  2.3684  0.6699
 8765TIP3    H247787   5.979   2.768  17.032  2.5767  3.3259  0.1442
 8766TIP3   OH247788   5.576   5.734   1.945  0.2282 -0.3310  0.4088
 8766TIP3    H147789   5.509   5.682   1.990  0.6177 -0.5053  0.7978
 8766TIP3    H247790   5.583   5.694   1.859  1.1340 -1.4941  0.9939
 8767TIP3   OH247791   0.048   4.895  15.464  0.0974  0.1619 -0.0516
 8767TIP3    H147792   0.046   4.800  15.466 -0.5096  0.1737  0.0958
 8767TIP3    H247793  -0.031   4.922  15.511  0.5729  0.7466  0.4264
 8768TIP3   OH247794   4.592   2.503  11.169  0.0276  0.3991  0.5115
 8768TIP3    H147795   4.506   2.474  11.200 -0.0974  0.8689  0.6268
 8768TIP3    H247796   4.577   2.594  11.141 -0.3628 -0.5672 -2.9106
 8769TIP3   OH247797   6.158   5.339   1.504  0.0437 -0.6951 -0.1854
 8769TIP3    H147798   6.160   5.374   1.415  1.1028 -1.7158 -0.5812
 8769TIP3    H247799   6.152   5.244   1.493 -1.2797 -0.7664  0.8587
 8770TIP3   OH247800   1.989   0.271   5.810 -0.5030 -0.4056  0.0692
 8770TIP3    H147801   2.080   0.243   5.799 -0.9636 -1.4232 -1.5088
 8770TIP3    H247802   1.963   0.237   5.895  0.0196 -1.8357 -0.3135
 8771TIP3   OH247803   4.464   5.921   5.871 -0.9711 -0.2254 -0.4090
 8771TIP3    H147804   4.371   5.937   5.853 -0.9732  0.2449  0.0005
 8771TIP3    H247805   4.508   5.942   5.789 -0.9718  1.9346  0.0985
 8772TIP3   OH247806   5.374   0.213   3.713 -0.2035 -0.4599  0.0983
 8772TIP3    H147807   5.313   0.139   3.714 -0.1349 -0.6045 -2.0223
 8772TIP3    H247808   5.453   0.179   3.757 -0.7639 -1.0651  0.6673
 8773TIP3   OH247809   6.690   3.093  16.094 -0.0203  0.5395 -0.3706
 8773TIP3    H147810   6.748   3.056  16.027  0.3183 -1.3190  0.8882
 8773TIP3    H247811   6.744   3.159  16.138  0.5635  0.0593 -0.3573
 8774TIP3   OH247812   4.011   4.293  12.939  0.6195 -0.1827 -0.0877
 8774TIP3    H147813   4.078   4.254  12.882  0.1165 -1.9850  0.4741
 8774TIP3    H247814   3.961   4.218  12.971 -0.3756  0.9588  1.1373
 8775TIP3   OH247815   5.215   2.098   0.651  0.1364  0.0295 -0.0498
 8775TIP3    H147816   5.214   2.043   0.729  3.7317  0.8444  0.7810
 8775TIP3    H247817   5.302   2.138   0.652 -0.7127  2.2654 -3.0060
 8776TIP3   OH247818   0.560   5.398   5.623  0.2589 -0.2287  0.2952
 8776TIP3    H147819   0.574   5.322   5.567 -0.7071 -0.3565  0.2038
 8776TIP3    H247820   0.468   5.392   5.649 -0.2676  1.6856 -0.9286
 8777TIP3   OH247821   5.992   6.044  10.870 -0.0858 -0.0826  0.1963
 8777TIP3    H147822   5.970   5.954  10.895  0.0877  0.1673  1.2870
 8777TIP3    H247823   6.060   6.070  10.931 -1.7765  1.6041  1.4645
 8778TIP3   OH247824   5.993   3.859  13.700 -0.5692 -0.4876  0.0191
 8778TIP3    H147825   5.908   3.868  13.657 -0.8939  1.9420  1.0085
 8778TIP3    H247826   6.037   3.942  13.683  1.5438 -1.5870 -0.2231
 8779TIP3   OH247827   6.423   0.596   1.072 -0.3044 -0.1753  0.0526
 8779TIP3    H147828   6.395   0.543   1.147 -0.2489 -1.8658 -1.0756
 8779TIP3    H247829   6.518   0.580   1.067  0.0237  1.4026  0.7074
 8780TIP3   OH247830   2.481   0.495  11.788 -0.1288  0.5193 -0.2533
 8780TIP3    H147831   2.577   0.500  11.793 -0.1852  3.0449 -0.3628
 8780TIP3    H247832   2.457   0.432  11.855  1.5527  0.8561  0.7369
 8781TIP3   OH247833   4.576   6.458   3.317  0.6955 -0.1262 -0.0358
 8781TIP3    H147834   4.605   6.367   3.317 -1.9412 -1.0522  0.3096
 8781TIP3    H247835   4.540   6.471   3.229  0.1345  0.2584  0.2476
 8782TIP3   OH247836   5.022   3.373  14.645 -0.0459 -0.0296  0.0124
 8782TIP3    H147837   5.004   3.285  14.679 -0.1610  0.0530  0.1636
 8782TIP3    H247838   5.107   3.365  14.602 -0.4963 -0.4592 -0.8289
 8783TIP3   OH247839   5.193   2.868  11.560  0.1960  0.0006 -0.4523
 8783TIP3    H147840   5.103   2.898  11.550  0.0275 -0.6632 -1.0609
 8783TIP3    H247841   5.244   2.922  11.499  0.4372  1.2581  0.8198
 8784TIP3   OH247842   1.136   0.707  11.647  0.2139  0.0824 -0.4246
 8784TIP3    H147843   1.230   0.724  11.637  0.1965 -0.2162 -1.1707
 8784TIP3    H247844   1.100   0.722  11.560 -0.2694 -0.8123 -0.3921
 8785TIP3   OH247845   3.129   3.776   1.007 -0.2151 -0.1931  0.2436
 8785TIP3    H147846   3.164   3.687   1.005 -2.6582 -1.2442  0.8459
 8785TIP3    H247847   3.184   3.822   1.071  1.5247 -1.0279 -0.6023
 8786TIP3   OH247848   4.051   0.557  13.518 -0.2867 -0.4554  0.8521
 8786TIP3    H147849   4.029   0.483  13.461 -2.3524  0.1326  0.7867
 8786TIP3    H247850   4.048   0.634  13.460 -1.1596  0.0015  1.4751
 8787TIP3   OH247851   2.994   6.514  12.151  0.0289 -0.3427 -0.6619
 8787TIP3    H147852   2.924   6.500  12.214 -0.1245 -1.2113 -1.0191
 8787TIP3    H247853   2.959   6.480  12.068  1.3649 -2.0546 -0.5651
 8788TIP3   OH247854   0.953   4.742   4.455  0.1236  0.6376  0.0804
 8788TIP3    H147855   0.978   4.798   4.528  2.3129 -0.1371  0.0112
 8788TIP3    H247856   1.024   4.677   4.449 -1.1799 -0.7532 -1.2501
 8789TIP3   OH247857   1.915   4.386  12.233 -0.4547  0.3348  0.6350
 8789TIP3    H147858   1.831   4.402  12.277  0.5748  0.9268  2.4681
 8789TIP3    H247859   1.905   4.299  12.194 -1.2682 -0.4510  2.4892
 8790TIP3   OH247860   2.154   3.881   2.150 -0.0789 -0.1739  0.0245
 8790TIP3    H147861   2.141   3.976   2.143 -0.7443 -0.2100  0.7036
 8790TIP3    H247862   2.090   3.844   2.089  0.1084 -0.1905 -0.1619
 8791TIP3   OH247863   0.653   1.374   3.254  0.9616  0.4600  0.2790
 8791TIP3    H147864   0.573   1.414   3.289  0.9890  2.2151 -1.4989
 8791TIP3    H247865   0.625   1.329   3.175  1.4403 -0.5924  0.6900
 8792TIP3   OH247866   1.247   2.097   0.170  0.5845 -0.1290 -0.1998
 8792TIP3    H147867   1.297   2.127   0.094  0.2078  0.4497 -0.2287
 8792TIP3    H247868   1.246   2.002   0.162 -0.7023 -0.0372 -1.7401
 8793TIP3   OH247869   0.355   3.327  11.493 -0.0389 -0.3917  0.3781
 8793TIP3    H147870   0.337   3.408  11.445  0.3451 -0.6929 -0.3026
 8793TIP3    H247871   0.281   3.317  11.553  0.0241  0.5799  0.6415
 8794TIP3   OH247872   2.814   3.217   0.560  0.6105 -0.0647 -0.1089
 8794TIP3    H147873   2.843   3.214   0.469 -0.4949  0.7219 -0.5001
 8794TIP3    H247874   2.736   3.271   0.559  0.6273  0.0275  1.3303
 8795TIP3   OH247875   5.277   3.533   1.211 -0.4677  0.1223 -0.3336
 8795TIP3    H147876   5.195   3.574   1.240  0.4329  0.9240  1.2157
 8795TIP3    H247877   5.289   3.460   1.271 -0.9566 -1.1372 -1.7262
 8796TIP3   OH247878   0.242   5.703  12.587 -0.2225  0.4651 -0.6984
 8796TIP3    H147879   0.187   5.697  12.509 -0.1447 -2.0387 -0.6652
 8796TIP3    H247880   0.332   5.702  12.553 -0.1710 -1.3139 -0.6526
 8797TIP3   OH247881   2.756   1.030  12.151  0.0578  0.2456  0.1843
 8797TIP3    H147882   2.774   0.995  12.238  2.5990 -0.9402 -0.7196
 8797TIP3    H247883   2.737   0.953  12.097  2.1107  0.5425 -1.0514
 8798TIP3   OH247884   1.333   4.654   6.610 -0.9348 -0.1558 -0.0144
 8798TIP3    H147885   1.357   4.576   6.661  1.4061  0.5216  0.0602
 8798TIP3    H247886   1.409   4.669   6.554 -2.2011  0.9058 -1.5100
 8799TIP3   OH247887   3.174   0.935  15.050  0.4079  0.1518  0.3168
 8799TIP3    H147888   3.116   1.009  15.069 -0.8137 -0.3562 -1.2858
 8799TIP3    H247889   3.118   0.858  15.058  1.1375 -0.4365 -0.1603
 8800TIP3   OH247890   0.017   6.309  13.248 -0.4544 -0.0146 -0.3491
 8800TIP3    H147891   0.092   6.276  13.298  0.0757  0.6960 -0.6517
 8800TIP3    H247892  -0.037   6.354  13.312 -1.5966 -2.0692  0.2275
 8801TIP3   OH247893   5.082   2.870  14.422 -0.6565 -0.0956 -0.0398
 8801TIP3    H147894   5.070   2.916  14.339  2.2956  0.5578 -0.2127
 8801TIP3    H247895   5.109   2.781  14.397 -1.6759 -0.5176  0.2803
 8802TIP3   OH247896   5.268   4.386  17.251 -0.3223  0.4445  0.0414
 8802TIP3    H147897   5.335   4.454  17.263 -0.2296  0.1344  1.4965
 8802TIP3    H247898   5.212   4.420  17.181 -0.6163  2.3114  1.0920
 8803TIP3   OH247899   1.821   2.278   4.327 -0.5005  0.1694 -0.4685
 8803TIP3    H147900   1.788   2.216   4.393 -0.4462  0.1004 -0.5060
 8803TIP3    H247901   1.750   2.287   4.264 -0.2594 -0.3767 -0.8261
 8804TIP3   OH247902   5.589   0.397   1.852  0.3161  0.1857 -0.3486
 8804TIP3    H147903   5.621   0.325   1.906 -0.3418  0.5799  0.5963
 8804TIP3    H247904   5.495   0.396   1.864  0.2129  0.6400 -1.0538
 8805TIP3   OH247905   5.008   5.010  11.808 -0.7714  0.5512  0.3697
 8805TIP3    H147906   4.978   5.069  11.877  1.4175  0.7422  1.2466
 8805TIP3    H247907   5.064   5.064  11.753 -0.0334 -0.3045  0.2523
 8806TIP3   OH247908   0.057   6.169   6.115 -0.0412 -0.3797 -0.4334
 8806TIP3    H147909   0.085   6.222   6.190  0.3948 -0.6557 -0.3970
 8806TIP3    H247910  -0.013   6.220   6.074  0.0258 -0.0164 -0.1001
 8807TIP3   OH247911   2.834   2.594  13.264 -0.1898 -0.0300 -0.4290
 8807TIP3    H147912   2.826   2.528  13.195  0.6585 -0.7273  0.1358
 8807TIP3    H247913   2.928   2.611  13.271 -0.1901 -0.4564  0.9963
 8808TIP3   OH247914   4.646   6.086   3.083 -0.0538  0.0389 -0.4377
 8808TIP3    H147915   4.618   6.130   3.003 -0.0180  0.8027 -0.0312
 8808TIP3    H247916   4.619   5.995   3.071 -1.0971  0.3908 -0.8166
 8809TIP3   OH247917   4.813   2.466   3.346  0.3774 -0.4805  0.5033
 8809TIP3    H147918   4.864   2.463   3.265 -0.4095 -0.7203 -0.0013
 8809TIP3    H247919   4.776   2.554   3.347 -1.9672 -1.3624 -0.9322
 8810TIP3   OH247920   5.384   0.884  14.597  0.5401 -0.9369  0.3421
 8810TIP3    H147921   5.364   0.976  14.616  1.7898  0.2316 -3.3077
 8810TIP3    H247922   5.406   0.847  14.683 -2.1725  1.4821  2.2983
 8811TIP3   OH247923   2.022   5.463  15.049  0.1429 -0.6465 -0.0239
 8811TIP3    H147924   2.114   5.491  15.045 -0.0828  0.2614  0.7096
 8811TIP3    H247925   1.985   5.515  15.121 -1.1573 -0.3873 -0.8525
 8812TIP3   OH247926   3.972   6.371  12.282 -0.0077 -0.4525 -0.0270
 8812TIP3    H147927   3.910   6.302  12.305  2.3358 -2.2657  1.2452
 8812TIP3    H247928   4.039   6.327  12.230 -0.3812  1.7351 -2.6020
 8813TIP3   OH247929   0.181   0.226  16.211  0.4574 -0.3216  0.2197
 8813TIP3    H147930   0.241   0.170  16.163  1.2152  0.0085  0.7769
 8813TIP3    H247931   0.146   0.285  16.144 -0.8936 -1.8646 -0.5195
 8814TIP3   OH247932   6.439   3.887   2.361 -1.2034 -0.2472 -0.1064
 8814TIP3    H147933   6.426   3.800   2.323 -1.0969 -0.0969 -0.4934
 8814TIP3    H247934   6.375   3.892   2.432 -0.0149 -1.3276  1.1119
 8815TIP3   OH247935   2.446   0.554   4.932 -0.5247 -0.5033 -0.6841
 8815TIP3    H147936   2.401   0.584   5.011  1.7227 -1.9687  1.2973
 8815TIP3    H247937   2.457   0.460   4.944  1.9825 -0.4200 -1.5305
 8816TIP3   OH247938   3.095   4.839   4.474 -0.3366 -0.0982 -0.0435
 8816TIP3    H147939   3.132   4.764   4.520 -0.4782  0.6748  1.3759
 8816TIP3    H247940   3.159   4.909   4.485 -0.7459  0.3308 -0.3179
 8817TIP3   OH247941   4.495   2.580   1.818  0.5175 -0.0192 -0.2031
 8817TIP3    H147942   4.422   2.567   1.758  0.2849  0.1438  0.0435
 8817TIP3    H247943   4.569   2.601   1.761  0.3697 -0.1683 -0.4517
 8818TIP3   OH247944   1.427   6.573   1.289  0.1082 -0.0289  0.0540
 8818TIP3    H147945   1.400   6.497   1.341 -3.1833  0.0097 -1.3879
 8818TIP3    H247946   1.435   6.540   1.200  0.1383  1.0257 -0.3489
 8819TIP3   OH247947   0.942   2.192   2.957 -0.3915 -0.1176 -0.0746
 8819TIP3    H147948   0.895   2.174   3.039 -0.9494 -0.1380 -0.3928
 8819TIP3    H247949   0.880   2.243   2.905 -0.9119 -1.9800 -1.3737
 8820TIP3   OH247950   3.936   3.386   0.219 -0.0904  0.1000  0.0502
 8820TIP3    H147951   4.001   3.345   0.276  1.2409  0.5275 -1.1264
 8820TIP3    H247952   3.874   3.315   0.199  1.0066 -0.8054 -0.2505
 8821TIP3   OH247953   4.994   0.410   0.969 -0.1250  0.3587 -0.0201
 8821TIP3    H147954   5.018   0.495   1.007 -1.4374  0.3949  0.7916
 8821TIP3    H247955   4.944   0.366   1.038 -0.3366 -0.6502 -0.7951
 8822TIP3   OH247956   1.063   5.649   1.514 -0.0270  0.6145 -0.4343
 8822TIP3    H147957   1.014   5.729   1.535 -2.4826 -0.9151 -0.0480
 8822TIP3    H247958   1.002   5.595   1.464  0.5317 -2.1848  1.6612
 8823TIP3   OH247959   2.168   1.722  14.331 -0.2789  0.0164  0.0829
 8823TIP3    H147960   2.228   1.648  14.328  0.4168  0.5867 -0.7887
 8823TIP3    H247961   2.084   1.685  14.357  0.0655 -1.0752 -0.3166
 8824TIP3   OH247962   4.342   3.141  13.978 -0.6237  0.0262 -0.6400
 8824TIP3    H147963   4.348   3.106  14.067 -1.8833 -1.0094 -0.9266
 8824TIP3    H247964   4.283   3.215  13.984  1.8892  2.1367 -0.0711
 8825TIP3   OH247965   2.221   3.046  16.088 -0.4946  0.0558 -0.3220
 8825TIP3    H147966   2.261   2.962  16.066  0.6844  1.1655 -2.8126
 8825TIP3    H247967   2.293   3.098  16.125 -0.3621  0.9845 -1.8023
 8826TIP3   OH247968   4.933   6.749   3.289 -0.5870 -0.5829  0.4778
 8826TIP3    H147969   4.884   6.796   3.356  2.2514  3.2806  0.1762
 8826TIP3    H247970   4.913   6.795   3.208  1.0341 -0.9891 -0.1878
 8827TIP3   OH247971   6.010   5.577  13.809  0.4769 -0.5523 -0.7073
 8827TIP3    H147972   6.026   5.513  13.739  3.1294 -1.2448  0.3805
 8827TIP3    H247973   5.971   5.526  13.880 -0.4298 -0.2472 -0.9728
 8828TIP3   OH247974   2.231   4.870   0.420  0.4033  0.2241 -0.4111
 8828TIP3    H147975   2.190   4.804   0.363  1.1161  0.0156 -0.6902
 8828TIP3    H247976   2.158   4.904   0.473 -0.1951  0.1255 -1.1519
 8829TIP3   OH247977   5.778   5.765   4.243 -0.8782  0.3152 -0.3139
 8829TIP3    H147978   5.773   5.852   4.202 -0.2764  1.0271  1.0614
 8829TIP3    H247979   5.871   5.745   4.244 -1.0190 -0.4106 -0.6947
 8830TIP3   OH247980   2.429   5.558   6.069  0.0952 -0.4687 -0.3282
 8830TIP3    H147981   2.506   5.546   6.014  0.5380  1.6149 -0.2615
 8830TIP3    H247982   2.450   5.634   6.124 -0.9505 -1.4942  1.6199
 8831TIP3   OH247983   4.798   3.318  14.453  0.2559 -0.5915  0.0203
 8831TIP3    H147984   4.714   3.361  14.472 -0.3528 -0.8086 -1.8941
 8831TIP3    H247985   4.850   3.331  14.531 -1.3995 -0.0143  1.0868
 8832TIP3   OH247986   6.013   6.659  16.647  0.4632 -0.1799 -0.3088
 8832TIP3    H147987   6.086   6.703  16.604  2.7010  0.4755  3.6492
 8832TIP3    H247988   6.047   6.573  16.673 -1.1424 -1.0120 -0.7844
 8833TIP3   OH247989   0.495   4.368   3.638  0.4143 -0.5488  0.0162
 8833TIP3    H147990   0.542   4.433   3.586 -2.0974  4.1497  2.9952
 8833TIP3    H247991   0.417   4.349   3.586  0.1820  0.4735 -0.0343
 8834TIP3   OH247992   0.546   1.407   5.490  1.0094  0.5658  0.2895
 8834TIP3    H147993   0.601   1.334   5.519  0.4235  0.4751  1.2053
 8834TIP3    H247994   0.518   1.450   5.571 -1.9833 -0.6520  0.0397
 8835TIP3   OH247995   1.484   5.188   5.470 -0.1838  0.2408 -0.6304
 8835TIP3    H147996   1.439   5.123   5.523 -1.3159 -0.6610 -2.6045
 8835TIP3    H247997   1.426   5.264   5.472 -0.4284  0.0610 -0.9199
 8836TIP3   OH247998   0.064   4.192   2.248 -0.4953 -0.2973 -0.2955
 8836TIP3    H147999   0.056   4.218   2.340  1.2104 -1.3473  0.1958
 8836TIP3    H248000   0.110   4.108   2.251  0.3337  0.0460 -2.1521
 8837TIP3   OH248001   3.509   3.384   5.027  0.7284  0.0879  0.2546
 8837TIP3    H148002   3.590   3.433   5.011  0.9563  0.5195  2.4618
 8837TIP3    H248003   3.513   3.362   5.120 -1.1602 -0.9007  0.1352
 8838TIP3   OH248004   6.428   4.832  13.073 -0.0080 -0.5580  0.6071
 8838TIP3    H148005   6.454   4.849  13.163 -0.7203  0.1588  0.6863
 8838TIP3    H248006   6.496   4.874  13.020  0.4430 -1.0312  0.8032
 8839TIP3   OH248007   6.389   1.888   4.807  0.1974  0.2637 -0.3234
 8839TIP3    H148008   6.415   1.979   4.792  0.2940  0.6302  1.7259
 8839TIP3    H248009   6.472   1.842   4.824 -0.0346  0.6009  2.2045
 8840TIP3   OH248010   2.145   5.138  15.175 -0.0172 -0.0757 -0.9110
 8840TIP3    H148011   2.170   5.192  15.251  1.7608 -0.5582 -1.1018
 8840TIP3    H248012   2.058   5.169  15.152 -0.8384 -0.2409  1.6300
 8841TIP3   OH248013   0.111   0.821  14.360  0.1208 -0.1821  0.3338
 8841TIP3    H148014   0.107   0.850  14.451  1.3960  1.2408 -0.0233
 8841TIP3    H248015   0.201   0.793  14.348 -0.0840 -0.5273 -0.4562
 8842TIP3   OH248016   4.105   2.261   2.212 -0.0312  0.2649  0.1663
 8842TIP3    H148017   4.022   2.307   2.221 -0.3372  0.0386 -1.3169
 8842TIP3    H248018   4.090   2.176   2.253 -0.0247  0.7922  1.2931
 8843TIP3   OH248019   0.988   3.565   0.727 -0.0174  0.5642 -0.7608
 8843TIP3    H148020   0.956   3.481   0.759  1.6594 -0.3389 -1.3165
 8843TIP3    H248021   0.997   3.619   0.805 -2.7769  0.8973 -0.5724
 8844TIP3   OH248022   4.515   2.227   3.231  0.2281 -0.6445  0.0352
 8844TIP3    H148023   4.608   2.206   3.223  0.3587 -1.1182  2.1667
 8844TIP3    H248024   4.512   2.322   3.238  0.3018 -0.4165 -2.3257
 8845TIP3   OH248025   6.200   5.425   3.804  0.0253  0.4063 -0.0398
 8845TIP3    H148026   6.271   5.365   3.826 -0.3343  0.2767  0.8149
 8845TIP3    H248027   6.185   5.411   3.711 -0.4885 -1.3245  0.2661
 8846TIP3   OH248028   1.377   6.390  13.463  0.6464 -0.0694 -0.0960
 8846TIP3    H148029   1.318   6.421  13.531  1.8524 -0.9548  1.4345
 8846TIP3    H248030   1.320   6.354  13.395 -0.5812  0.8223  0.4342
 8847TIP3   OH248031   6.195   0.069  13.382 -0.0682  0.2177  0.2311
 8847TIP3    H148032   6.265   0.095  13.322 -0.7752  0.1029 -0.6719
 8847TIP3    H248033   6.114   0.099  13.339 -0.7420 -1.5361  0.1858
 8848TIP3   OH248034   5.396   6.221  13.599  0.3277  0.5461 -0.2804
 8848TIP3    H148035   5.400   6.135  13.640  0.7513  1.1842  1.0633
 8848TIP3    H248036   5.344   6.208  13.520 -0.9131 -0.6249  0.7017
 8849TIP3   OH248037   1.724   4.271  10.752  0.0694 -0.6465 -0.0350
 8849TIP3    H148038   1.677   4.187  10.750  3.1954 -2.5755 -2.9610
 8849TIP3    H248039   1.698   4.315  10.671  1.7883 -0.9271 -0.7790
 8850TIP3   OH248040   6.616   2.879  10.668 -0.1268 -0.2571  0.1784
 8850TIP3    H148041   6.559   2.810  10.701 -1.3836  0.2756 -0.7860
 8850TIP3    H248042   6.607   2.950  10.731 -0.2193 -0.3181  0.2339
 8851TIP3   OH248043   2.931   6.571   2.165 -0.0637 -0.0570 -0.0199
 8851TIP3    H148044   3.008   6.538   2.119 -0.6159 -3.7717  1.4275
 8851TIP3    H248045   2.860   6.512   2.139 -1.0542 -0.4736  3.2176
 8852TIP3   OH248046   6.759   1.126   3.896  0.2540  0.0576 -0.3022
 8852TIP3    H148047   6.681   1.086   3.934 -0.6767  1.5176 -0.5613
 8852TIP3    H248048   6.729   1.213   3.867  2.1874  1.0321  0.4314
 8853TIP3   OH248049   3.716   3.566   5.018  0.2873  0.2331 -0.0346
 8853TIP3    H148050   3.703   3.624   4.943  0.0919  1.2011  0.7282
 8853TIP3    H248051   3.810   3.555   5.023  0.2835 -0.1138 -0.6222
 8854TIP3   OH248052   3.793   3.497  14.859 -0.1447  0.5050  0.2347
 8854TIP3    H148053   3.837   3.518  14.941 -1.1050 -1.6318  1.3676
 8854TIP3    H248054   3.731   3.568  14.846 -0.3635  0.6076  1.6648
 8855TIP3   OH248055   6.202   2.954   2.337  0.3826 -0.1635  0.0971
 8855TIP3    H148056   6.217   2.861   2.352 -0.9289 -0.2062  1.4713
 8855TIP3    H248057   6.179   2.988   2.424 -2.7713  0.6866 -0.9597
 8856TIP3   OH248058   6.720   3.924  14.882  0.1458  0.4952 -0.1122
 8856TIP3    H148059   6.665   3.987  14.835  1.0639 -0.6078 -2.9016
 8856TIP3    H248060   6.770   3.977  14.944 -2.7995  1.7298  1.4180
 8857TIP3   OH248061   2.580   0.426  10.773  0.6208 -0.0391 -0.5154
 8857TIP3    H148062   2.563   0.486  10.701  0.4409 -0.7806 -1.1070
 8857TIP3    H248063   2.497   0.422  10.821  0.5513 -0.0221 -0.6338
 8858TIP3   OH248064   5.707   2.130   2.194 -0.2822  0.0567 -0.0685
 8858TIP3    H148065   5.720   2.056   2.253 -1.2838  0.7058  0.9995
 8858TIP3    H248066   5.795   2.149   2.161  0.4082 -0.0065  1.6206
 8859TIP3   OH248067   4.951   6.636   2.598 -0.4329  0.5069  0.0634
 8859TIP3    H148068   4.961   6.544   2.621  1.1408  1.1017  2.0336
 8859TIP3    H248069   4.940   6.637   2.503  1.9149 -1.5589 -0.3019
 8860TIP3   OH248070   0.994   4.545  12.799 -0.1172 -0.2650  0.0592
 8860TIP3    H148071   1.083   4.510  12.801 -0.2344 -0.5328  1.1720
 8860TIP3    H248072   0.981   4.570  12.708  1.3697  0.5038  0.0186
 8861TIP3   OH248073   5.848   5.395   4.422  0.0017 -0.5769  0.3849
 8861TIP3    H148074   5.886   5.308   4.413  0.4301 -0.2414 -1.6970
 8861TIP3    H248075   5.764   5.389   4.377  0.6512  0.3935 -1.0496
 8862TIP3   OH248076   0.972   0.580  13.567  0.0709  0.3585 -0.8162
 8862TIP3    H148077   0.921   0.541  13.495 -1.2043 -1.1067  0.7800
 8862TIP3    H248078   0.929   0.664  13.583 -0.1918  0.3007 -1.1854
 8863TIP3   OH248079   5.365   2.787   0.805  0.0891 -0.2975  0.7626
 8863TIP3    H148080   5.292   2.844   0.831 -0.8267 -0.5930 -1.0267
 8863TIP3    H248081   5.402   2.757   0.888 -1.3986  0.3863  1.7249
 8864TIP3   OH248082   6.143   0.117   0.322  0.5810  0.3510  0.2836
 8864TIP3    H148083   6.109   0.069   0.397  0.3339 -0.7722 -0.5057
 8864TIP3    H248084   6.129   0.209   0.343 -1.3565 -0.0137  0.7305
 8865TIP3   OH248085   0.184   4.685   0.889  0.2386  0.0884  0.6698
 8865TIP3    H148086   0.172   4.774   0.922  0.5512  0.0179  0.9882
 8865TIP3    H248087   0.121   4.677   0.817 -0.0600  0.4353  0.8876
 8866TIP3   OH248088   0.488   0.254  14.273  0.5831 -0.4602 -0.3301
 8866TIP3    H148089   0.525   0.254  14.362 -0.2970 -0.9070  0.0517
 8866TIP3    H248090   0.554   0.209  14.220 -0.2384 -3.1103  0.7403
 8867TIP3   OH248091   3.693   1.485   6.124 -0.4756  0.0695  0.0962
 8867TIP3    H148092   3.634   1.446   6.188  0.9496 -2.4284  0.0015
 8867TIP3    H248093   3.758   1.531   6.177  1.2232 -2.7324  0.6525
 8868TIP3   OH248094   5.940   3.964   2.767  0.2217  0.1992 -0.0136
 8868TIP3    H148095   5.876   3.937   2.700  1.8701 -0.5811 -1.3419
 8868TIP3    H248096   6.002   4.019   2.720  1.2006 -0.0268  0.9864
 8869TIP3   OH248097   5.355   3.123   6.082  0.4255 -0.2574 -0.4167
 8869TIP3    H148098   5.284   3.115   6.145  0.2729  0.9078 -0.4299
 8869TIP3    H248099   5.311   3.126   5.997  0.6095 -1.3945 -0.5773
 8870TIP3   OH248100   5.223   5.615  15.576 -0.3345 -0.1667 -0.2573
 8870TIP3    H148101   5.250   5.616  15.668 -2.2028  0.6553  0.3343
 8870TIP3    H248102   5.138   5.572  15.577  0.0284 -0.9917 -1.7674
 8871TIP3   OH248103   4.803   4.301  15.243 -0.2836 -0.2596 -0.1180
 8871TIP3    H148104   4.795   4.217  15.288 -0.8281 -0.7289 -1.0513
 8871TIP3    H248105   4.786   4.366  15.311 -0.1683 -0.9121  0.5512
 8872TIP3   OH248106   4.066   6.181   5.637 -0.1491  0.0429  0.5062
 8872TIP3    H148107   4.149   6.134   5.636 -0.6255 -0.8158 -0.3722
 8872TIP3    H248108   4.060   6.221   5.550 -0.6047  0.2007  0.6063
 8873TIP3   OH248109   1.602   4.895  15.896 -0.4211  0.0879 -0.3385
 8873TIP3    H148110   1.606   4.953  15.972 -2.0562 -0.1949  0.0039
 8873TIP3    H248111   1.531   4.834  15.916  0.7274 -1.5538 -1.0427
 8874TIP3   OH248112   3.219   3.258  16.941 -0.7078 -0.4171  0.2392
 8874TIP3    H148113   3.206   3.338  16.992 -1.1010 -0.7163  0.6148
 8874TIP3    H248114   3.145   3.202  16.965  0.4195 -1.5366  1.2096
 8875TIP3   OH248115   1.068   4.402   0.576 -0.3187 -0.3667 -0.4687
 8875TIP3    H148116   1.123   4.346   0.629  0.3088 -0.3627 -1.1004
 8875TIP3    H248117   1.085   4.375   0.486 -1.6494 -0.6396 -0.6688
 8876TIP3   OH248118   6.458   6.673  12.724  0.2127  0.3327  0.1465
 8876TIP3    H148119   6.500   6.604  12.776  2.0388 -0.3886 -2.0941
 8876TIP3    H248120   6.366   6.649  12.723  0.4295 -0.6891  1.4202
 8877TIP3   OH248121   4.205   1.037  10.759  0.2285 -0.1000 -0.1969
 8877TIP3    H148122   4.134   0.980  10.730  0.0731 -0.9922  1.7516
 8877TIP3    H248123   4.179   1.125  10.731 -2.0176 -0.2857  1.0416
 8878TIP3   OH248124   3.842   4.962  11.431 -0.2319  0.2358  0.0006
 8878TIP3    H148125   3.898   5.038  11.412 -0.1350 -0.0087 -0.7323
 8878TIP3    H248126   3.756   4.987  11.397  0.1219 -0.5086 -1.5691
 8879TIP3   OH248127   1.547   0.131  15.101  0.0824 -0.1957 -0.3997
 8879TIP3    H148128   1.617   0.147  15.165  0.0724  0.0961 -0.4597
 8879TIP3    H248129   1.473   0.102  15.153  0.8296 -2.4671 -0.4978
 8880TIP3   OH248130   0.531   1.420  13.577  0.2229 -0.4719  0.2119
 8880TIP3    H148131   0.518   1.417  13.482  1.5794 -1.3073  0.0364
 8880TIP3    H248132   0.503   1.508  13.602 -1.4112 -0.6652 -0.7431
 8881TIP3   OH248133   4.485   1.742  11.215 -0.0274  0.7339  0.0146
 8881TIP3    H148134   4.475   1.835  11.196  0.8054  0.7627 -0.2988
 8881TIP3    H248135   4.537   1.708  11.142  1.6357  0.4736  1.2660
 8882TIP3   OH248136   5.488   0.715  11.974  0.2324 -0.1740  0.0953
 8882TIP3    H148137   5.441   0.769  12.038 -0.4892  0.5003 -0.9710
 8882TIP3    H248138   5.503   0.632  12.019  1.3478  0.8799  1.7659
 8883TIP3   OH248139   6.003   2.543   4.955 -0.0350 -0.2576 -0.0321
 8883TIP3    H148140   5.996   2.464   5.008  0.1886 -0.0417  0.3228
 8883TIP3    H248141   6.096   2.551   4.936  0.2431  0.9976  1.6175
 8884TIP3   OH248142   4.685   5.009  15.074  0.0873  0.2992  0.1203
 8884TIP3    H148143   4.686   5.069  14.999 -0.0745 -2.0807 -1.9315
 8884TIP3    H248144   4.743   4.938  15.048 -0.9161 -1.1894  1.7607
 8885TIP3   OH248145   1.340   3.649  14.431 -0.0939 -0.0033  0.1293
 8885TIP3    H148146   1.288   3.580  14.473 -0.1330 -1.1906 -1.7725
 8885TIP3    H248147   1.274   3.705  14.390  0.0309  0.0293 -0.0221
 8886TIP3   OH248148   5.306   2.034  14.706  0.1994 -0.2286  0.0117
 8886TIP3    H148149   5.329   2.054  14.615  0.5913 -1.1109 -0.0918
 8886TIP3    H248150   5.312   1.938  14.712 -0.5734 -0.2473  0.7646
 8887TIP3   OH248151   4.383   5.413   2.526  0.0060 -0.5837  0.0266
 8887TIP3    H148152   4.293   5.394   2.500  0.1211 -0.7337 -0.2597
 8887TIP3    H248153   4.394   5.364   2.608 -0.2733 -0.3081  0.2319
 8888TIP3   OH248154   5.372   4.776   3.935 -0.0536 -1.3844  0.3445
 8888TIP3    H148155   5.287   4.797   3.972 -0.5492 -1.1887 -0.8595
 8888TIP3    H248156   5.412   4.861   3.915 -0.3025 -1.4875 -0.6559
 8889TIP3   OH248157   3.998   5.674   0.141 -0.0458 -0.1036 -0.4762
 8889TIP3    H148158   4.009   5.584   0.174 -0.8698 -0.1091 -0.2001
 8889TIP3    H248159   3.908   5.678   0.110  0.6981 -0.0995 -2.8246
 8890TIP3   OH248160   1.242   0.419   5.291 -0.0906 -0.4935 -0.2508
 8890TIP3    H148161   1.303   0.493   5.300  0.7457 -1.3568  1.6982
 8890TIP3    H248162   1.188   0.422   5.370 -1.2442 -0.9402 -0.9978
 8891TIP3   OH248163   1.822   5.320   3.210  0.0101 -0.2430  0.2883
 8891TIP3    H148164   1.734   5.357   3.208  0.2344  0.2818 -0.9203
 8891TIP3    H248165   1.816   5.241   3.157  0.6454  0.7440 -1.3157
 8892TIP3   OH248166   6.139   6.366   0.941  0.4931  0.1594 -0.6718
 8892TIP3    H148167   6.160   6.343   0.851  2.9557  1.3868 -0.5123
 8892TIP3    H248168   6.219   6.344   0.990 -0.3502  0.6518  0.9875
 8893TIP3   OH248169   1.409   2.416   4.566 -0.6063 -0.1582 -0.1937
 8893TIP3    H148170   1.382   2.327   4.587  0.5488 -0.2976  0.8183
 8893TIP3    H248171   1.497   2.424   4.603 -0.1649  0.9842 -1.3952
 8894TIP3   OH248172   3.745   3.174   0.188  0.0575 -0.6848  0.1661
 8894TIP3    H148173   3.714   3.099   0.239  0.1192  0.9560  2.8147
 8894TIP3    H248174   3.668   3.206   0.142 -1.0295  0.0740  2.3669
 8895TIP3   OH248175   6.166   6.489   5.319  0.0209  0.0055  0.4757
 8895TIP3    H148176   6.192   6.429   5.249 -2.6311 -0.3977 -0.2804
 8895TIP3    H248177   6.194   6.575   5.288 -1.1322 -0.1585 -1.1678
 8896TIP3   OH248178   4.969   0.424  11.806  0.2004 -0.1698 -0.4343
 8896TIP3    H148179   5.031   0.435  11.878  0.4363  0.2054 -0.6886
 8896TIP3    H248180   4.954   0.330  11.801  2.1875 -0.4738 -1.5577
 8897TIP3   OH248181   3.353   4.013   5.365  0.5990 -0.7558 -0.2998
 8897TIP3    H148182   3.430   4.037   5.314 -0.1524  1.2494 -0.5896
 8897TIP3    H248183   3.292   3.978   5.301 -0.7376  2.6908 -1.1586
 8898TIP3   OH248184   2.433   2.071   0.496  0.0879 -0.3330  0.1740
 8898TIP3    H148185   2.453   2.130   0.423 -1.6717 -0.0972 -0.1592
 8898TIP3    H248186   2.496   2.000   0.486 -0.3423 -0.5091 -1.8243
 8899TIP3   OH248187   3.835   6.135  12.350  0.0311 -0.2628  0.1696
 8899TIP3    H148188   3.756   6.137  12.297  0.4302  3.0481 -0.5190
 8899TIP3    H248189   3.807   6.163  12.437  0.1743 -0.7576  0.3767
 8900TIP3   OH248190   3.202   5.965  12.922 -0.4722 -0.4552  0.1138
 8900TIP3    H148191   3.214   5.962  13.017 -0.1406 -1.0045  0.0646
 8900TIP3    H248192   3.113   5.934  12.908 -0.5169 -0.3875  0.2466
 8901TIP3   OH248193   2.475   2.417   1.289 -0.2343 -0.1534  0.0873
 8901TIP3    H148194   2.393   2.369   1.276 -0.3363  0.1726 -0.5146
 8901TIP3    H248195   2.451   2.509   1.279  0.1095 -0.0248  0.4298
 8902TIP3   OH248196   2.972   2.940   0.576  0.0481  0.1396 -0.6008
 8902TIP3    H148197   2.983   3.025   0.618  2.5014 -1.0252  1.3851
 8902TIP3    H248198   2.935   2.884   0.644  1.2388 -1.0650 -0.9038
 8903TIP3   OH248199   5.961   5.379   4.877  0.2726 -0.9851 -0.0171
 8903TIP3    H148200   5.988   5.289   4.892  1.8034 -0.5714 -0.0929
 8903TIP3    H248201   5.876   5.373   4.834  0.6296 -2.3887 -0.5475
 8904TIP3   OH248202   0.965   4.269   0.077  0.3535  0.0372  0.1308
 8904TIP3    H148203   0.958   4.175   0.061  1.8367 -0.4059  1.6884
 8904TIP3    H248204   0.919   4.310   0.004  0.3578 -1.8721 -1.0068
 8905TIP3   OH248205   3.824   0.070  14.396 -0.1474  0.0142 -0.5438
 8905TIP3    H148206   3.748   0.127  14.407 -1.2341 -1.8378  3.4274
 8905TIP3    H248207   3.803   0.016  14.320 -1.6478  1.2175 -1.0221
 8906TIP3   OH248208   1.450   6.221  12.300 -0.3315 -0.0521  0.3086
 8906TIP3    H148209   1.519   6.222  12.367  0.2444 -0.6441 -0.2552
 8906TIP3    H248210   1.385   6.283  12.332  0.4474  0.5029  0.8737
 8907TIP3   OH248211   4.169   2.151  14.843 -0.1359 -0.5766 -0.4037
 8907TIP3    H148212   4.110   2.117  14.911 -0.0425  1.6682  0.9044
 8907TIP3    H248213   4.133   2.237  14.821  0.9238 -0.4710 -1.8297
 8908TIP3   OH248214   4.791   3.839  15.652  0.2834  0.2184 -0.5407
 8908TIP3    H148215   4.708   3.792  15.646  0.7348 -0.6179 -0.2683
 8908TIP3    H248216   4.816   3.855  15.561 -0.7138  1.4622 -0.6300
 8909TIP3   OH248217   6.105   5.829  11.992  0.1480 -0.0661 -0.1056
 8909TIP3    H148218   6.017   5.860  12.014 -0.3671 -0.1508 -1.9184
 8909TIP3    H248219   6.104   5.818  11.897  1.5426 -1.8729  0.0292
 8910TIP3   OH248220   0.055   6.551  12.228 -0.6400 -0.1892 -1.3643
 8910TIP3    H148221   0.130   6.528  12.284 -2.0172  0.4127  0.8869
 8910TIP3    H248222   0.083   6.628  12.179 -0.0518  0.5679  0.1050
 8911TIP3   OH248223   1.284   3.314  11.658 -0.0544 -0.0630  0.6669
 8911TIP3    H148224   1.261   3.273  11.575  0.1097  0.4891  0.3493
 8911TIP3    H248225   1.296   3.406  11.638  2.1202 -0.2493  0.8693
 8912TIP3   OH248226   2.111   0.076   4.712  0.5021 -0.4123  0.5414
 8912TIP3    H148227   2.061   0.095   4.791  0.0251  0.4214  0.0595
 8912TIP3    H248228   2.124   0.161   4.670 -1.1675 -1.0038 -1.3914
 8913TIP3   OH248229   4.413   6.124  17.140 -0.0619  0.3844  0.2594
 8913TIP3    H148230   4.348   6.070  17.185 -2.7326  0.3536 -3.2135
 8913TIP3    H248231   4.494   6.074  17.146 -1.0695 -1.1697  2.0428
 8914TIP3   OH248232   6.586   3.004   6.121 -0.8441 -0.3042 -0.2682
 8914TIP3    H148233   6.641   3.068   6.166  1.2440 -1.0143 -1.6801
 8914TIP3    H248234   6.502   3.007   6.168 -0.3731  2.4522  0.5497
 8915TIP3   OH248235   0.776   4.276   4.314 -0.1558 -0.3425 -0.0544
 8915TIP3    H148236   0.691   4.235   4.327  1.5427 -4.3562 -0.1521
 8915TIP3    H248237   0.802   4.306   4.402  0.3083 -3.6989  1.1004
 8916TIP3   OH248238   6.802   3.147  12.808  0.2156  0.3160  0.3067
 8916TIP3    H148239   6.796   3.216  12.742 -0.6517 -1.8287 -1.9812
 8916TIP3    H248240   6.714   3.142  12.846 -0.5671 -1.3482 -1.5705
 8917TIP3   OH248241   1.191   0.483   0.734  0.0765  0.0174 -1.1718
 8917TIP3    H148242   1.164   0.393   0.751  2.2315 -0.3280  0.8051
 8917TIP3    H248243   1.214   0.484   0.641  0.6521 -1.6596 -1.0808
 8918TIP3   OH248244   4.550   0.888  11.818 -0.0967  0.1502 -0.1704
 8918TIP3    H148245   4.626   0.946  11.810 -0.2601  0.2891 -0.7774
 8918TIP3    H248246   4.475   0.945  11.800 -0.3848  0.1204  0.9043
 8919TIP3   OH248247   2.986   5.982   2.063  0.2204  0.2000 -0.1421
 8919TIP3    H148248   2.984   6.064   2.113 -1.6724  0.6924 -0.9267
 8919TIP3    H248249   3.018   6.007   1.977 -0.2280  0.0991 -0.3420
 8920TIP3   OH248250   2.485   4.441   6.291 -0.1877 -0.0722 -0.2763
 8920TIP3    H148251   2.521   4.429   6.379  0.5446  0.5341 -0.4830
 8920TIP3    H248252   2.554   4.412   6.232 -0.3362  0.3445 -0.6647
 8921TIP3   OH248253   5.474   5.845   0.577 -0.2211  0.4137 -0.7325
 8921TIP3    H148254   5.484   5.774   0.640  3.1189 -0.5757 -2.1369
 8921TIP3    H248255   5.422   5.808   0.506  0.0598 -0.0915 -0.6808
 8922TIP3   OH248256   2.001   3.878   6.011  0.3641 -0.0265 -0.4923
 8922TIP3    H148257   2.065   3.932   5.964  0.4016  1.0264  0.7177
 8922TIP3    H248258   2.054   3.812   6.055  0.7400  1.3176  1.1415
 8923TIP3   OH248259   0.820   0.932  12.434 -0.0702 -0.5594  0.2397
 8923TIP3    H148260   0.792   0.850  12.474 -0.7475  0.3196  1.6467
 8923TIP3    H248261   0.740   0.984  12.429  0.3884  0.0908 -0.4709
 8924TIP3   OH248262   0.325   4.562  11.687  0.3029  0.5477 -0.0296
 8924TIP3    H148263   0.252   4.538  11.630  0.3227 -0.6490  0.4323
 8924TIP3    H248264   0.399   4.571  11.628  0.5609 -1.7160 -0.1113
 8925TIP3   OH248265   4.988   0.851  14.362 -0.3638 -0.1391 -0.4395
 8925TIP3    H148266   5.019   0.853  14.271 -1.0525 -1.4175 -0.7179
 8925TIP3    H248267   4.895   0.831  14.355 -0.4379 -0.1770  0.5504
 8926TIP3   OH248268   1.248   0.206   5.531 -0.0008  0.1927  0.2299
 8926TIP3    H148269   1.268   0.186   5.622  2.5534  1.1584 -0.0467
 8926TIP3    H248270   1.172   0.265   5.535 -0.8085 -0.8850  1.6015
 8927TIP3   OH248271   1.418   3.080  14.823  0.8342  0.5173 -0.1898
 8927TIP3    H148272   1.395   2.990  14.805  1.4320  0.2962  0.1133
 8927TIP3    H248273   1.507   3.076  14.860  0.5298  1.1349  0.6711
 8928TIP3   OH248274   1.134   6.033   3.251 -0.2869 -0.0032  0.3276
 8928TIP3    H148275   1.207   6.080   3.293  1.4861 -1.2316 -1.1779
 8928TIP3    H248276   1.152   5.941   3.271 -2.7370 -0.2446  1.7870
 8929TIP3   OH248277   5.150   4.292   4.588 -0.3576 -0.2922 -0.3102
 8929TIP3    H148278   5.056   4.301   4.569  0.1410  0.7089 -2.6878
 8929TIP3    H248279   5.166   4.197   4.584 -1.1394 -0.4195 -0.5825
 8930TIP3   OH248280   5.459   0.361   2.813  0.1631 -0.0466 -0.1608
 8930TIP3    H148281   5.498   0.292   2.759 -0.4397 -0.7821  0.3266
 8930TIP3    H248282   5.473   0.333   2.903 -1.0599 -0.1076  0.0341
 8931TIP3   OH248283   5.052   1.106   0.872 -0.3083  0.0156 -0.4966
 8931TIP3    H148284   5.112   1.169   0.912  0.1892  0.2843 -1.6062
 8931TIP3    H248285   5.065   1.025   0.921 -1.8427  1.0478  1.7661
 8932TIP3   OH248286   1.091   3.724   3.181 -0.0810  0.2726  0.0217
 8932TIP3    H148287   1.119   3.772   3.259  1.0644  0.7038 -0.6378
 8932TIP3    H248288   1.046   3.789   3.128  0.0287  0.2243 -0.1312
 8933TIP3   OH248289   3.236   2.026   4.931 -0.4789  0.2339 -0.6371
 8933TIP3    H148290   3.256   2.048   4.840  1.4248  1.5335  0.0340
 8933TIP3    H248291   3.203   2.108   4.969  0.1190  0.1011  0.1950
 8934TIP3   OH248292   2.589   5.467  11.913  0.3847  0.3254 -0.2736
 8934TIP3    H148293   2.657   5.533  11.919  0.7570  0.0340 -1.0852
 8934TIP3    H248294   2.622   5.404  11.849  0.5402 -1.2353  1.2463
 8935TIP3   OH248295   1.272   4.057   6.126 -0.4132  0.4313 -0.7273
 8935TIP3    H148296   1.186   4.025   6.153 -1.6738  3.6021 -0.5103
 8935TIP3    H248297   1.331   4.032   6.197 -1.9123  1.1738  0.8608
 8936TIP3   OH248298   2.175   1.461  11.260  0.2091  0.2326 -0.4322
 8936TIP3    H148299   2.148   1.489  11.173 -0.7601 -1.3503 -0.6811
 8936TIP3    H248300   2.097   1.470  11.314  0.2918 -0.5267 -0.1715
 8937TIP3   OH248301   5.894   6.789  10.700 -0.5833  0.0307  0.1378
 8937TIP3    H148302   5.885   6.699  10.728  0.2948  0.0936  0.6723
 8937TIP3    H248303   5.971   6.821  10.746 -0.1776  0.6922 -0.9396
 8938TIP3   OH248304   2.773   3.303   1.666 -0.5997 -0.3712 -0.0103
 8938TIP3    H148305   2.830   3.304   1.743 -1.0576  1.2237  0.3589
 8938TIP3    H248306   2.771   3.395   1.638 -0.6687 -0.8892 -1.7629
 8939TIP3   OH248307   1.245   2.287   1.098  0.1196  0.8002 -0.5813
 8939TIP3    H148308   1.252   2.376   1.134  0.7079  0.8113 -0.7142
 8939TIP3    H248309   1.151   2.271   1.092  0.0087  1.0596  0.3212
 8940TIP3   OH248310   2.933   6.006   3.872 -0.1642  0.2180  0.2548
 8940TIP3    H148311   2.883   5.942   3.923 -0.6967  0.3783 -0.0577
 8940TIP3    H248312   3.010   5.957   3.841 -1.8561 -1.1195 -2.2598
 8941TIP3   OH248313   6.203   4.907  11.686  0.1170  0.5928 -0.4815
 8941TIP3    H148314   6.109   4.894  11.693  0.1383  1.3145  2.2372
 8941TIP3    H248315   6.241   4.830  11.729  0.6522  1.5711  0.8633
 8942TIP3   OH248316   4.104   1.112   2.219 -0.1595  0.5273 -0.5130
 8942TIP3    H148317   4.109   1.105   2.315 -1.6190 -1.8184 -0.5209
 8942TIP3    H248318   4.193   1.089   2.190 -0.2342 -0.9451  0.2722
 8943TIP3   OH248319   0.800   4.416  16.793  0.2509  0.1321  0.0953
 8943TIP3    H148320   0.814   4.396  16.700 -0.3015 -1.7301  0.3770
 8943TIP3    H248321   0.888   4.415  16.831  0.2968 -1.8015  0.0474
 8944TIP3   OH248322   2.312   5.449   0.989  0.0314 -0.1889  0.4797
 8944TIP3    H148323   2.316   5.391   0.913 -0.0140  1.8424 -1.1711
 8944TIP3    H248324   2.319   5.391   1.065  2.7735 -2.1123 -1.0731
 8945TIP3   OH248325   5.925   2.145  14.491 -0.0474  0.2572  0.0773
 8945TIP3    H148326   5.851   2.098  14.453 -0.5458 -0.5549  1.9365
 8945TIP3    H248327   5.995   2.136  14.426 -1.1904  0.0343 -1.1848
 8946TIP3   OH248328   3.220   0.787   4.752  0.2293 -0.1436  0.1301
 8946TIP3    H148329   3.182   0.862   4.798  1.0517 -0.4049  1.2611
 8946TIP3    H248330   3.147   0.727   4.740 -0.1564  0.2661  0.3925
 8947TIP3   OH248331   6.138   0.142  11.467 -0.0197  0.3106 -0.1849
 8947TIP3    H148332   6.191   0.086  11.410  0.4803 -0.5780  1.1033
 8947TIP3    H248333   6.198   0.210  11.496 -0.2898  0.7949 -0.7450
 8948TIP3   OH248334   2.676   1.071  16.960 -0.3898  0.3254 -0.3976
 8948TIP3    H148335   2.695   1.089  17.052 -1.9689 -0.3226  0.0947
 8948TIP3    H248336   2.714   1.145  16.913  1.5291  0.0749  0.6213
 8949TIP3   OH248337   1.286   1.497   4.229  0.2952  0.1581  0.1044
 8949TIP3    H148338   1.191   1.502   4.238  0.3055 -0.7438  0.8955
 8949TIP3    H248339   1.319   1.563   4.290  0.1975 -0.4890  0.8658
 8950TIP3   OH248340   4.542   6.189  16.371  0.0082 -0.2351  0.1158
 8950TIP3    H148341   4.610   6.227  16.315 -0.6437 -0.3480 -0.7666
 8950TIP3    H248342   4.582   6.111  16.408  0.5395 -0.0077  0.0295
 8951TIP3   OH248343   3.009   6.269  16.441  0.1214  0.5128  0.1509
 8951TIP3    H148344   3.031   6.299  16.529 -1.1985 -1.1334  1.0956
 8951TIP3    H248345   3.017   6.174  16.445 -1.2856  0.2972 -1.0974
 8952TIP3   OH248346   0.745   3.045  11.430  0.1295 -0.5618  0.0440
 8952TIP3    H148347   0.707   3.066  11.515  0.8405  0.5175  0.1128
 8952TIP3    H248348   0.825   3.097  11.426 -0.9711  1.1466 -2.1492
 8953TIP3   OH248349   4.364   1.805  16.522  0.8002 -0.6188 -0.0758
 8953TIP3    H148350   4.325   1.719  16.533  0.3729 -0.3668  0.4430
 8953TIP3    H248351   4.457   1.792  16.542  0.7195 -0.9371  0.0967
 8954TIP3   OH248352   1.616   3.958  14.708 -0.4373  0.9800 -0.5340
 8954TIP3    H148353   1.647   3.894  14.644 -1.9686  2.0895 -2.5278
 8954TIP3    H248354   1.692   3.979  14.761  1.1654  0.6172 -2.5596
 8955TIP3   OH248355   4.872   5.404   1.204 -0.3428 -0.7744  0.0529
 8955TIP3    H148356   4.881   5.489   1.160 -0.7024 -0.6120  0.2912
 8955TIP3    H248357   4.913   5.417   1.290 -0.9284 -0.6626  0.3200
 8956TIP3   OH248358   1.624   6.077   3.194 -0.0521 -1.2390 -0.2371
 8956TIP3    H148359   1.551   6.098   3.252 -0.7090  0.6954 -1.6508
 8956TIP3    H248360   1.620   5.982   3.185 -1.4694 -1.3335  0.8808
 8957TIP3   OH248361   5.130   4.667  16.420 -0.1615 -0.4750 -0.4836
 8957TIP3    H148362   5.139   4.762  16.430 -1.1594 -0.6220  2.6325
 8957TIP3    H248363   5.036   4.651  16.422  0.0213 -1.5951 -0.0879
 8958TIP3   OH248364   0.335   1.208   1.005  0.1138 -0.0964  0.1353
 8958TIP3    H148365   0.273   1.166   0.945  2.0011  0.6685 -2.5169
 8958TIP3    H248366   0.302   1.297   1.016 -0.2498 -0.2462  0.2877
 8959TIP3   OH248367   2.945   5.999   2.835  0.2689 -0.2878 -0.5053
 8959TIP3    H148368   3.032   5.962   2.823  0.0127 -0.6485 -1.3313
 8959TIP3    H248369   2.939   6.016   2.929  1.2766 -0.1226 -0.4572
 8960TIP3   OH248370   1.690   0.792   6.166 -0.0067  0.2295  0.7528
 8960TIP3    H148371   1.761   0.809   6.229 -0.4698 -1.4809  1.7945
 8960TIP3    H248372   1.623   0.747   6.217 -0.8460 -0.2804 -0.7480
 8961TIP3   OH248373   2.072   0.930  11.629 -0.2785  0.3340 -0.2792
 8961TIP3    H148374   2.157   0.901  11.598 -1.0796 -0.2243 -2.0358
 8961TIP3    H248375   2.078   0.925  11.725  2.2406  2.0252 -0.2483
 8962TIP3   OH248376   5.554   4.723   4.839  0.2076 -0.1269  0.1795
 8962TIP3    H148377   5.610   4.782   4.889 -0.0808 -1.1660  1.8080
 8962TIP3    H248378   5.609   4.646   4.822 -0.3368 -0.6785  0.8166
 8963TIP3   OH248379   3.476   6.237  13.786 -0.4530 -0.3293 -0.0751
 8963TIP3    H148380   3.406   6.276  13.839 -0.1074 -1.3402  1.2008
 8963TIP3    H248381   3.461   6.270  13.698 -0.7532  1.8759  0.7330
 8964TIP3   OH248382   4.366   2.426   2.578 -0.6957 -0.0810  0.4063
 8964TIP3    H148383   4.300   2.493   2.555  0.5643  0.7514 -0.9374
 8964TIP3    H248384   4.449   2.463   2.547  0.2366 -1.6568  0.9495
 8965TIP3   OH248385   2.572   4.836   0.648 -0.1533 -0.3851  0.0328
 8965TIP3    H148386   2.526   4.754   0.630 -2.3531 -0.0746  3.3998
 8965TIP3    H248387   2.590   4.833   0.742  2.4594  1.7338 -0.2867
 8966TIP3   OH248388   3.627   2.328  14.596 -0.0557 -0.0989  0.3081
 8966TIP3    H148389   3.608   2.366  14.682 -2.5635 -1.2103  0.3066
 8966TIP3    H248390   3.619   2.234  14.609  1.3355 -0.3962 -0.7741
 8967TIP3   OH248391   1.954   5.599  14.773 -0.4613  0.5403  0.4516
 8967TIP3    H148392   1.865   5.575  14.748 -0.5067  1.4842 -0.3204
 8967TIP3    H248393   2.004   5.596  14.692 -0.2122  1.8696  0.5354
 8968TIP3   OH248394   3.741   0.376   6.398  0.1823 -0.3745  0.3063
 8968TIP3    H148395   3.679   0.435   6.355  0.7359 -0.9734 -1.4033
 8968TIP3    H248396   3.705   0.289   6.383  1.2317 -0.7041 -0.3817
 8969TIP3   OH248397   5.022   2.454   3.535 -0.1701  0.3487  0.1903
 8969TIP3    H148398   4.941   2.453   3.484 -1.0801  0.7654  1.5694
 8969TIP3    H248399   5.022   2.372   3.583 -0.3834  0.8458  1.0705
 8970TIP3   OH248400   3.040   3.565   1.614  0.5717  0.1208 -0.2932
 8970TIP3    H148401   3.097   3.642   1.622  0.5547  0.0178  1.1929
 8970TIP3    H248402   2.952   3.602   1.608  0.3752  0.2729  2.2382
 8971TIP3   OH248403   6.739   3.290   0.874 -0.1236 -0.3300 -0.4451
 8971TIP3    H148404   6.674   3.245   0.820 -0.2513  0.4051 -0.9250
 8971TIP3    H248405   6.704   3.379   0.885 -0.5202 -0.7038  1.6039
 8972TIP3   OH248406   3.793   0.298   1.663  0.5676  0.2217 -0.3014
 8972TIP3    H148407   3.709   0.256   1.675 -0.0098  0.7126 -2.2353
 8972TIP3    H248408   3.828   0.260   1.582  1.6302  0.9240 -0.2006
 8973TIP3   OH248409   1.925   6.700   4.610  0.0226 -0.0752 -0.3212
 8973TIP3    H148410   2.003   6.752   4.631  0.6606 -0.3755 -1.7903
 8973TIP3    H248411   1.890   6.740   4.530 -0.4840 -0.8289 -0.4882
 8974TIP3   OH248412   1.804   3.233  12.285 -0.4495 -0.2942  0.2737
 8974TIP3    H148413   1.767   3.254  12.199  0.6581  1.6912  0.2066
 8974TIP3    H248414   1.754   3.158  12.315 -0.7142 -1.2237 -2.2130
 8975TIP3   OH248415   4.785   0.387  13.473  0.5289 -0.3533 -0.2440
 8975TIP3    H148416   4.732   0.334  13.413 -0.8183 -0.2385  0.8021
 8975TIP3    H248417   4.821   0.456  13.417  0.0438 -0.7772 -1.1078
 8976TIP3   OH248418   4.446   2.871  11.222 -0.6015 -0.6845 -0.1229
 8976TIP3    H148419   4.374   2.808  11.220 -0.1311 -1.2128 -1.7630
 8976TIP3    H248420   4.522   2.820  11.248 -0.3295 -0.6835 -0.8983
 8977TIP3   OH248421   5.824   3.768  11.344  0.4546 -0.2787  0.0049
 8977TIP3    H148422   5.879   3.745  11.269 -0.5428 -0.1347 -0.7798
 8977TIP3    H248423   5.770   3.840  11.313  0.5434  0.2726  1.1022
 8978TIP3   OH248424   4.846   3.306   1.272  0.0368 -0.1009 -0.6426
 8978TIP3    H148425   4.812   3.395   1.269  1.4890  0.4699 -1.3520
 8978TIP3    H248426   4.864   3.285   1.180 -1.0245 -1.4371 -0.5697
 8979TIP3   OH248427   4.402   3.478   4.800 -0.3701  0.3411 -0.1958
 8979TIP3    H148428   4.379   3.456   4.710 -0.6160  1.1626 -0.3345
 8979TIP3    H248429   4.427   3.394   4.839 -2.9288 -0.5388 -0.2257
 8980TIP3   OH248430   6.452   1.350  12.177  0.4448  0.0817 -0.5188
 8980TIP3    H148431   6.393   1.315  12.110  1.0880 -0.5928 -0.7614
 8980TIP3    H248432   6.522   1.285  12.182  1.0456  0.7495 -0.0801
 8981TIP3   OH248433   4.119   0.158   0.086  0.0918 -0.3718 -0.5021
 8981TIP3    H148434   4.097   0.202   0.004 -1.7547 -0.1748  0.0556
 8981TIP3    H248435   4.094   0.220   0.155 -1.3717 -1.7343  0.2618
 8982TIP3   OH248436   5.284   1.281  10.598 -0.4033  0.6304 -0.3977
 8982TIP3    H148437   5.347   1.226  10.644 -0.9189 -1.2909 -1.8691
 8982TIP3    H248438   5.200   1.236  10.609 -0.9695  1.4754 -1.0859
 8983TIP3   OH248439   3.079   6.723   6.232  0.7799 -0.3013 -1.1932
 8983TIP3    H148440   3.106   6.735   6.141  0.1945  0.7171 -1.2335
 8983TIP3    H248441   3.040   6.806   6.257 -2.2426 -1.6465 -1.0898
 8984TIP3   OH248442   5.184   3.639   3.033  0.1454 -0.5944  0.2041
 8984TIP3    H148443   5.154   3.548   3.039  2.5748 -1.6995 -2.0166
 8984TIP3    H248444   5.216   3.660   3.120 -2.7837 -0.8740  1.4508
 8985TIP3   OH248445   2.982   5.987   0.207 -0.1661  0.1187 -0.2318
 8985TIP3    H148446   2.923   5.926   0.253 -0.4051  1.3085  1.1021
 8985TIP3    H248447   2.931   6.068   0.199  0.6419  0.5924 -0.7127
 8986TIP3   OH248448   6.513   6.641   2.723 -0.2120 -0.8238  0.2253
 8986TIP3    H148449   6.557   6.617   2.642 -1.1125 -0.9108 -0.2556
 8986TIP3    H248450   6.426   6.671   2.695 -0.6502 -1.1634  1.1777
 8987TIP3   OH248451   2.727   2.946   3.810 -0.0786 -0.0313 -0.2808
 8987TIP3    H148452   2.690   2.885   3.873  1.7200  0.1302  0.9915
 8987TIP3    H248453   2.771   3.013   3.863 -0.1734  1.1877 -1.6712
 8988TIP3   OH248454   6.145   1.461   5.868  0.2074  0.0587  0.6212
 8988TIP3    H148455   6.157   1.419   5.954 -0.6222  0.8599  1.1434
 8988TIP3    H248456   6.205   1.535   5.869  0.3187 -0.0295  0.4403
 8989TIP3   OH248457   5.667   6.055  11.864 -0.8797 -0.0177  0.0414
 8989TIP3    H148458   5.670   6.148  11.889 -2.2121  0.8539 -2.6475
 8989TIP3    H248459   5.619   6.013  11.935  0.5380  1.1087  1.7862
 8990TIP3   OH248460   1.426   0.250  15.562  0.8000  0.2531  0.1264
 8990TIP3    H148461   1.343   0.216  15.529 -0.3182  1.7985  1.2271
 8990TIP3    H248462   1.488   0.179  15.548 -0.9773 -1.4522  0.4691
 8991TIP3   OH248463   4.538   2.137  11.686 -0.4882 -0.3345 -0.1890
 8991TIP3    H148464   4.519   2.214  11.633 -1.6736 -0.3920  0.1264
 8991TIP3    H248465   4.518   2.063  11.629  0.5222 -0.4170 -0.4479
 8992TIP3   OH248466   5.200   1.244  15.048  0.3564 -0.3213  0.5291
 8992TIP3    H148467   5.170   1.326  15.007 -2.3916 -1.3629  0.2430
 8992TIP3    H248468   5.272   1.215  14.992 -2.3282 -0.9645 -3.0134
 8993TIP3   OH248469   6.118   4.323   1.039 -0.5915  0.0565  0.0798
 8993TIP3    H148470   6.109   4.409   1.082  2.2087  0.9400 -0.8126
 8993TIP3    H248471   6.053   4.323   0.970 -2.2649  0.4059  1.5887
 8994TIP3   OH248472   6.287   0.005  16.074 -0.6392 -0.1773 -0.3008
 8994TIP3    H148473   6.368  -0.037  16.104 -0.3166 -0.0271 -0.9464
 8994TIP3    H248474   6.261   0.061  16.147 -1.7309 -2.3601  1.0905
 8995TIP3   OH248475   3.292   1.588  13.123 -0.1826 -0.0553  0.1228
 8995TIP3    H148476   3.379   1.578  13.083  0.0070 -1.8569  0.8736
 8995TIP3    H248477   3.309   1.628  13.208 -0.2345  0.7256 -0.2262
 8996TIP3   OH248478   0.274   3.639  13.710  0.0366 -0.2589 -0.1259
 8996TIP3    H148479   0.247   3.595  13.790 -1.7507 -0.0468 -0.5781
 8996TIP3    H248480   0.200   3.627  13.650  1.7715 -1.4248 -2.1767
 8997TIP3   OH248481   4.409   5.756   3.316 -0.7796  0.2810  0.4873
 8997TIP3    H148482   4.487   5.700   3.320 -0.9610  0.0938  1.6304
 8997TIP3    H248483   4.341   5.700   3.281 -1.1463 -0.4639  2.3073
 8998TIP3   OH248484   0.898   1.770   4.576  0.0975  0.1853  0.5171
 8998TIP3    H148485   0.896   1.839   4.643  0.3130  0.8096 -0.1095
 8998TIP3    H248486   0.806   1.751   4.559  0.0220  0.7418  0.2713
 8999TIP3   OH248487   2.312   5.072  12.457  0.2140 -0.2672 -0.3223
 8999TIP3    H148488   2.296   5.095  12.548 -0.0883  0.7844 -0.6247
 8999TIP3    H248489   2.384   5.009  12.460  0.1437 -0.3086  0.6404
 9000TIP3   OH248490   6.027   4.000  11.936 -0.4177 -0.1238  0.5607
 9000TIP3    H148491   6.098   4.058  11.908  2.7370 -3.0353  1.8073
 9000TIP3    H248492   5.968   4.057  11.984 -0.0949  2.8374 -2.1634
 9001TIP3   OH248493   5.997   1.661   2.468  0.9010 -0.4658  0.6632
 9001TIP3    H148494   5.914   1.645   2.512  0.8640 -0.8577  0.4582
 9001TIP3    H248495   6.011   1.755   2.477  0.2965 -0.3495  0.4606
 9002TIP3   OH248496   4.290   6.225   3.004 -0.2888 -0.4102 -0.2686
 9002TIP3    H148497   4.343   6.189   2.932 -1.7988 -1.4349 -0.9154
 9002TIP3    H248498   4.233   6.153   3.030 -1.4476  0.6852  0.3333
 9003TIP3   OH248499   4.121   4.160   3.595 -0.4305  0.4171  0.6326
 9003TIP3    H148500   4.086   4.216   3.664  1.0190  1.0238  0.9125
 9003TIP3    H248501   4.133   4.219   3.520  0.0844  0.2488  0.5812
 9004TIP3   OH248502   4.259   5.972  14.712  0.7076 -0.3591 -0.6625
 9004TIP3    H148503   4.320   6.021  14.765  1.6460 -1.1010 -1.0188
 9004TIP3    H248504   4.211   5.917  14.774  1.2676 -0.6682 -0.4990
 9005TIP3   OH248505   5.480   5.890   0.983  0.3798 -0.1535 -0.3164
 9005TIP3    H148506   5.478   5.985   0.995  2.1322 -0.2384  1.2134
 9005TIP3    H248507   5.417   5.857   1.047  1.1769 -0.0687  0.5414
 9006TIP3   OH248508   3.769   4.316  13.168 -0.2157  0.5605 -0.4204
 9006TIP3    H148509   3.806   4.245  13.117  2.8089  1.1825  0.6813
 9006TIP3    H248510   3.822   4.392  13.146  0.9717  0.9810  3.1422
 9007TIP3   OH248511   2.293   1.189   2.159 -0.4590  0.2793  0.2002
 9007TIP3    H148512   2.296   1.193   2.255 -1.0021 -1.3034  0.3297
 9007TIP3    H248513   2.287   1.280   2.131  0.9739  0.8562  1.6034
 9008TIP3   OH248514   2.705   3.338  13.008  0.0012  0.6172  0.0703
 9008TIP3    H148515   2.790   3.300  13.030  0.2776  0.7861 -0.6869
 9008TIP3    H248516   2.711   3.429  13.040  0.8771  1.2508 -1.7731
 9009TIP3   OH248517   5.904   5.145   2.235  0.6656  0.7827  0.1971
 9009TIP3    H148518   5.878   5.211   2.171  1.0441  1.0996  0.3665
 9009TIP3    H248519   5.899   5.191   2.319  0.7316  0.5357  0.3364
 9010TIP3   OH248520   1.884   5.949  11.228 -0.5062 -0.3870 -0.4415
 9010TIP3    H148521   1.953   6.001  11.270 -0.4788 -0.6434 -0.1704
 9010TIP3    H248522   1.905   5.954  11.135  1.0604 -2.1124 -0.2421
 9011TIP3   OH248523   1.401   6.195  12.028 -0.3496  0.0236 -0.4681
 9011TIP3    H148524   1.406   6.206  12.123  1.3256  0.0019 -0.5133
 9011TIP3    H248525   1.325   6.247  12.001 -1.3204 -0.6070  0.9529
 9012TIP3   OH248526   1.981   0.786   4.957 -0.0492 -0.3179  0.0081
 9012TIP3    H148527   1.950   0.846   5.025 -0.6221 -0.6365  0.0393
 9012TIP3    H248528   1.914   0.791   4.889  1.2175  1.0931 -1.2171
 9013TIP3   OH248529   4.665   0.018   4.953 -0.6781 -0.1323  0.1410
 9013TIP3    H148530   4.667  -0.010   4.861  1.4840  2.1215 -0.6113
 9013TIP3    H248531   4.694  -0.059   5.002 -0.0618 -0.8333 -1.2542
 9014TIP3   OH248532   0.713   4.326  10.939  0.4387 -0.2797 -0.0880
 9014TIP3    H148533   0.747   4.355  11.023 -0.8686  1.1957 -0.0274
 9014TIP3    H248534   0.778   4.356  10.875  0.1659  0.9214  0.1793
 9015TIP3   OH248535   5.708   2.894   4.215  0.1083 -0.0537  0.4442
 9015TIP3    H148536   5.681   2.933   4.298 -2.7540  0.8266 -0.7984
 9015TIP3    H248537   5.705   2.799   4.231 -1.0940  0.0892  1.1453
 9016TIP3   OH248538   6.538   5.802   1.411  0.4255 -0.0283  0.6055
 9016TIP3    H148539   6.566   5.780   1.500  0.8595 -0.9935  0.2513
 9016TIP3    H248540   6.597   5.751   1.355  0.2624  0.6955 -0.2350
 9017TIP3   OH248541   3.731   2.401   4.401 -0.0286  0.2161 -0.1404
 9017TIP3    H148542   3.749   2.358   4.484 -0.5863 -2.2968 -1.2228
 9017TIP3    H248543   3.812   2.449   4.381  0.7359 -0.5209  1.0510
 9018TIP3   OH248544   5.597   4.075   3.783  0.5189  0.0604  0.2571
 9018TIP3    H148545   5.666   4.012   3.766  0.3624  0.1025 -0.5611
 9018TIP3    H248546   5.621   4.153   3.732  1.5767  1.3170  2.5060
 9019TIP3   OH248547   2.642   3.502   0.423  0.0435 -0.1380 -0.3054
 9019TIP3    H148548   2.595   3.449   0.488 -2.8038 -0.8140 -2.7087
 9019TIP3    H248549   2.652   3.444   0.348  0.9426  1.3863 -1.4143
 9020TIP3   OH248550   4.864   0.137  15.188  0.2622  0.1673  0.1763
 9020TIP3    H148551   4.833   0.228  15.188  0.8549  0.3737  0.5381
 9020TIP3    H248552   4.949   0.140  15.144  1.4710  0.2308  2.3403
 9021TIP3   OH248553   5.334   5.269  15.271 -0.3797  0.2630 -0.2718
 9021TIP3    H148554   5.372   5.308  15.350 -0.7343  0.6208 -0.2755
 9021TIP3    H248555   5.395   5.294  15.201 -0.3593  0.4231 -0.1989
 9022TIP3   OH248556   0.500   1.334   1.294  0.0770  0.4305 -0.1198
 9022TIP3    H148557   0.521   1.259   1.238 -0.2556  0.5584 -0.4178
 9022TIP3    H248558   0.576   1.342   1.352 -0.5653 -1.1399  1.0105
 9023TIP3   OH248559   4.943   0.947   0.039  0.7223 -0.5174  0.1295
 9023TIP3    H148560   4.883   0.965  -0.034  1.3564  0.0706 -0.2632
 9023TIP3    H248561   4.891   0.897   0.101  0.3688 -1.7200 -1.0733
 9024TIP3   OH248562   6.294   2.317  16.356  0.2151  0.0713 -0.1476
 9024TIP3    H148563   6.217   2.321  16.299 -0.5041 -1.6249  0.6367
 9024TIP3    H248564   6.314   2.409  16.375 -2.5698  0.5731  0.8297
 9025TIP3   OH248565   2.545   1.610  16.965 -0.7999 -0.2174 -0.5187
 9025TIP3    H148566   2.579   1.603  16.876 -0.7477  0.9711 -0.6001
 9025TIP3    H248567   2.579   1.692  16.999  0.9185 -1.6049  1.3843
 9026TIP3   OH248568   0.866   6.544   2.251  0.5580  0.1573  0.3805
 9026TIP3    H148569   0.961   6.546   2.262  0.5002  1.9430  0.7889
 9026TIP3    H248570   0.833   6.612   2.310 -1.0357 -0.8311  0.6967
 9027TIP3   OH248571   1.827   4.478   0.645  0.2637  0.0453  0.1353
 9027TIP3    H148572   1.852   4.552   0.701  1.6685 -0.7333  0.6064
 9027TIP3    H248573   1.793   4.412   0.706 -0.4854  0.1036 -0.2185
 9028TIP3   OH248574   4.361   0.308   4.836  0.3901 -0.1325 -0.6303
 9028TIP3    H148575   4.343   0.402   4.832 -0.4511 -0.3387 -2.8353
 9028TIP3    H248576   4.339   0.276   4.749 -0.7209 -2.6341  0.4874
 9029TIP3   OH248577   2.685   5.349  13.199  0.2368  0.0195  0.1798
 9029TIP3    H148578   2.657   5.393  13.280 -2.0077 -2.8764  1.1618
 9029TIP3    H248579   2.630   5.388  13.131  1.2289  1.5670  0.2108
 9030TIP3   OH248580   3.443   1.986   2.880 -0.3640  0.2697 -0.5553
 9030TIP3    H148581   3.515   2.047   2.898  0.4998 -0.9345  0.2125
 9030TIP3    H248582   3.419   2.005   2.789  0.0005  1.6129 -0.4058
 9031TIP3   OH248583   5.656   0.186  12.581 -0.5163  0.6266  0.1155
 9031TIP3    H148584   5.604   0.193  12.662  0.9700  2.7219  0.9908
 9031TIP3    H248585   5.670   0.277  12.554  0.4634  0.0141 -1.5632
 9032TIP3   OH248586   3.278   6.036  14.320  0.0349 -0.3610 -0.5279
 9032TIP3    H148587   3.184   6.042  14.336 -0.0781 -1.2918 -0.7520
 9032TIP3    H248588   3.305   6.126  14.301 -0.5176  0.1705  1.0720
 9033TIP3   OH248589   3.413   0.822   1.117  0.0634  0.9913 -0.4259
 9033TIP3    H148590   3.377   0.827   1.028  0.3188  1.1552 -0.5235
 9033TIP3    H248591   3.493   0.874   1.113 -0.0781  1.2452 -0.0215
 9034TIP3   OH248592   2.899   1.838  12.458 -0.5461 -0.1410  0.2684
 9034TIP3    H148593   2.876   1.762  12.404 -1.7840 -0.2248  0.8706
 9034TIP3    H248594   2.986   1.818  12.492  0.0368 -0.3303 -1.2492
 9035TIP3   OH248595   4.961   5.353   2.125 -0.0813  0.3491 -0.1771
 9035TIP3    H148596   4.907   5.427   2.096 -1.2735 -0.8473 -1.1832
 9035TIP3    H248597   4.934   5.337   2.216  0.5059  1.3967  0.1961
 9036TIP3   OH248598   6.390   0.927  12.929 -0.6133  0.2940  0.4878
 9036TIP3    H148599   6.355   0.959  12.846  1.2377  3.0647  0.6151
 9036TIP3    H248600   6.442   0.850  12.906 -0.3844  0.8323 -0.9096
 9037TIP3   OH248601   3.363   3.024   4.083  0.0242 -0.5481  0.1865
 9037TIP3    H148602   3.356   2.973   4.163  3.1089 -1.7989 -0.2209
 9037TIP3    H248603   3.438   3.082   4.097 -0.4368  0.4374 -1.1658
 9038TIP3   OH248604   0.910   4.733  12.205 -0.1463  0.4838  0.2382
 9038TIP3    H148605   0.973   4.694  12.266  0.1508 -0.2905 -0.5420
 9038TIP3    H248606   0.875   4.809  12.252 -1.5580 -1.3005  2.2375
 9039TIP3   OH248607   5.705   0.831   3.440  0.2731  0.3983  0.3245
 9039TIP3    H148608   5.779   0.772   3.425 -0.7363 -1.0773  0.9986
 9039TIP3    H248609   5.666   0.842   3.353  0.4150  0.0170  0.2100
 9040TIP3   OH248610   3.624   1.408  15.841  0.2339  0.1662  0.4757
 9040TIP3    H148611   3.637   1.406  15.746  0.4974  0.4971  0.5016
 9040TIP3    H248612   3.559   1.477  15.854  2.7283  2.6399  0.7870
 9041TIP3   OH248613   4.027   2.217   3.426  0.3623  0.1887  0.0718
 9041TIP3    H148614   3.995   2.288   3.480 -0.5773 -0.5885  0.5538
 9041TIP3    H248615   4.120   2.211   3.448  0.3431  0.9337  0.3898
 9042TIP3   OH248616   6.216   6.155   2.587 -0.4149  0.2706  0.1563
 9042TIP3    H148617   6.297   6.119   2.550 -0.4212  1.8316 -1.4725
 9042TIP3    H248618   6.149   6.092   2.562 -0.1829  0.5694 -1.2778
 9043TIP3   OH248619   1.084   4.399  14.843 -0.5801 -0.7953  0.0054
 9043TIP3    H148620   1.038   4.330  14.891 -1.0604  0.0814  0.8179
 9043TIP3    H248621   1.056   4.480  14.884 -0.0870 -0.0974 -1.0046
 9044TIP3   OH248622   4.802   1.407   0.254 -0.5185 -0.1895 -0.2654
 9044TIP3    H148623   4.836   1.478   0.200 -1.7032 -1.3657 -2.7264
 9044TIP3    H248624   4.866   1.336   0.245 -0.2873 -0.1149  0.6410
 9045TIP3   OH248625   2.200   3.637   3.074  0.6412  0.1289  0.2009
 9045TIP3    H148626   2.267   3.686   3.027  1.0790 -0.2782  0.3906
 9045TIP3    H248627   2.211   3.547   3.044  0.5860 -0.0473  0.7048
 9046TIP3   OH248628   3.704   4.765  13.024  0.2515 -0.1402 -0.5467
 9046TIP3    H148629   3.714   4.711  12.946 -1.8002 -0.0748 -0.9111
 9046TIP3    H248630   3.610   4.764  13.042  0.3594  1.9599  0.4016
 9047TIP3   OH248631   1.023   6.146  12.459 -0.2477  0.5853  0.1831
 9047TIP3    H148632   1.052   6.217  12.403  0.7592 -0.6885 -0.9791
 9047TIP3    H248633   1.104   6.114  12.501 -0.9116  1.2029  2.0248
 9048TIP3   OH248634   0.797   5.981   0.098  0.0728  0.1286  0.6424
 9048TIP3    H148635   0.832   6.046   0.160 -1.1300 -0.0265  1.5200
 9048TIP3    H248636   0.829   6.010   0.013  4.0182 -1.1119  1.4992
 9049TIP3   OH248637   3.503   5.598   5.740 -0.2708 -0.3481 -0.1173
 9049TIP3    H148638   3.546   5.536   5.799 -0.4725 -0.8196 -0.4516
 9049TIP3    H248639   3.508   5.682   5.785 -0.0782 -0.6263  0.3925
 9050TIP3   OH248640   4.558   6.729  14.913  0.1958 -0.3356  0.1449
 9050TIP3    H148641   4.550   6.650  14.966 -0.5892 -0.2533  0.1490
 9050TIP3    H248642   4.599   6.699  14.831  1.5323 -0.4418  0.8152
 9051TIP3   OH248643   6.043   6.061  16.552  0.1907 -0.2733  1.0649
 9051TIP3    H148644   6.105   6.118  16.507 -1.0825 -0.3304 -0.8626
 9051TIP3    H248645   6.093   5.981  16.570  0.5486 -0.5822 -1.0488
 9052TIP3   OH248646   4.716   2.549  12.078  0.1272  0.0547 -0.5798
 9052TIP3    H148647   4.811   2.535  12.075  0.3468  1.4520 -1.0686
 9052TIP3    H248648   4.679   2.472  12.036  1.0482 -0.5166 -0.3671
 9053TIP3   OH248649   1.149   1.021   0.454 -0.3153  0.0198 -0.3839
 9053TIP3    H148650   1.186   0.932   0.454 -1.0395 -0.3192  1.2419
 9053TIP3    H248651   1.106   1.029   0.369 -0.6466 -1.3948 -0.3742
 9054TIP3   OH248652   1.281   4.172   4.343  0.2435 -0.0391  0.4835
 9054TIP3    H148653   1.372   4.166   4.314 -0.4345  1.3808 -2.2770
 9054TIP3    H248654   1.244   4.085   4.324  0.8286 -0.4102  1.0052
 9055TIP3   OH248655   4.588   3.778  16.728  0.0123 -0.7191 -0.4031
 9055TIP3    H148656   4.533   3.802  16.654  0.1729  0.7668 -0.0931
 9055TIP3    H248657   4.559   3.836  16.799  1.6235 -0.2374 -0.0920
 9056TIP3   OH248658   3.194   3.377  15.303  0.2775  0.6652 -0.1568
 9056TIP3    H148659   3.133   3.448  15.322  1.3523  2.0485 -1.6449
 9056TIP3    H248660   3.278   3.421  15.285  0.9250 -0.9421 -1.3183
 9057TIP3   OH248661   1.906   3.420   5.159 -0.3726  0.1888 -0.2278
 9057TIP3    H148662   1.878   3.414   5.251 -0.0090  0.3607 -0.1059
 9057TIP3    H248663   1.930   3.512   5.148  1.0695 -0.1463 -0.0639
 9058TIP3   OH248664   0.079   2.505  12.350 -0.3133  0.2982  0.5611
 9058TIP3    H148665   0.125   2.421  12.337 -0.6628 -0.0905  1.7060
 9058TIP3    H248666   0.089   2.523  12.444  1.7711  2.7395 -0.0039
 9059TIP3   OH248667   3.615   4.173  17.151 -0.2586 -0.3951  0.1047
 9059TIP3    H148668   3.701   4.193  17.187 -0.5592 -0.3160  0.8082
 9059TIP3    H248669   3.632   4.116  17.076  0.4020 -0.4512  0.2941
 9060TIP3   OH248670   5.010   4.388   0.941  0.3191 -0.2517 -0.1844
 9060TIP3    H148671   4.995   4.476   0.909 -1.8247 -0.2294  0.6944
 9060TIP3    H248672   5.105   4.382   0.954  0.3480  2.6657  1.7984
 9061TIP3   OH248673   4.610   4.478   5.821  0.1507 -0.4072  0.0758
 9061TIP3    H148674   4.637   4.415   5.754 -1.7154  0.0481 -1.1980
 9061TIP3    H248675   4.579   4.425   5.893 -1.5159 -1.0060 -1.0324
 9062TIP3   OH248676   1.377   6.229  15.830 -0.3859  0.0951  0.2720
 9062TIP3    H148677   1.370   6.133  15.826 -0.6354  0.0582  1.3831
 9062TIP3    H248678   1.417   6.246  15.915 -0.8829  1.0141  0.3273
 9063TIP3   OH248679   2.834   4.098  16.489  0.0874 -0.4130  0.1364
 9063TIP3    H148680   2.902   4.040  16.524 -0.1556 -0.8260 -0.0718
 9063TIP3    H248681   2.881   4.180  16.470  0.4584 -0.5810  0.3104
 9064TIP3   OH248682   5.668   6.464   0.734  0.0891  0.1832  0.5103
 9064TIP3    H148683   5.600   6.526   0.706 -0.4582 -0.9353 -0.7527
 9064TIP3    H248684   5.700   6.425   0.652  0.1977 -1.4150  1.2701
 9065TIP3   OH248685   4.783   4.372   3.715  0.2764 -0.5366  0.1320
 9065TIP3    H148686   4.742   4.403   3.635 -0.7842 -0.5725  0.6420
 9065TIP3    H248687   4.717   4.316   3.756  0.3619  0.3573  1.5736
 9066TIP3   OH248688   4.986   0.948   6.515  0.1748  0.3811  0.1637
 9066TIP3    H148689   4.979   1.016   6.582  1.2926  2.7783 -1.9767
 9066TIP3    H248690   5.080   0.940   6.499 -0.0576 -0.2714 -0.9644
 9067TIP3   OH248691   0.135   6.801  12.645  0.1977  0.0280 -0.1475
 9067TIP3    H148692   0.074   6.781  12.574 -1.0984 -0.2766  1.0325
 9067TIP3    H248693   0.159   6.893  12.630 -1.5654  0.5567  0.0954
 9068TIP3   OH248694   4.338   4.596  14.676 -0.6465 -0.2291  0.4136
 9068TIP3    H148695   4.356   4.689  14.686 -0.2284 -0.3073  0.4328
 9068TIP3    H248696   4.300   4.570  14.759 -1.7518  0.1409  0.0348
 9069TIP3   OH248697   0.154   4.639  17.131 -0.1221 -0.1724  0.3898
 9069TIP3    H148698   0.077   4.662  17.079 -0.6455  1.8761  1.9254
 9069TIP3    H248699   0.123   4.643  17.221  1.4915 -0.6475  0.9928
 9070TIP3   OH248700   0.384   1.138  11.415 -0.2120  0.2176 -0.1212
 9070TIP3    H148701   0.369   1.062  11.359  1.5372  1.6171 -2.7104
 9070TIP3    H248702   0.329   1.206  11.379 -1.2613  0.4363  1.7670
 9071TIP3   OH248703   5.013   0.793  12.312  0.6269 -0.4152  0.2482
 9071TIP3    H148704   4.932   0.843  12.304  0.3218 -0.9852 -0.3831
 9071TIP3    H248705   5.062   0.836  12.382 -0.2587 -0.1180  0.6946
 9072TIP3   OH248706   4.773   5.716   0.189 -0.3551  0.6504 -0.3160
 9072TIP3    H148707   4.837   5.657   0.150 -2.0087 -1.1072 -0.5095
 9072TIP3    H248708   4.771   5.692   0.281 -0.5698  0.8512 -0.2666
 9073TIP3   OH248709   4.333   3.133   1.345 -0.2691  0.4032 -0.0918
 9073TIP3    H148710   4.260   3.188   1.315  0.0907  0.5494 -0.7262
 9073TIP3    H248711   4.403   3.195   1.365 -0.3927  0.2798  0.7495
 9074TIP3   OH248712   1.006   0.029  14.216 -0.2942 -0.1110  0.0134
 9074TIP3    H148713   1.093  -0.006  14.235 -0.5327  0.0725  1.5003
 9074TIP3    H248714   1.006   0.039  14.121  1.1086 -0.6334 -0.0770
 9075TIP3   OH248715   2.867   5.693  11.491 -0.0973 -0.1505 -0.2449
 9075TIP3    H148716   2.956   5.723  11.475 -0.7456  1.8235 -0.4091
 9075TIP3    H248717   2.824   5.766  11.535 -1.4231 -1.3773  0.6112
 9076TIP3   OH248718   5.410   0.861  13.782 -0.5885 -0.0254  0.2213
 9076TIP3    H148719   5.352   0.810  13.838  0.0306 -1.1950 -0.1745
 9076TIP3    H248720   5.401   0.821  13.695 -1.0649  1.3599 -0.4028
 9077TIP3   OH248721   5.187   4.422  12.296  0.0719 -0.3108  0.3264
 9077TIP3    H148722   5.110   4.371  12.271 -0.5513  0.9954 -0.5423
 9077TIP3    H248723   5.192   4.491  12.230  1.2915  0.3351  1.0672
 9078TIP3   OH248724   4.525   0.139  17.106  0.0982 -0.3662  0.4093
 9078TIP3    H148725   4.544   0.049  17.077  0.2184  0.7780 -3.5866
 9078TIP3    H248726   4.597   0.191  17.070 -1.8642  1.8044 -0.5946
 9079TIP3   OH248727   3.767   0.598   3.733 -0.3959 -0.7288 -0.2841
 9079TIP3    H148728   3.827   0.551   3.676 -0.1117  0.4238 -0.9824
 9079TIP3    H248729   3.792   0.573   3.821  1.2978 -0.0959 -0.5467
 9080TIP3   OH248730   1.541   1.552   4.757  0.2122  0.5047  0.3365
 9080TIP3    H148731   1.594   1.569   4.679  0.5115  1.2941  0.7074
 9080TIP3    H248732   1.457   1.593   4.738  0.0462  0.0840  0.1452
 9081TIP3   OH248733   5.111   1.404  15.527 -0.0076  0.1483 -0.0883
 9081TIP3    H148734   5.086   1.424  15.437  1.5082 -0.5637 -0.7118
 9081TIP3    H248735   5.072   1.319  15.544  0.0053  0.1204 -0.1968
 9082TIP3   OH248736   5.334   3.600   5.939  0.3866 -0.1367 -0.3786
 9082TIP3    H148737   5.289   3.650   5.870  0.7421  1.9041  0.8177
 9082TIP3    H248738   5.426   3.607   5.917  0.4268 -0.5403 -0.3523
 9083TIP3   OH248739   3.248   4.475   1.862 -0.8525  0.0401  0.4033
 9083TIP3    H148740   3.284   4.406   1.919 -0.4710 -1.2832 -1.3582
 9083TIP3    H248741   3.304   4.551   1.877  1.3670 -1.3151 -0.6607
 9084TIP3   OH248742   3.775   6.761  14.142  0.1628  0.2577  0.3198
 9084TIP3    H148743   3.703   6.734  14.085 -1.7707  2.8859  1.3100
 9084TIP3    H248744   3.830   6.817  14.087  1.5392 -1.7276 -0.4281
 9085TIP3   OH248745   6.739   5.942  14.483 -0.2718 -0.0260 -0.3694
 9085TIP3    H148746   6.818   5.978  14.442  0.1087 -0.0277  0.3422
 9085TIP3    H248747   6.667   5.987  14.440  0.1914  3.5112  2.1251
 9086TIP3   OH248748   1.003   4.481   6.629  0.0997  0.2985  0.1941
 9086TIP3    H148749   0.973   4.568   6.657 -1.7067  0.0084 -0.6861
 9086TIP3    H248750   0.959   4.466   6.545 -2.8329 -3.0337  2.0598
 9087TIP3   OH248751   4.550   1.491   2.933 -0.1262 -0.3248 -0.2072
 9087TIP3    H148752   4.512   1.412   2.896 -2.8343  1.2765 -1.1113
 9087TIP3    H248753   4.506   1.503   3.016 -1.4379  1.3641 -1.0900
 9088TIP3   OH248754   1.630   4.285  15.393 -0.2680  0.1611  0.1330
 9088TIP3    H148755   1.545   4.268  15.432  0.3489 -0.8196  1.0772
 9088TIP3    H248756   1.687   4.305  15.467  0.7187 -0.8665 -0.3349
 9089TIP3   OH248757   5.534   5.340   3.958  0.2404  0.5994 -0.0655
 9089TIP3    H148758   5.562   5.380   3.876  0.6075  0.8371  0.1716
 9089TIP3    H248759   5.452   5.386   3.980 -0.4437 -0.2156 -0.8431
 9090TIP3   OH248760   2.957   6.812   1.359 -0.1887  0.4208 -0.1571
 9090TIP3    H148761   3.021   6.742   1.366 -0.9630 -0.6925 -2.9996
 9090TIP3    H248762   3.000   6.878   1.305 -0.2543  1.2239  0.7377
 9091TIP3   OH248763   2.725   1.492   4.167 -0.4493  0.2738 -0.8113
 9091TIP3    H148764   2.672   1.441   4.229  1.2392  0.0085  0.4762
 9091TIP3    H248765   2.812   1.454   4.173  0.2136  1.5703 -1.8684
 9092TIP3   OH248766   1.504   3.255   3.088 -0.6072 -0.0797 -0.6683
 9092TIP3    H148767   1.450   3.215   3.156  0.9893 -0.4011  0.4755
 9092TIP3    H248768   1.523   3.343   3.120  0.7856 -0.4923 -0.2937
 9093TIP3   OH248769   4.679   3.226   1.806 -0.5576 -0.4967  0.2808
 9093TIP3    H148770   4.676   3.141   1.763  2.4268 -1.2677  1.3229
 9093TIP3    H248771   4.724   3.210   1.889 -0.0464  2.0643  0.5985
 9094TIP3   OH248772   1.482   1.422   5.309  0.0833  0.5320  0.0843
 9094TIP3    H148773   1.394   1.435   5.274 -0.4030 -2.2873  0.0381
 9094TIP3    H248774   1.540   1.435   5.233 -0.4303  0.6294 -0.2948
 9095TIP3   OH248775   4.807   4.828  15.582 -0.0151  0.0664 -0.5106
 9095TIP3    H148776   4.843   4.774  15.652  0.9521 -0.3103 -1.2815
 9095TIP3    H248777   4.859   4.806  15.505 -1.4558  0.0060 -1.5118
 9096TIP3   OH248778   3.882   6.371   0.757  0.0254  0.3258  0.4992
 9096TIP3    H148779   3.916   6.281   0.752 -0.0004  0.3643 -0.5115
 9096TIP3    H248780   3.816   6.367   0.827  3.6105  0.7784  4.2413
 9097TIP3   OH248781   1.748   1.780  14.593 -0.2589 -0.2682 -0.1858
 9097TIP3    H148782   1.830   1.777  14.643  0.5437  0.4849 -1.4024
 9097TIP3    H248783   1.719   1.871  14.599 -1.8172 -0.8269  1.4438
 9098TIP3   OH248784   2.282   0.136  14.231 -0.2209  0.3810 -0.2062
 9098TIP3    H148785   2.260   0.072  14.298 -2.9262  0.3614 -0.9792
 9098TIP3    H248786   2.244   0.100  14.150 -0.9050  2.4166 -0.8606
 9099TIP3   OH248787   5.332   1.721  10.787 -0.3630  1.0771 -0.0078
 9099TIP3    H148788   5.386   1.753  10.714 -0.3635 -0.6075 -0.7916
 9099TIP3    H248789   5.259   1.782  10.791  0.7823  2.5098  0.0674
 9100TIP3   OH248790   6.599   1.347   2.436  0.1242  0.1960 -0.1782
 9100TIP3    H148791   6.620   1.372   2.346  0.6666  0.6376  0.0629
 9100TIP3    H248792   6.604   1.252   2.435  0.6544  0.2199 -0.4961
 9101TIP3   OH248793   2.084   2.495  14.450 -1.0091 -0.5405  0.2732
 9101TIP3    H148794   2.026   2.421  14.468  0.4293 -1.6566  0.4688
 9101TIP3    H248795   2.101   2.533  14.537 -1.6229 -0.0584  0.1893
 9102TIP3   OH248796   5.831   2.083   4.983  0.0744  0.1486  0.0358
 9102TIP3    H148797   5.820   2.025   4.908  1.4895 -0.6013  0.3620
 9102TIP3    H248798   5.772   2.156   4.966 -1.5703 -1.2479 -0.5105
 9103TIP3   OH248799   4.376   0.750   2.876  0.0225 -0.4385 -0.2246
 9103TIP3    H148800   4.437   0.799   2.820 -0.1104 -3.1935 -3.0928
 9103TIP3    H248801   4.298   0.805   2.882  1.1247  1.1801 -0.2978
 9104TIP3   OH248802   5.374   4.017  14.775  0.0021 -0.0231  0.6757
 9104TIP3    H148803   5.320   4.059  14.842 -0.3635  1.6699 -0.5887
 9104TIP3    H248804   5.458   4.062  14.779 -0.2345  0.5700 -0.3861
 9105TIP3   OH248805   3.566   3.406  15.293  0.5886  0.7750  0.0930
 9105TIP3    H148806   3.583   3.484  15.240  0.2931  2.0663  1.8148
 9105TIP3    H248807   3.502   3.434  15.358 -1.7258 -1.6781 -0.9245
 9106TIP3   OH248808   6.812   2.516  11.817  0.1814  0.5903  0.3071
 9106TIP3    H148809   6.895   2.496  11.861  0.1203 -0.3098  0.0339
 9106TIP3    H248810   6.796   2.608  11.836  1.0408  0.6627  0.7040
 9107TIP3   OH248811   0.272   3.119   4.351 -0.4803 -0.5845 -0.1031
 9107TIP3    H148812   0.247   3.181   4.282  0.9182  1.4519  1.1146
 9107TIP3    H248813   0.195   3.061   4.360 -2.8252  2.3355  0.1992
 9108TIP3   OH248814   0.525   2.813   0.198 -0.7967  0.6270  0.0423
 9108TIP3    H148815   0.574   2.748   0.248  1.8070  0.7792 -2.0212
 9108TIP3    H248816   0.445   2.768   0.171  0.5509 -1.5450 -0.6442
 9109TIP3   OH248817   1.094   0.974   4.464  0.1352 -0.0770 -0.4860
 9109TIP3    H148818   1.179   0.943   4.433  0.0553 -0.9626  0.1219
 9109TIP3    H248819   1.055   1.018   4.389  1.6510  1.4703 -0.4171
 9110TIP3   OH248820   0.867   0.631  12.842 -0.4354  0.4112 -0.0606
 9110TIP3    H148821   0.890   0.540  12.855  0.0443  0.5856  0.3348
 9110TIP3    H248822   0.888   0.673  12.925  0.6524  1.1486 -0.6889
 9111TIP3   OH248823   6.148   4.523   4.144  0.1776  0.2152 -0.1855
 9111TIP3    H148824   6.186   4.577   4.213 -1.8679 -1.0671  2.1089
 9111TIP3    H248825   6.059   4.504   4.174 -0.0383 -2.3604 -2.0577
 9112TIP3   OH248826   5.727   6.776   0.798 -0.2547 -0.3408 -0.1143
 9112TIP3    H148827   5.679   6.761   0.716 -0.3380 -1.8165  0.1688
 9112TIP3    H248828   5.660   6.779   0.866 -0.3137  2.2028 -0.1830
 9113TIP3   OH248829   2.932   0.927   6.228  0.5256  0.1125  0.2232
 9113TIP3    H148830   2.911   0.989   6.298  0.3204  0.6543 -0.3125
 9113TIP3    H248831   2.906   0.842   6.263 -0.1199  0.4507  0.5847
 9114TIP3   OH248832   5.392   6.762   0.060 -0.0182  0.8193 -0.3509
 9114TIP3    H148833   5.484   6.741   0.076 -0.2678  0.4355  0.6805
 9114TIP3    H248834   5.393   6.853   0.029  0.5377  1.7589  2.1759
 9115TIP3   OH248835   0.220   2.268  10.300  0.4270 -1.0258  0.2783
 9115TIP3    H148836   0.200   2.320  10.378  0.1371 -1.6064  0.5947
 9115TIP3    H248837   0.143   2.279  10.244 -0.8725 -3.2605  1.4971
 9116TIP3   OH248838   0.314   5.295  13.327  0.1729 -0.3976 -0.0149
 9116TIP3    H148839   0.334   5.383  13.297  0.1669 -0.2252  0.4794
 9116TIP3    H248840   0.279   5.250  13.250  2.7377 -0.8228 -1.0409
 9117TIP3   OH248841   0.027   5.865   5.876 -0.2157 -0.3044  0.0323
 9117TIP3    H148842  -0.011   5.953   5.872 -3.0492 -1.4437 -4.3784
 9117TIP3    H248843  -0.044   5.810   5.907  0.7669 -1.4182  0.3623
 9118TIP3   OH248844   6.489   3.755   0.155  0.1459 -0.3763 -0.5354
 9118TIP3    H148845   6.420   3.797   0.104  1.4384  0.0267 -2.0525
 9118TIP3    H248846   6.511   3.818   0.224  0.5589  0.5065 -1.4534
 9119TIP3   OH248847   5.460   2.392   0.488 -0.1219  0.2422 -0.0765
 9119TIP3    H148848   5.443   2.445   0.410  0.6427  1.7787  0.7532
 9119TIP3    H248849   5.383   2.405   0.543 -0.0440  0.2742  0.0238
 9120TIP3   OH248850   4.232   3.295   5.960  0.1953 -0.0686 -0.3090
 9120TIP3    H148851   4.291   3.267   5.890  1.4753  0.2031  0.6237
 9120TIP3    H248852   4.290   3.313   6.035 -0.7675  2.6744 -0.0997
 9121TIP3   OH248853   3.454   2.392   2.835 -0.4739  0.0023 -0.1952
 9121TIP3    H148854   3.389   2.416   2.901 -1.6556 -0.9279 -0.9803
 9121TIP3    H248855   3.456   2.467   2.775  0.4240  0.7434  0.7258
 9122TIP3   OH248856   0.388   3.528   2.838  0.3612  0.4127  0.0514
 9122TIP3    H148857   0.388   3.524   2.933  1.8319 -0.7652  0.0395
 9122TIP3    H248858   0.297   3.545   2.814 -0.6429 -2.2433  1.5823
 9123TIP3   OH248859   2.594   5.522  13.419  0.0528 -0.6880  0.4252
 9123TIP3    H148860   2.626   5.602  13.376  1.4521 -0.0965  2.4104
 9123TIP3    H248861   2.501   5.519  13.398 -0.3046  2.1511  1.2466
 9124TIP3   OH248862   5.947   3.426  16.994 -0.4366 -0.0785 -0.5820
 9124TIP3    H148863   6.041   3.440  17.005 -0.1128 -0.8703 -1.9934
 9124TIP3    H248864   5.922   3.368  17.066  0.1930  0.0087 -0.2872
 9125TIP3   OH248865   4.316   4.661   5.395  0.0120 -0.2989  0.1894
 9125TIP3    H148866   4.229   4.690   5.367 -0.7188 -0.0472  2.5599
 9125TIP3    H248867   4.299   4.598   5.465  1.7413 -1.2679 -0.2196
 9126TIP3   OH248868   0.900   3.635  13.909  0.3101  0.1584 -1.0100
 9126TIP3    H148869   0.828   3.572  13.903  0.1481  0.2945 -0.5237
 9126TIP3    H248870   0.875   3.706  13.850  0.9146 -0.6279 -2.2747
 9127TIP3   OH248871   4.914   6.580   6.008  0.1235 -0.1125 -0.3483
 9127TIP3    H148872   4.882   6.642   6.074  1.3889  0.2667 -0.0719
 9127TIP3    H248873   4.969   6.632   5.951 -0.4086 -0.5921 -1.3155
 9128TIP3   OH248874   2.974   1.804  11.117  0.5173  0.4770 -0.1198
 9128TIP3    H148875   3.056   1.834  11.156  0.4038  1.5225 -0.6600
 9128TIP3    H248876   2.971   1.710  11.137  2.2550  0.2396 -0.8264
 9129TIP3   OH248877   1.501   4.569   3.865 -0.1424  0.4106 -0.1753
 9129TIP3    H148878   1.518   4.529   3.950  0.2261  0.1372 -0.3723
 9129TIP3    H248879   1.534   4.659   3.874  2.0300 -0.2491 -0.7054
 9130TIP3   OH248880   6.525   0.362  16.418 -0.0991 -0.3878  0.3364
 9130TIP3    H148881   6.587   0.422  16.376 -0.6038  1.7991  2.4513
 9130TIP3    H248882   6.455   0.350  16.354  0.6322  0.2899 -0.6231
 9131TIP3   OH248883   3.338   2.396  16.277  0.3765  0.3865  0.0847
 9131TIP3    H148884   3.336   2.486  16.310 -0.0528  0.2237  0.5192
 9131TIP3    H248885   3.394   2.349  16.338 -2.4286 -0.4989  2.1839
 9132TIP3   OH248886   0.165   1.252   4.832 -0.0114  0.3681 -0.8692
 9132TIP3    H148887   0.211   1.316   4.778 -0.2358  1.2456 -0.0434
 9132TIP3    H248888   0.072   1.269   4.814 -0.0614 -0.4436 -1.4448
 9133TIP3   OH248889   0.827   3.584  17.012 -0.6218  0.3122 -0.2081
 9133TIP3    H148890   0.746   3.580  16.961 -0.2955 -1.4502 -0.6159
 9133TIP3    H248891   0.801   3.555  17.100 -0.5161  0.1587 -0.2285
 9134TIP3   OH248892   4.737   2.796  13.258 -0.2233 -0.4130  0.1906
 9134TIP3    H148893   4.756   2.889  13.253 -1.9897 -0.0885 -1.7522
 9134TIP3    H248894   4.642   2.790  13.269 -0.0505 -2.0090  1.3246
 9135TIP3   OH248895   6.242   6.087   5.458  0.2511 -0.1184  0.2517
 9135TIP3    H148896   6.299   6.022   5.418  1.8188  0.6582  1.1200
 9135TIP3    H248897   6.162   6.085   5.405  2.2464  1.0069 -3.0901
 9136TIP3   OH248898   3.553   5.978   1.131 -0.2357  0.2540  0.0293
 9136TIP3    H148899   3.639   5.945   1.157  1.1354  1.7841 -2.2490
 9136TIP3    H248900   3.538   5.943   1.043 -1.3048  1.1316 -0.1662
 9137TIP3   OH248901   1.257   2.310   3.243  0.1169  0.2419 -0.4297
 9137TIP3    H148902   1.248   2.246   3.314 -2.2629  1.1477  0.1577
 9137TIP3    H248903   1.352   2.322   3.235  0.5390 -1.5250  1.0804
 9138TIP3   OH248904   6.590   1.714  16.602  0.0573  0.5596  0.4611
 9138TIP3    H148905   6.518   1.662  16.567  1.0336 -0.3365 -0.2780
 9138TIP3    H248906   6.551   1.764  16.674 -0.7668 -1.7851  1.7561
 9139TIP3   OH248907   6.426   1.189   5.016  0.7820 -0.4250  0.6514
 9139TIP3    H148908   6.387   1.119   4.964 -0.8894 -0.8347  2.3296
 9139TIP3    H248909   6.405   1.165   5.107  2.1441  1.0969  1.4108
 9140TIP3   OH248910   5.588   5.621   1.190 -0.2055  0.2652  0.3307
 9140TIP3    H148911   5.658   5.584   1.243 -1.0307 -1.0011  0.5886
 9140TIP3    H248912   5.609   5.714   1.182  1.6334 -0.1346  0.1717
 9141TIP3   OH248913   5.059   1.266  17.128 -0.3347 -0.0645 -0.0368
 9141TIP3    H148914   5.018   1.191  17.086 -0.5128 -0.4184  0.7416
 9141TIP3    H248915   5.137   1.230  17.171  1.4019  0.7474 -2.2812
 9142TIP3   OH248916   5.263   6.652   3.265 -0.0538  0.1659 -0.0992
 9142TIP3    H148917   5.272   6.679   3.174  0.3315 -1.1281 -0.4635
 9142TIP3    H248918   5.353   6.648   3.298 -0.1341 -0.2015  0.0810
 9143TIP3   OH248919   4.954   6.046  16.693 -0.3936 -0.3034 -0.5029
 9143TIP3    H148920   4.891   5.978  16.672  0.9516 -1.9882  0.6178
 9143TIP3    H248921   4.950   6.054  16.789 -2.1917  2.9550 -0.7166
 9144TIP3   OH248922   4.240   2.635  15.422  0.2817 -0.3907 -0.0545
 9144TIP3    H148923   4.194   2.711  15.386  0.1396 -0.5336 -0.1757
 9144TIP3    H248924   4.287   2.599  15.347  1.1629  0.1696  0.2195
 9145TIP3   OH248925   5.447   1.624   2.182 -0.2903  0.1732 -0.0392
 9145TIP3    H148926   5.480   1.616   2.272 -0.0565  0.4698 -0.0965
 9145TIP3    H248927   5.379   1.691   2.187 -0.1467  0.3245 -0.1187
 9146TIP3   OH248928   2.910   2.462   2.676 -0.1899  0.4237 -0.4960
 9146TIP3    H148929   2.863   2.429   2.599 -0.9155 -1.8771  0.8144
 9146TIP3    H248930   3.003   2.455   2.652 -0.3939 -0.7346 -1.0176
 9147TIP3   OH248931   5.413   4.052  11.412 -0.0528 -0.2129 -0.4998
 9147TIP3    H148932   5.325   4.033  11.380 -0.2673  0.5024 -0.3691
 9147TIP3    H248933   5.398   4.095  11.497  0.3874  0.5870 -0.8186
 9148TIP3   OH248934   0.238   0.967   4.221  0.0480  0.0625  0.3657
 9148TIP3    H148935   0.283   0.923   4.294 -0.4584  0.0650  0.6825
 9148TIP3    H248936   0.305   0.973   4.153  1.1625  1.8142  1.5056
 9149TIP3   OH248937   4.468   0.897   3.314 -0.7055  0.3944  0.0598
 9149TIP3    H148938   4.401   0.961   3.289 -0.5749  0.7359  0.5779
 9149TIP3    H248939   4.474   0.839   3.238 -0.5981  1.1807 -0.5527
 9150TIP3   OH248940   5.268   3.618   2.350  0.6075 -0.0564 -0.2231
 9150TIP3    H148941   5.308   3.581   2.428  0.2168 -0.1954 -0.0897
 9150TIP3    H248942   5.289   3.556   2.280  2.1194  0.7270 -0.5197
 9151TIP3   OH248943   4.510   4.134  13.610  0.4495  0.1254  0.0701
 9151TIP3    H148944   4.590   4.187  13.614 -0.9267  2.3287  2.4509
 9151TIP3    H248945   4.461   4.171  13.536  0.9801 -0.2228 -0.4632
 9152TIP3   OH248946   2.755   0.847  11.437 -0.8490  0.3407  0.3281
 9152TIP3    H148947   2.798   0.894  11.508  0.3171  0.4835 -0.4465
 9152TIP3    H248948   2.819   0.847  11.366 -1.4371 -1.0463 -0.2349
 9153TIP3   OH248949   4.403   0.951  14.170  0.0533  0.3703 -0.2899
 9153TIP3    H148950   4.415   0.945  14.075 -0.6411 -0.5699 -0.3365
 9153TIP3    H248951   4.377   0.862  14.196  0.9160  0.4314  0.8837
 9154TIP3   OH248952   6.810   1.584  16.667 -0.1884 -0.2018  0.3545
 9154TIP3    H148953   6.728   1.634  16.659 -0.0175  0.0376  0.0879
 9154TIP3    H248954   6.790   1.499  16.629 -0.4349 -0.2849  0.6630
 9155TIP3   OH248955   1.284   6.706   5.704  0.0423 -0.8535  0.3618
 9155TIP3    H148956   1.264   6.664   5.788  1.3174  1.5947  1.9933
 9155TIP3    H248957   1.377   6.728   5.709  0.0357 -0.2205 -1.5120
 9156TIP3   OH248958   0.884   4.281   3.856 -0.8616  0.0266 -0.0875
 9156TIP3    H148959   0.810   4.245   3.807 -1.0037 -0.7971  0.6976
 9156TIP3    H248960   0.914   4.208   3.910  0.8172  0.2120 -0.7226
 9157TIP3   OH248961   1.125   6.279   6.434  0.1310 -0.1239 -0.0646
 9157TIP3    H148962   1.198   6.301   6.491  0.0255 -0.9546  0.4113
 9157TIP3    H248963   1.130   6.184   6.424 -0.9856 -0.2225  0.1207
 9158TIP3   OH248964   0.073   1.511   4.985 -0.0912 -0.5656 -0.1615
 9158TIP3    H148965   0.033   1.561   5.056 -0.2145  0.3545 -0.8611
 9158TIP3    H248966   0.163   1.497   5.014 -0.0074  0.2170 -0.0286
 9159TIP3   OH248967   5.523   3.735  16.824  0.2217 -0.1243  0.0654
 9159TIP3    H148968   5.502   3.698  16.739  1.1173  0.7359 -0.5464
 9159TIP3    H248969   5.596   3.683  16.856  1.2092  0.7966 -0.6105
 9160TIP3   OH248970   2.215   5.688  11.825  0.5448 -0.4264 -0.2743
 9160TIP3    H148971   2.258   5.641  11.754 -0.1158 -0.8361 -0.4118
 9160TIP3    H248972   2.218   5.628  11.899 -0.1160 -0.6189 -0.3919
 9161TIP3   OH248973   5.333   3.712  14.563 -0.1520 -0.5680 -0.3396
 9161TIP3    H148974   5.239   3.700  14.575  0.0139 -0.1174  1.9455
 9161TIP3    H248975   5.342   3.796  14.519 -0.8222 -1.3066 -1.9673
 9162TIP3   OH248976   1.695   6.046  14.429  0.3761 -0.3797 -0.1805
 9162TIP3    H148977   1.665   6.104  14.498 -0.6919  1.8901 -2.4266
 9162TIP3    H248978   1.785   6.074  14.411  0.8099 -1.2593  0.5181
 9163TIP3   OH248979   0.597   2.540   2.923  0.3296 -0.3318  0.8868
 9163TIP3    H148980   0.581   2.633   2.907 -0.1354 -0.8529 -2.4693
 9163TIP3    H248981   0.522   2.511   2.974 -2.7075  0.0887 -2.9354
 9164TIP3   OH248982   5.735   3.982   0.115 -0.5369 -0.2733  0.3793
 9164TIP3    H148983   5.671   3.955   0.182 -0.5123  0.1413  0.5749
 9164TIP3    H248984   5.727   4.077   0.111 -1.2959 -0.3692 -0.9802
 9165TIP3   OH248985   1.411   4.256  12.135 -0.5236  0.3690  0.2487
 9165TIP3    H148986   1.370   4.295  12.213 -0.1752  1.5213 -0.1239
 9165TIP3    H248987   1.357   4.286  12.062 -0.7422 -0.5588  0.0279
 9166TIP3   OH248988   0.821   1.131   3.621 -0.1596 -0.4025 -0.1293
 9166TIP3    H148989   0.818   1.056   3.563  1.8351 -0.3119 -0.4138
 9166TIP3    H248990   0.764   1.196   3.580  0.9702 -0.4458 -1.8920
 9167TIP3   OH248991   3.369   3.085   3.076  0.6117 -0.6794 -0.9224
 9167TIP3    H148992   3.425   3.132   3.139  0.6729 -2.8634  0.7747
 9167TIP3    H248993   3.291   3.139   3.069  1.0059  0.1072  0.3216
 9168TIP3   OH248994   5.534   0.552  14.816 -0.6677 -0.0786  0.0727
 9168TIP3    H148995   5.488   0.476  14.781 -0.0555 -0.7223  0.6228
 9168TIP3    H248996   5.596   0.576  14.748 -0.1449 -0.7278  0.3082
 9169TIP3   OH248997   5.585   1.366  12.084 -0.1213 -0.5849  0.3116
 9169TIP3    H148998   5.668   1.398  12.120 -0.5468 -0.1367  0.9128
 9169TIP3    H248999   5.546   1.442  12.041  0.2104 -1.0269 -0.8056
 9170TIP3   OH249000   4.693   1.758  13.188 -0.2090  0.0328 -0.1011
 9170TIP3    H149001   4.772   1.812  13.181  0.2069 -0.1949  2.0804
 9170TIP3    H249002   4.695   1.725  13.278 -0.2493 -3.9232 -1.3616
 9171TIP3   OH249003   5.939   1.756  13.260  0.0751 -0.6989  0.5781
 9171TIP3    H149004   5.896   1.748  13.344  0.9198 -1.9102  0.9213
 9171TIP3    H249005   5.924   1.847  13.234 -3.0852 -1.1940  0.3998
 9172TIP3   OH249006   2.534   4.286  14.747 -0.6770  0.5129 -0.0175
 9172TIP3    H149007   2.441   4.308  14.740 -0.9424 -0.0929  1.3415
 9172TIP3    H249008   2.535   4.203  14.794  0.5420  0.2313 -0.5158
 9173TIP3   OH249009   5.188   6.521  14.322 -0.0379  0.2074 -0.1190
 9173TIP3    H149010   5.148   6.578  14.388 -2.1093 -1.0156 -0.2037
 9173TIP3    H249011   5.274   6.499  14.357 -0.2163  1.3455  1.1138
 9174TIP3   OH249012   5.704   5.150   4.079 -0.2186 -0.0614  0.3464
 9174TIP3    H149013   5.647   5.225   4.059 -0.8546 -1.0958 -2.1265
 9174TIP3    H249014   5.717   5.154   4.174 -0.0654  3.2583  0.3017
 9175TIP3   OH249015   5.431   2.646   3.823  0.1794  0.3930 -0.1482
 9175TIP3    H149016   5.410   2.674   3.735 -2.1520 -0.7243 -0.0165
 9175TIP3    H249017   5.515   2.601   3.814  0.8301  1.7957 -1.4474
 9176TIP3   OH249018   3.209   5.362  15.266  0.4959  0.0682 -0.1412
 9176TIP3    H149019   3.216   5.267  15.265  0.4136  0.0658 -1.0315
 9176TIP3    H249020   3.248   5.390  15.183 -1.5471  0.6562 -0.9593
 9177TIP3   OH249021   2.535   6.091   5.816 -0.2195 -0.1837  0.4015
 9177TIP3    H149022   2.576   6.165   5.773 -2.3595  0.3514 -0.8869
 9177TIP3    H249023   2.459   6.071   5.761 -1.1709 -1.6514  2.1494
 9178TIP3   OH249024   1.159   0.429  16.586  0.7834  0.2594  0.1831
 9178TIP3    H149025   1.123   0.438  16.497  2.3849 -0.0305 -0.5278
 9178TIP3    H249026   1.082   0.414  16.641 -0.2624  0.5379 -1.1313
 9179TIP3   OH249027   0.933   6.264   5.812  0.1723  0.1468 -0.8512
 9179TIP3    H149028   0.928   6.358   5.793 -0.9702  0.3649  0.3604
 9179TIP3    H249029   1.027   6.248   5.827  0.3251  1.2263 -0.5006
 9180TIP3   OH249030   3.393   2.514  12.227  0.1557  0.3623  0.1173
 9180TIP3    H149031   3.426   2.570  12.157 -1.3110  1.4127  0.2274
 9180TIP3    H249032   3.462   2.449  12.239  1.5895  1.6865 -0.5233
 9181TIP3   OH249033   4.873   6.419   0.276 -0.1163  0.3614 -0.3830
 9181TIP3    H149034   4.927   6.377   0.344  0.4107  0.5027 -0.7056
 9181TIP3    H249035   4.793   6.368   0.273 -0.0089  0.1612  0.1259
 9182TIP3   OH249036   5.288   2.129   3.322 -0.4456  1.0845  0.1308
 9182TIP3    H149037   5.369   2.121   3.372 -1.0011  1.9755  1.2243
 9182TIP3    H249038   5.240   2.049   3.339 -0.0658  0.8208 -0.0305
 9183TIP3   OH249039   6.785   5.100  14.132 -0.0143  0.2697  0.5481
 9183TIP3    H149040   6.812   5.136  14.216  2.0191  0.1868  0.0011
 9183TIP3    H249041   6.824   5.159  14.067 -0.5991 -0.2928 -0.3415
 9184TIP3   OH249042   6.210   2.159  13.740  0.2323  0.1862  0.6294
 9184TIP3    H149043   6.227   2.218  13.666 -1.2448 -1.1174 -0.8001
 9184TIP3    H249044   6.289   2.105  13.745 -0.0736 -0.4245 -0.7014
 9185TIP3   OH249045   1.273   2.963   0.662  0.0431 -0.5447 -0.2028
 9185TIP3    H149046   1.206   2.900   0.635  1.0713 -1.7648  0.0022
 9185TIP3    H249047   1.343   2.909   0.698  0.2636  0.8138  1.5208
 9186TIP3   OH249048   4.217   5.458   5.729  0.5947  0.0256  0.2388
 9186TIP3    H149049   4.146   5.410   5.772  0.2199 -1.1335 -1.5454
 9186TIP3    H249050   4.280   5.476   5.799 -0.9885  0.2287  1.6769
 9187TIP3   OH249051   4.442   3.243  12.803 -0.4779 -0.1974 -0.2210
 9187TIP3    H149052   4.419   3.249  12.896 -0.8804 -0.5694 -0.2949
 9187TIP3    H249053   4.479   3.329  12.783  0.1513 -0.3127  0.4240
 9188TIP3   OH249054   5.729   1.430  10.669  0.3490 -0.1177 -0.4958
 9188TIP3    H149055   5.701   1.369  10.738  0.6920 -2.6773 -2.4668
 9188TIP3    H249056   5.759   1.507  10.716 -2.3336 -0.4708  2.0654
 9189TIP3   OH249057   4.571   0.445  14.899  0.1474 -0.1343  0.5843
 9189TIP3    H149058   4.647   0.437  14.957  0.7575  0.1845 -0.1623
 9189TIP3    H249059   4.607   0.475  14.816 -0.6419 -1.0873 -0.1339
 9190TIP3   OH249060   5.309   4.515  12.510 -0.1682  0.3220 -0.1701
 9190TIP3    H149061   5.389   4.534  12.462  0.1361 -0.5125 -0.0034
 9190TIP3    H249062   5.243   4.503  12.442 -0.1814  1.0920 -0.3051
 9191TIP3   OH249063   1.460   5.564   6.019 -0.4359 -0.4955  0.0155
 9191TIP3    H149064   1.460   5.550   6.113 -0.6064  1.5221  0.3608
 9191TIP3    H249065   1.526   5.504   5.985 -0.8501 -1.7224  1.3205
 9192TIP3   OH249066   3.438   1.053   5.189 -0.2512  0.6643  0.1477
 9192TIP3    H149067   3.444   0.963   5.222 -0.2276  0.5560 -0.1508
 9192TIP3    H249068   3.526   1.089   5.204  0.5479 -0.1771 -2.0528
 9193TIP3   OH249069   4.479   5.380   5.268 -0.0419  0.4283  0.3118
 9193TIP3    H149070   4.439   5.406   5.351  0.7828  0.0953  0.8219
 9193TIP3    H249071   4.557   5.331   5.293 -0.6267 -1.0794 -0.6332
 9194TIP3   OH249072   3.881   6.152  15.850 -0.0225  0.7076  0.3315
 9194TIP3    H149073   3.906   6.079  15.906  1.7522  1.1999  0.2464
 9194TIP3    H249074   3.786   6.145  15.842 -0.1117 -0.4164  1.9250
 9195TIP3   OH249075   0.580   3.195   1.194  0.1450 -0.5580  0.1452
 9195TIP3    H149076   0.648   3.161   1.135  0.1566 -0.2872  0.0035
 9195TIP3    H249077   0.521   3.120   1.207 -0.9356 -0.1157 -1.7599
 9196TIP3   OH249078   1.662   3.451  15.455 -0.1015 -0.0813  0.5095
 9196TIP3    H149079   1.696   3.541  15.459 -0.7527  0.1716  0.4492
 9196TIP3    H249080   1.689   3.420  15.368 -0.5918  0.3550  0.1903
 9197TIP3   OH249081   5.668   6.218   6.088 -0.2596 -0.2077 -0.0383
 9197TIP3    H149082   5.593   6.251   6.040 -0.0153 -0.8309 -0.8711
 9197TIP3    H249083   5.706   6.295   6.130 -2.5380 -0.1569  2.1182
 9198TIP3   OH249084   6.289   0.403  16.267 -0.3833 -0.0190  0.4119
 9198TIP3    H149085   6.254   0.490  16.247  1.8850  0.7228 -0.5653
 9198TIP3    H249086   6.265   0.350  16.191 -1.0723 -0.0683  0.6504
 9199TIP3   OH249087   3.049   6.808  13.075 -0.1596 -0.0288 -0.3722
 9199TIP3    H149088   3.109   6.873  13.039  0.3420 -0.4792 -0.3633
 9199TIP3    H249089   3.092   6.779  13.156 -1.1563  0.8072  0.4839
 9200TIP3   OH249090   0.888   4.810  17.082 -0.1598  0.2295  0.0149
 9200TIP3    H149091   0.802   4.841  17.054 -0.0215  0.7857  0.2032
 9200TIP3    H249092   0.871   4.755  17.158 -0.2346  1.4985  0.9521
 9201TIP3   OH249093   5.120   1.141  13.799  0.0383  0.4992  0.0312
 9201TIP3    H149094   5.045   1.109  13.748  1.5318 -0.7543 -1.5264
 9201TIP3    H249095   5.126   1.234  13.779 -1.9349  0.9612  1.3474
 9202TIP3   OH249096   3.931   6.592   4.532 -0.2996 -0.1928  0.0525
 9202TIP3    H149097   3.857   6.560   4.584  0.7180 -0.5344  1.3686
 9202TIP3    H249098   3.935   6.534   4.457  0.3348 -2.0161  1.4206
 9203TIP3   OH249099   1.947   4.778  14.143  0.2885 -0.5290  0.5359
 9203TIP3    H149100   1.907   4.764  14.229 -2.3096  2.5517  0.0125
 9203TIP3    H249101   2.026   4.828  14.160 -0.5273  0.5883  1.1666
 9204TIP3   OH249102   6.171   5.455   1.891 -0.5253  0.8579  0.1956
 9204TIP3    H149103   6.172   5.549   1.874 -0.5594  0.7540 -0.4198
 9204TIP3    H249104   6.203   5.446   1.980 -0.8957  1.4824  0.3970
 9205TIP3   OH249105   5.555   3.414   6.690 -0.3500  0.0791  0.6734
 9205TIP3    H149106   5.636   3.440   6.645 -0.2420 -0.4067  0.5850
 9205TIP3    H249107   5.542   3.323   6.666 -1.0545  0.2182  0.5027
 9206TIP3   OH249108   3.594   2.202   1.747 -0.3337  0.3699  0.2298
 9206TIP3    H149109   3.575   2.283   1.795  0.2469  1.7076 -1.6749
 9206TIP3    H249110   3.520   2.191   1.688  1.2295  1.6685 -2.1539
 9207TIP3   OH249111   2.176   0.361   4.814  0.3541  0.1695  0.2480
 9207TIP3    H149112   2.259   0.351   4.860  0.4663  0.2063  0.0545
 9207TIP3    H249113   2.160   0.455   4.814  0.2325  0.1494  0.4246
 9208TIP3   OH249114   6.061   5.763   0.844  0.4940  0.1273  0.4516
 9208TIP3    H149115   6.105   5.841   0.878 -2.1732  1.8476  0.2854
 9208TIP3    H249116   5.999   5.739   0.913 -1.3554  0.5262 -0.9731
 9209TIP3   OH249117   4.558   2.675  16.063  0.3628  0.0068 -0.1027
 9209TIP3    H149118   4.645   2.710  16.080  1.0209 -1.4920 -0.2240
 9209TIP3    H249119   4.537   2.624  16.141  0.4045 -1.1403 -0.8111
 9210TIP3   OH249120   6.486   5.003  12.755  0.0076 -0.4210  0.4591
 9210TIP3    H149121   6.501   5.084  12.706 -0.1251 -1.5887 -1.5862
 9210TIP3    H249122   6.469   4.937  12.688 -0.8180 -1.9661  2.1265
 9211TIP3   OH249123   0.488   1.095  15.879  0.0008 -0.1363 -0.5951
 9211TIP3    H149124   0.562   1.036  15.893  0.7921  1.2054  1.3820
 9211TIP3    H249125   0.445   1.062  15.800  2.5943 -1.0810 -1.7243
 9212TIP3   OH249126   4.725   4.755   5.593  0.0909  0.0712 -0.2036
 9212TIP3    H149127   4.688   4.670   5.568  0.3055 -0.2078  0.3886
 9212TIP3    H249128   4.661   4.792   5.654 -0.2019  0.5250 -0.7839
 9213TIP3   OH249129   2.159   3.264   3.929  0.0363  0.5211  0.0538
 9213TIP3    H149130   2.123   3.252   3.841 -0.7444  0.8503  0.3201
 9213TIP3    H249131   2.082   3.270   3.986  0.5018 -1.8802  1.0823
 9214TIP3   OH249132   3.165   4.613  15.874 -0.4174  0.2157  0.0635
 9214TIP3    H149133   3.107   4.589  15.802 -0.4797 -1.2250  0.5692
 9214TIP3    H249134   3.159   4.541  15.936  1.3949  0.3341  0.4544
 9215TIP3   OH249135   3.162   1.203   2.008  0.2013 -0.1773  0.2133
 9215TIP3    H149136   3.085   1.260   2.005  0.1083 -0.2975 -2.9702
 9215TIP3    H249137   3.229   1.255   2.053 -0.5520  1.5630 -0.6063
 9216TIP3   OH249138   0.888   3.347   1.612 -0.2690  0.4508 -0.3630
 9216TIP3    H149139   0.968   3.299   1.590 -0.7732 -0.1510 -0.9266
 9216TIP3    H249140   0.918   3.436   1.629  0.4640  0.3535 -1.0610
 9217TIP3   OH249141   1.383   2.582  16.349 -0.2818  0.0325 -0.7974
 9217TIP3    H149142   1.294   2.565  16.317 -1.2087  0.1895  1.4593
 9217TIP3    H249143   1.405   2.505  16.401  0.3626  0.5431 -0.2811
 9218TIP3   OH249144   0.297   6.514   6.592  0.2949 -0.0320 -0.0045
 9218TIP3    H149145   0.366   6.461   6.551  0.3092 -1.6401  1.9497
 9218TIP3    H249146   0.339   6.554   6.668 -0.8526 -0.9843  1.1862
 9219TIP3   OH249147   2.349   2.100   5.850 -0.4687  0.4211 -0.0435
 9219TIP3    H149148   2.283   2.169   5.860 -0.8959  0.1330 -0.8263
 9219TIP3    H249149   2.403   2.128   5.776  0.8568  1.0884  1.1240
 9220TIP3   OH249150   5.307   0.684   1.835  0.2099  0.0227 -0.1214
 9220TIP3    H149151   5.248   0.650   1.902 -0.7974 -0.8713 -1.3839
 9220TIP3    H249152   5.321   0.775   1.859  0.3439 -0.4298  1.5921
 9221TIP3   OH249153   5.533   5.081  12.678  0.1552 -0.1733  0.1455
 9221TIP3    H149154   5.567   5.006  12.628  0.2090 -0.2754  0.3356
 9221TIP3    H249155   5.544   5.156  12.619  1.4012 -0.0794  0.4658
 9222TIP3   OH249156   3.972   3.840  12.293 -0.1466  0.0167 -0.2444
 9222TIP3    H149157   3.945   3.766  12.239 -0.5328 -0.2571  0.3095
 9222TIP3    H249158   3.891   3.889  12.309  0.1221  0.6174 -0.6870
 9223TIP3   OH249159   6.041   0.710   0.646  0.0253  0.3822  0.6525
 9223TIP3    H149160   6.116   0.750   0.601 -0.0243  0.0472  0.2647
 9223TIP3    H249161   6.076   0.683   0.731  0.4425 -0.0803  0.3419
 9224TIP3   OH249162   5.969   3.148  14.583  0.2016  0.6044 -0.1906
 9224TIP3    H149163   5.935   3.111  14.502 -1.7762 -0.1984  0.9461
 9224TIP3    H249164   5.957   3.243  14.573 -3.1119  0.3597  0.3636
 9225TIP3   OH249165   3.282   5.610  14.236  0.3164  0.0794 -0.0767
 9225TIP3    H149166   3.247   5.620  14.324  2.4680 -1.5940  1.0849
 9225TIP3    H249167   3.320   5.695  14.214 -0.1261  0.4729  0.6782
 9226TIP3   OH249168   0.217   4.144  15.719 -0.3808  1.0160 -0.0112
 9226TIP3    H149169   0.297   4.180  15.759  0.4972  0.2023 -0.9875
 9226TIP3    H249170   0.188   4.213  15.660 -1.2201  1.8853  1.3428
 9227TIP3   OH249171   6.137   1.919   6.373  0.8328  0.5031  0.4432
 9227TIP3    H149172   6.196   1.994   6.378  1.6403  0.5917 -4.7910
 9227TIP3    H249173   6.050   1.955   6.391  1.3500  2.5143 -0.8439
 9228TIP3   OH249174   3.373   5.393   0.400  0.2486  0.2822 -0.3131
 9228TIP3    H149175   3.348   5.426   0.313 -0.5223 -1.2972 -0.7164
 9228TIP3    H249176   3.396   5.472   0.449 -1.4856  1.4423 -1.2455
 9229TIP3   OH249177   0.834   3.657  12.552 -0.5788 -0.2691  0.3140
 9229TIP3    H149178   0.923   3.682  12.577 -0.2326  0.8703 -1.8450
 9229TIP3    H249179   0.779   3.694  12.621  0.5063  0.2943  0.9056
 9230TIP3   OH249180   2.983   1.435   0.024  0.3005  0.1787  0.8933
 9230TIP3    H149181   2.920   1.370   0.055 -1.1680  1.5186  0.8451
 9230TIP3    H249182   2.964   1.443  -0.070  2.4836 -1.4292  0.2254
 9231TIP3   OH249183   1.647   3.279   0.559  0.0634 -0.2579 -0.0821
 9231TIP3    H149184   1.675   3.236   0.478  0.4475 -1.7710  0.7989
 9231TIP3    H249185   1.628   3.369   0.533  0.0880 -0.7168 -1.8599
 9232TIP3   OH249186   1.338   2.843  16.288  0.2217  0.2456  0.2211
 9232TIP3    H149187   1.348   2.755  16.323 -1.3740  0.2600  0.8199
 9232TIP3    H249188   1.267   2.836  16.224 -1.4464  1.4300  1.8171
 9233TIP3   OH249189   3.218   1.666  13.738 -0.1155  0.5331  0.7712
 9233TIP3    H149190   3.295   1.616  13.710  0.3682 -0.2396  3.2175
 9233TIP3    H249191   3.151   1.645  13.673  0.1798 -3.0568  1.3906
 9234TIP3   OH249192   5.028   5.616  12.312  0.0383  0.2859  0.4269
 9234TIP3    H149193   5.023   5.709  12.333 -3.6318  0.5029 -0.7952
 9234TIP3    H249194   5.037   5.613  12.217  0.7976 -0.6430  0.5090
 9235TIP3   OH249195   3.209   1.152   2.384 -0.2738 -0.4971 -0.0684
 9235TIP3    H149196   3.278   1.169   2.448  1.8963 -2.7275 -1.6136
 9235TIP3    H249197   3.202   1.056   2.381 -1.3260 -0.4266 -2.0947
 9236TIP3   OH249198   3.296   1.105  12.548  0.2652  0.2031  0.0384
 9236TIP3    H149199   3.239   1.124  12.474  0.4907 -0.1806 -0.2401
 9236TIP3    H249200   3.255   1.150  12.622  1.3543  2.6794 -0.7580
 9237TIP3   OH249201   3.456   5.386  12.228  0.4651  0.7960 -0.6108
 9237TIP3    H149202   3.519   5.434  12.282  0.7416  1.1302 -1.2227
 9237TIP3    H249203   3.370   5.414  12.261  0.6075 -0.2314  0.7330
 9238TIP3   OH249204   1.952   1.545   1.480  0.4110 -0.2289 -0.5821
 9238TIP3    H149205   1.858   1.534   1.492  0.2441  0.8171 -0.9014
 9238TIP3    H249206   1.981   1.595   1.557  0.3191  1.3750 -1.5557
 9239TIP3   OH249207   2.772   4.849   3.106  0.1111  0.2894 -0.1086
 9239TIP3    H149208   2.772   4.911   3.179 -0.7701 -0.9240  0.9670
 9239TIP3    H249209   2.692   4.867   3.058 -0.5323 -0.4818  0.6460
 9240TIP3   OH249210   1.691   1.331   4.807 -0.3076  0.3288  0.4569
 9240TIP3    H149211   1.636   1.409   4.809  0.6711  1.0200  1.0696
 9240TIP3    H249212   1.777   1.362   4.776 -0.8481 -1.1408 -3.0533
 9241TIP3   OH249213   3.609   4.472   5.895 -0.2045 -0.0697  0.2090
 9241TIP3    H149214   3.563   4.501   5.817  1.8010  1.1982 -0.5931
 9241TIP3    H249215   3.652   4.391   5.868  1.2219  0.8359 -0.3479
 9242TIP3   OH249216   4.200   4.064   4.442 -0.4511 -0.6001 -1.0770
 9242TIP3    H149217   4.283   4.103   4.414 -2.0059  1.4642 -3.1428
 9242TIP3    H249218   4.226   3.985   4.491  2.7336  0.8078 -0.2398
 9243TIP3   OH249219   5.723   1.009  13.710 -0.0432  0.0870 -0.0837
 9243TIP3    H149220   5.770   1.051  13.638  0.0859  0.7049  0.3543
 9243TIP3    H249221   5.669   1.078  13.747  0.4734 -0.0200  0.9074
 9244TIP3   OH249222   4.444   3.888  15.418 -0.2454  0.1210  0.2874
 9244TIP3    H149223   4.422   3.818  15.357 -1.5037  0.9548 -0.2467
 9244TIP3    H249224   4.361   3.911  15.460  0.3191  0.6485  1.1548
 9245TIP3   OH249225   5.161   3.263  17.192 -0.0489  0.3394  0.1577
 9245TIP3    H149226   5.090   3.320  17.164  0.5663  1.1479  0.2143
 9245TIP3    H249227   5.179   3.207  17.116 -0.7718  0.1036  0.1608
 9246TIP3   OH249228   1.366   2.795   0.895  0.2209  0.4226 -0.0224
 9246TIP3    H149229   1.439   2.792   0.833 -1.5847  1.1719 -2.3499
 9246TIP3    H249230   1.374   2.880   0.938  1.0560  0.2410  0.1848
 9247TIP3   OH249231   3.692   0.841  10.791  0.5233  0.1178  0.3464
 9247TIP3    H149232   3.761   0.775  10.796 -0.8123 -1.3542 -0.0806
 9247TIP3    H249233   3.739   0.925  10.795  2.2494 -0.8316  0.9661
 9248TIP3   OH249234   2.813   2.435  13.021 -0.3965 -0.0931  0.5249
 9248TIP3    H149235   2.763   2.364  13.061 -0.3572 -2.5064 -3.2422
 9248TIP3    H249236   2.797   2.426  12.927  2.7138  2.5174 -0.4501
 9249TIP3   OH249237   0.716   6.130  11.871 -0.7893  0.1352  0.0251
 9249TIP3    H149238   0.621   6.121  11.867 -0.7085 -0.5198 -0.6653
 9249TIP3    H249239   0.748   6.040  11.880 -0.1324  0.0495 -2.4995
 9250TIP3   OH249240   5.006   3.479   4.909  0.1628 -0.0210  0.0305
 9250TIP3    H149241   5.092   3.515   4.931  0.4372  0.0972 -1.1513
 9250TIP3    H249242   5.021   3.429   4.828 -1.3280  2.1379 -1.7061
 9251TIP3   OH249243   6.121   5.064   1.440  0.6030 -0.6479  0.0771
 9251TIP3    H149244   6.110   4.996   1.507  0.9835 -0.4197  0.3724
 9251TIP3    H249245   6.108   5.018   1.357 -0.8765 -0.7475  0.3217
 9252TIP3   OH249246   2.358   6.277   5.945  0.3436  0.2913  0.3439
 9252TIP3    H149247   2.338   6.184   5.954  0.0986  0.2034 -0.9810
 9252TIP3    H249248   2.448   6.279   5.911  0.5906  0.5636  0.9907
 9253TIP3   OH249249   1.115   5.644   4.475  0.0220  0.0172  0.6120
 9253TIP3    H149250   1.166   5.617   4.551  0.8300  0.8185  0.3812
 9253TIP3    H249251   1.056   5.712   4.508  0.7709  0.7715  0.4268
 9254TIP3   OH249252   2.271   5.432   4.837  0.2611 -0.4400  0.0161
 9254TIP3    H149253   2.276   5.527   4.832  0.6282 -0.5145 -1.6383
 9254TIP3    H249254   2.234   5.405   4.753 -2.4730 -1.6351  1.4697
 9255TIP3   OH249255   6.349   4.562   0.467  0.2610  0.1322 -0.1710
 9255TIP3    H149256   6.419   4.582   0.528 -0.2617  1.7136 -0.0245
 9255TIP3    H249257   6.282   4.518   0.520  0.7366 -0.5165 -0.1060
 9256TIP3   OH249258   6.429   4.544   3.391 -0.4030 -0.4061 -0.4508
 9256TIP3    H149259   6.384   4.603   3.451 -0.5749  0.1354 -1.0973
 9256TIP3    H249260   6.377   4.464   3.392  0.2937 -0.8795  1.0715
 9257TIP3   OH249261   4.286   1.441   5.512 -0.0006 -0.2724  0.1763
 9257TIP3    H149262   4.366   1.474   5.553 -1.0063  0.8358  1.3049
 9257TIP3    H249263   4.216   1.469   5.570 -1.0923 -3.0216  0.3567
 9258TIP3   OH249264   4.422   6.476   3.060 -0.1705  0.0071 -0.0218
 9258TIP3    H149265   4.503   6.483   3.009  0.7633 -2.9213  0.8444
 9258TIP3    H249266   4.370   6.412   3.012  0.5756 -2.5319  2.3116
 9259TIP3   OH249267   6.283   3.260  16.629 -0.2247  0.3223 -1.0776
 9259TIP3    H149268   6.306   3.167  16.628  0.9009  0.5863 -1.2366
 9259TIP3    H249269   6.367   3.305  16.619 -0.4273  1.4146  1.3623
 9260TIP3   OH249270   4.589   6.767  13.570  0.5741  0.5316  0.3246
 9260TIP3    H149271   4.495   6.759  13.587  0.4740  0.6970 -0.1493
 9260TIP3    H249272   4.629   6.694  13.618  0.3129  1.0748  1.4084
 9261TIP3   OH249273   2.495   6.650   0.449 -0.8226  0.3262  0.2218
 9261TIP3    H149274   2.476   6.659   0.542  0.7942  0.1598  0.5916
 9261TIP3    H249275   2.448   6.571   0.422 -0.9707  0.1459  0.9997
 9262TIP3   OH249276   4.457   4.021  14.528  0.6324  0.4475 -0.7728
 9262TIP3    H149277   4.385   4.073  14.565 -0.1956 -0.3842 -1.1801
 9262TIP3    H249278   4.413   3.952  14.478  1.7102 -0.9184  0.1110
 9263TIP3   OH249279   3.156   1.063   3.545  0.2783 -0.7395  0.1445
 9263TIP3    H149280   3.087   1.062   3.478 -0.5136 -0.4606  0.9441
 9263TIP3    H249281   3.221   1.001   3.512  0.3756  0.1085 -1.3685
 9264TIP3   OH249282   0.895   1.871   5.750  0.0543 -0.1189 -0.1929
 9264TIP3    H149283   0.931   1.959   5.760  1.1613 -0.6389  0.5781
 9264TIP3    H249284   0.843   1.858   5.829 -0.8778  0.1732 -0.7403
 9265TIP3   OH249285   3.929   1.331  16.704  0.3654  0.0971  0.1495
 9265TIP3    H149286   3.874   1.379  16.767 -1.8629 -1.5093 -0.4636
 9265TIP3    H249287   3.991   1.284  16.759  0.6849  1.3661  0.9218
 9266TIP3   OH249288   1.167   0.810   1.492  0.0447 -0.6145 -0.0383
 9266TIP3    H149289   1.250   0.854   1.479 -0.4360  0.7214  1.1639
 9266TIP3    H249290   1.102   0.880   1.496 -0.6974 -1.3263  2.4027
 9267TIP3   OH249291   3.002   4.208   1.828 -0.3163 -0.2790  0.4160
 9267TIP3    H149292   2.933   4.159   1.783 -1.1972  0.8717  0.4538
 9267TIP3    H249293   3.049   4.142   1.879 -0.9461 -1.2013 -0.1626
 9268TIP3   OH249294   4.261   1.299   3.270 -0.6747  0.3620 -0.4301
 9268TIP3    H149295   4.187   1.296   3.210 -0.4040  2.8609 -0.9838
 9268TIP3    H249296   4.243   1.373   3.327  0.0492 -0.7471  1.3373
 9269TIP3   OH249297   6.210   2.047  16.797  0.4309  0.0623 -0.5121
 9269TIP3    H149298   6.260   2.126  16.776  0.9645 -0.6915 -2.2053
 9269TIP3    H249299   6.122   2.066  16.767 -0.2706  1.1776  1.9745
 9270TIP3   OH249300   0.073   3.035  13.070 -0.2914 -0.3169  0.1128
 9270TIP3    H149301   0.053   2.976  12.997  0.7184 -0.4438 -0.0799
 9270TIP3    H249302   0.160   3.008  13.099 -0.6468 -0.2173  1.3235
 9271TIP3   OH249303   6.507   4.115   0.191 -0.2881  0.0996  0.1924
 9271TIP3    H149304   6.541   4.204   0.203 -0.2869  0.1956 -0.4750
 9271TIP3    H249305   6.503   4.104   0.096 -1.0352 -0.3306  0.2674
 9272TIP3   OH249306   5.130   3.830  15.051  0.2570 -0.6187 -0.1963
 9272TIP3    H149307   5.163   3.881  15.126  2.5892 -0.7527 -1.0440
 9272TIP3    H249308   5.081   3.758  15.091 -1.0258  0.8886  1.0888
 9273TIP3   OH249309   5.844   0.826  13.916  0.1464 -0.1384 -0.4950
 9273TIP3    H149310   5.914   0.813  13.980 -0.5659  1.8817  0.7995
 9273TIP3    H249311   5.874   0.900  13.863 -0.8634  0.6390 -0.0345
 9274TIP3   OH249312   6.081   5.393   2.226  0.2393  0.0196  0.4263
 9274TIP3    H149313   6.173   5.372   2.243  1.1385  3.0142 -0.0978
 9274TIP3    H249314   6.065   5.472   2.277  0.0144  3.3580 -4.1937
 9275TIP3   OH249315   2.464   4.184   0.302 -0.1543  0.1312 -0.1044
 9275TIP3    H149316   2.466   4.090   0.281 -0.8557  0.2646 -0.8786
 9275TIP3    H249317   2.436   4.225   0.220 -2.1386  0.7958  0.8414
 9276TIP3   OH249318   0.724   2.276  12.936 -0.8429  0.0129 -0.0214
 9276TIP3    H149319   0.771   2.225  13.002 -2.6833 -1.1926  0.4403
 9276TIP3    H249320   0.710   2.361  12.976 -1.1206 -0.4008  0.7691
 9277TIP3   OH249321   6.121   1.409  16.285  0.2518  0.3710  0.1758
 9277TIP3    H149322   6.194   1.460  16.250 -2.0683  2.9142 -1.3758
 9277TIP3    H249323   6.093   1.457  16.363  2.3988 -2.6819  3.1403
 9278TIP3   OH249324   2.481   0.146  11.578 -0.4432  0.3595 -0.2914
 9278TIP3    H149325   2.564   0.103  11.559 -0.5203 -0.0816  0.3244
 9278TIP3    H249326   2.479   0.152  11.674 -2.0368 -1.5341 -0.1484
 9279TIP3   OH249327   0.185   1.390  15.390  0.1375  0.7685 -0.5118
 9279TIP3    H149328   0.233   1.352  15.463 -1.0555  0.8556  0.3570
 9279TIP3    H249329   0.232   1.362  15.312 -0.2306 -1.8400  0.1290
 9280TIP3   OH249330   2.561   3.442   1.432  0.3528  0.0986 -0.3279
 9280TIP3    H149331   2.469   3.466   1.416 -0.0939 -0.1097  1.6529
 9280TIP3    H249332   2.559   3.348   1.449  0.6058  0.3671  1.4712
 9281TIP3   OH249333   1.844   3.472   3.133  0.2539 -0.1261 -0.2309
 9281TIP3    H149334   1.875   3.441   3.048 -0.2716  0.2318 -0.5589
 9281TIP3    H249335   1.751   3.491   3.119 -0.4152 -2.1455  0.9943
 9282TIP3   OH249336   2.689   6.549  13.409  0.1732  0.5792 -0.5752
 9282TIP3    H149337   2.674   6.636  13.445  0.6168  0.4987 -0.1808
 9282TIP3    H249338   2.779   6.551  13.377  0.3692  0.0960 -0.0665
 9283TIP3   OH249339   1.908   3.544   1.742 -0.1352 -0.3104  0.0544
 9283TIP3    H149340   1.856   3.569   1.666  1.1602 -0.3126 -0.8606
 9283TIP3    H249341   1.952   3.464   1.715  1.7101  0.6433  0.1374
 9284TIP3   OH249342   0.829   0.548   5.808 -0.4728  0.3372 -0.0760
 9284TIP3    H149343   0.924   0.556   5.799 -0.3859 -0.1570  0.4070
 9284TIP3    H249344   0.811   0.572   5.899 -0.7795  0.1356 -0.0816
 9285TIP3   OH249345   5.988   5.281   0.593 -0.4464  0.0442 -0.4935
 9285TIP3    H149346   6.007   5.353   0.533 -0.9946  0.2806 -0.3947
 9285TIP3    H249347   5.984   5.323   0.680 -1.4799  0.0317 -0.5195
 9286TIP3   OH249348   2.393   4.043  11.078  0.0876  0.0074 -0.1255
 9286TIP3    H149349   2.461   4.046  11.011 -1.7224  1.0100 -2.0136
 9286TIP3    H249350   2.352   4.129  11.076 -2.8069 -1.2740 -0.7899
 9287TIP3   OH249351   0.271   0.175  15.050 -0.0230 -0.1375  0.0900
 9287TIP3    H149352   0.237   0.124  14.977  1.4186 -0.4567 -0.3960
 9287TIP3    H249353   0.193   0.201  15.100 -0.8844 -1.6698 -0.3946
 9288TIP3   OH249354   2.190   1.514   4.772 -0.2887 -0.1763 -0.2828
 9288TIP3    H149355   2.210   1.601   4.740 -0.7596 -0.0035 -0.1254
 9288TIP3    H249356   2.183   1.524   4.867  0.2654 -0.5124 -0.1987
 9289TIP3   OH249357   4.786   1.419  12.929  0.2756 -0.7095 -0.1514
 9289TIP3    H149358   4.762   1.428  12.837 -0.7231 -0.7877  0.0898
 9289TIP3    H249359   4.876   1.451  12.934  0.0221  0.1906 -0.9867
 9290TIP3   OH249360   6.732   2.469   4.031 -0.2255 -0.0828 -0.2910
 9290TIP3    H149361   6.736   2.380   4.067  0.1760  0.0964  0.1208
 9290TIP3    H249362   6.642   2.497   4.046 -0.0738 -0.0313  0.5261
 9291TIP3   OH249363   1.503   4.688   0.422  0.2578  0.3031 -0.0604
 9291TIP3    H149364   1.461   4.758   0.371  1.2425  0.0495 -1.2654
 9291TIP3    H249365   1.596   4.713   0.424  0.1032  0.9749  2.7327
 9292TIP3   OH249366   5.335   2.583   1.734  0.0041 -1.0757  0.2294
 9292TIP3    H149367   5.330   2.488   1.740  0.3063 -1.0665  0.7413
 9292TIP3    H249368   5.273   2.615   1.799 -0.9430 -0.9077 -0.7332
 9293TIP3   OH249369   5.230   5.481  16.207  0.0187  0.1884 -0.4551
 9293TIP3    H149370   5.287   5.439  16.143  1.3377  0.7908  0.2996
 9293TIP3    H249371   5.153   5.508  16.156 -0.2428 -1.8246 -1.2248
 9294TIP3   OH249372   6.512   3.381  11.477  0.0243 -0.5568 -0.1134
 9294TIP3    H149373   6.504   3.336  11.393 -0.2404  0.3879 -0.6134
 9294TIP3    H249374   6.527   3.473  11.453 -1.1042 -0.0985  0.8579
 9295TIP3   OH249375   2.263   6.660  16.636 -0.1180  0.2003  0.1532
 9295TIP3    H149376   2.169   6.667  16.647 -0.0708 -0.6935  1.4111
 9295TIP3    H249377   2.299   6.716  16.706  0.2514 -1.0452  0.9946
 9296TIP3   OH249378   4.395   4.849  14.742  0.0593 -0.2387 -0.1506
 9296TIP3    H149379   4.372   4.942  14.746 -0.4983 -0.2491 -1.9358
 9296TIP3    H249380   4.438   4.831  14.825 -1.0996  1.2643  0.8306
 9297TIP3   OH249381   6.510   5.290   6.284  0.5687  0.4264  0.1943
 9297TIP3    H149382   6.443   5.319   6.345 -2.3079 -0.5509 -2.2523
 9297TIP3    H249383   6.536   5.369   6.237  1.2903  0.8331  1.2470
 9298TIP3   OH249384   0.739   2.157   6.065 -0.2118 -0.2152 -0.3064
 9298TIP3    H149385   0.663   2.216   6.060  0.1952  0.8487  3.1397
 9298TIP3    H249386   0.814   2.216   6.058  0.2037 -0.4554  1.5762
 9299TIP3   OH249387   1.278   5.122  16.766 -0.2360  0.3073  0.6074
 9299TIP3    H149388   1.219   5.197  16.760 -2.3080 -1.3623 -2.4237
 9299TIP3    H249389   1.240   5.066  16.834  0.0231  0.9285  1.2757
 9300TIP3   OH249390   0.296   1.440  11.709  0.1671  0.1210  0.5657
 9300TIP3    H149391   0.327   1.350  11.719  1.3899  0.4072 -0.4015
 9300TIP3    H249392   0.236   1.453  11.783  0.7808 -1.1356  1.3233
 9301TIP3   OH249393   0.308   6.589  12.719 -0.4115  0.1254  0.7156
 9301TIP3    H149394   0.348   6.637  12.792  1.4367 -0.6398  0.2589
 9301TIP3    H249395   0.252   6.653  12.675 -0.9282  0.8169  2.3002
 9302TIP3   OH249396   2.182   4.169   4.683  0.1380  0.2920  0.0124
 9302TIP3    H149397   2.185   4.085   4.636  1.3407  0.4359 -0.2000
 9302TIP3    H249398   2.184   4.235   4.613 -0.1034  0.5022  0.2045
 9303TIP3   OH249399   4.099   5.476   2.445 -0.1923  0.2514 -0.3068
 9303TIP3    H149400   4.011   5.457   2.478 -0.0940  0.7212  0.2545
 9303TIP3    H249401   4.092   5.565   2.409  0.7640  1.6508  2.6133
 9304TIP3   OH249402   2.911   4.452   0.915 -0.1627  0.2610 -0.4798
 9304TIP3    H149403   2.890   4.381   0.855  0.9406 -1.3004  0.9082
 9304TIP3    H249404   2.986   4.496   0.876 -1.0901  0.9359 -1.5380
 9305TIP3   OH249405   4.886   1.443   4.543  0.2120 -0.2826  0.4403
 9305TIP3    H149406   4.906   1.368   4.599  2.5473  0.0260  0.0839
 9305TIP3    H249407   4.854   1.404   4.461  0.9231 -0.8846  0.4413
 9306TIP3   OH249408   4.201   4.390  11.684  0.4260 -0.1922  0.5004
 9306TIP3    H149409   4.235   4.411  11.771  0.5060 -1.0087  0.6821
 9306TIP3    H249410   4.108   4.373  11.698  0.2888  0.3714  0.2976
 9307TIP3   OH249411   5.206   3.062  12.775  0.7479 -0.0426  0.0660
 9307TIP3    H149412   5.125   3.079  12.726 -0.3906 -1.0240  1.5290
 9307TIP3    H249413   5.204   3.125  12.847 -0.0350 -1.7190  1.5698
 9308TIP3   OH249414   0.662   4.730   3.080 -0.1775  0.1155  0.2526
 9308TIP3    H149415   0.607   4.801   3.113 -0.7548 -0.3105  0.2244
 9308TIP3    H249416   0.715   4.770   3.011 -0.8348  0.4186 -0.0886
 9309TIP3   OH249417   4.995   2.099   3.535 -0.5641 -0.1733  0.0225
 9309TIP3    H149418   5.036   2.049   3.464  2.7619 -0.1896  1.7423
 9309TIP3    H249419   4.960   2.032   3.594 -1.8951 -0.1977 -0.7527
 9310TIP3   OH249420   4.861   2.755   0.162  0.3659  0.6992  0.0754
 9310TIP3    H149421   4.769   2.759   0.189  0.5425 -0.2491  0.8589
 9310TIP3    H249422   4.910   2.756   0.244  0.9580 -1.2588 -0.2098
 9311TIP3   OH249423   3.520   4.764   3.216 -0.6259  0.3602  0.0536
 9311TIP3    H149424   3.529   4.768   3.121  0.0757  1.5286  0.1497
 9311TIP3    H249425   3.463   4.690   3.232 -0.4232 -0.0957 -1.2630
 9312TIP3   OH249426   2.256   5.232  16.864  0.0203  0.0388 -0.3829
 9312TIP3    H149427   2.295   5.249  16.950  2.7586 -1.6168 -1.2018
 9312TIP3    H249428   2.271   5.312  16.814 -1.1757  0.8371  0.4674
 9313TIP3   OH249429   2.020   3.143   2.064 -0.2661  0.7679  0.5293
 9313TIP3    H149430   2.066   3.143   2.148 -1.2799 -0.2231  1.1171
 9313TIP3    H249431   2.089   3.132   1.998  0.4119  0.0649  1.3286
 9314TIP3   OH249432   4.108   3.492  16.750  0.1533 -0.0853 -0.6302
 9314TIP3    H149433   4.094   3.457  16.663  0.0465 -0.1056 -0.6055
 9314TIP3    H249434   4.187   3.545  16.742  1.1945 -1.5268 -0.3305
 9315TIP3   OH249435   2.854   1.457   6.660  0.4598 -0.5675 -0.1293
 9315TIP3    H149436   2.913   1.524   6.624  0.9577 -0.0543  1.5331
 9315TIP3    H249437   2.912   1.391   6.696 -0.0295 -1.3306 -0.7187
 9316TIP3   OH249438   5.169   2.133   1.101 -0.0715  0.2170 -0.2479
 9316TIP3    H149439   5.162   2.134   1.197 -0.1147 -1.9921 -0.1775
 9316TIP3    H249440   5.080   2.146   1.070 -0.9497 -3.5989  0.1858
 9317TIP3   OH249441   5.144   1.695   0.254  0.1481 -0.1775 -0.0502
 9317TIP3    H149442   5.185   1.772   0.214  1.3686 -1.1859 -0.8199
 9317TIP3    H249443   5.149   1.711   0.348  0.6547  0.5687 -0.1942
 9318TIP3   OH249444   5.668   2.387  13.575 -0.3053  0.3259 -0.3624
 9318TIP3    H149445   5.619   2.360  13.498  1.0465 -0.2035 -1.0735
 9318TIP3    H249446   5.616   2.357  13.649 -0.4543 -1.3255 -1.0993
 9319TIP3   OH249447   4.089   4.391   0.206  0.0053 -0.0014 -0.3359
 9319TIP3    H149448   4.047   4.477   0.204 -0.8584 -0.4208 -2.2587
 9319TIP3    H249449   4.051   4.347   0.282  0.4445  1.2769  0.6588
 9320TIP3   OH249450   4.404   4.600   2.317 -0.3288 -0.2066  0.2754
 9320TIP3    H149451   4.334   4.566   2.372 -0.9353  2.2193  1.1323
 9320TIP3    H249452   4.484   4.571   2.359 -0.7618 -1.8528  0.0531
 9321TIP3   OH249453   6.194   5.535   4.866  0.0854  0.7552  0.3021
 9321TIP3    H149454   6.164   5.624   4.883 -0.9491  0.2312  1.3841
 9321TIP3    H249455   6.122   5.479   4.897  1.2848 -0.4956  0.9426
 9322TIP3   OH249456   0.876   2.231   0.457  0.3284  0.3970  0.6305
 9322TIP3    H149457   0.967   2.238   0.484 -0.0043 -0.5749  2.1136
 9322TIP3    H249458   0.873   2.272   0.370  1.9287  1.4684  1.0471
 9323TIP3   OH249459   4.482   3.832  14.170 -0.5792  0.2720  0.1847
 9323TIP3    H149460   4.432   3.886  14.109  1.3893  3.3594  1.0345
 9323TIP3    H249461   4.545   3.785  14.115 -0.4881  1.0515 -0.3954
 9324TIP3   OH249462   5.940   1.672   3.775 -0.0371 -0.0603  0.1503
 9324TIP3    H149463   6.029   1.648   3.748 -0.4449 -0.5272 -0.8536
 9324TIP3    H249464   5.892   1.678   3.693 -1.0271 -0.1830  0.7116
 9325TIP3   OH249465   1.722   3.819  12.449 -0.3293 -0.1011 -0.4142
 9325TIP3    H149466   1.797   3.848  12.396  0.0278 -0.4616 -0.1155
 9325TIP3    H249467   1.707   3.891  12.510  0.1687 -0.2770 -0.0740
 9326TIP3   OH249468   1.039   6.775  12.763  0.3745  0.0325  0.4263
 9326TIP3    H149469   1.038   6.682  12.739 -0.4838  0.1330  0.0494
 9326TIP3    H249470   1.104   6.814  12.704  1.4278 -0.4879  1.2247
 9327TIP3   OH249471   4.333   5.157   5.165  0.2247 -0.1005  0.2209
 9327TIP3    H149472   4.312   5.212   5.089  1.7441  0.3784  0.1027
 9327TIP3    H249473   4.419   5.189   5.193  1.3776 -2.6790 -0.0928
 9328TIP3   OH249474   0.307   3.413  15.186  0.3009 -0.0322  0.0641
 9328TIP3    H149475   0.280   3.489  15.134  0.3544 -0.0811 -0.0350
 9328TIP3    H249476   0.244   3.411  15.258  1.4440  1.2323  1.1364
 9329TIP3   OH249477   6.310   3.999  10.922  0.0318 -0.1126  0.0801
 9329TIP3    H149478   6.253   3.928  10.891 -0.1408  0.9139 -2.1280
 9329TIP3    H249479   6.398   3.962  10.918 -0.2602 -1.0345  1.5141
 9330TIP3   OH249480   3.425   5.762   3.855  0.7824  0.0384  0.2503
 9330TIP3    H149481   3.381   5.756   3.940  0.1584  1.9809  0.1125
 9330TIP3    H249482   3.502   5.707   3.864  0.1242 -0.7031  1.6858
 9331TIP3   OH249483   2.053   4.710   1.763  0.3300 -0.5369 -0.0155
 9331TIP3    H149484   2.120   4.681   1.702 -0.3427  1.9263 -2.0850
 9331TIP3    H249485   2.073   4.802   1.780  0.4418 -1.0741  3.5516
 9332TIP3   OH249486   2.769   0.249  11.177 -0.2236  0.3110  0.5828
 9332TIP3    H149487   2.695   0.264  11.118 -0.8419 -0.8541  1.0581
 9332TIP3    H249488   2.766   0.322  11.238 -1.7860 -0.4196  1.4131
 9333TIP3   OH249489   5.806   0.182   0.946  0.5044  0.0583  0.2165
 9333TIP3    H149490   5.827   0.114   0.882 -0.7092  1.5395 -1.9028
 9333TIP3    H249491   5.886   0.193   0.997  2.4688  0.5700 -2.7751
 9334TIP3   OH249492   6.597   1.389   2.145  0.1023  0.4799  0.1318
 9334TIP3    H149493   6.546   1.468   2.163  0.7907  1.2442 -1.0818
 9334TIP3    H249494   6.583   1.373   2.051  2.4213  1.0161 -0.3810
 9335TIP3   OH249495   5.704   4.085   1.814  0.2428 -0.3115  0.2597
 9335TIP3    H149496   5.666   4.003   1.843 -0.3739  0.1520  0.7802
 9335TIP3    H249497   5.797   4.078   1.835 -0.2060  0.1094  2.6431
 9336TIP3   OH249498   2.641   4.532  10.511 -0.2330  0.4580 -0.4871
 9336TIP3    H149499   2.637   4.471  10.437 -3.7045 -1.4995  1.1053
 9336TIP3    H249500   2.599   4.612  10.479 -1.9181 -0.4522 -0.6549
 9337TIP3   OH249501   5.789   6.374  17.104  0.1489  0.2035 -0.2037
 9337TIP3    H149502   5.803   6.449  17.046  0.7156 -0.6819 -1.2551
 9337TIP3    H249503   5.695   6.360  17.104 -0.0437  1.3787  0.6242
 9338TIP3   OH249504   1.002   0.278   0.420 -0.0787 -0.3663 -0.0161
 9338TIP3    H149505   1.030   0.210   0.481 -1.5045 -0.1086  0.9454
 9338TIP3    H249506   0.992   0.232   0.337  0.0897 -1.0878  0.3555
 9339TIP3   OH249507   2.138   2.755   5.478  0.3936 -0.4354  0.3472
 9339TIP3    H149508   2.045   2.763   5.457 -0.5149 -1.1704  3.5466
 9339TIP3    H249509   2.183   2.777   5.397 -2.5151  1.6688 -0.8560
 9340TIP3   OH249510   4.139   2.438   3.770 -0.1038 -0.4199  0.2751
 9340TIP3    H149511   4.189   2.502   3.720 -1.2135  2.1534  2.1501
 9340TIP3    H249512   4.052   2.439   3.730 -0.4061  0.0661  0.9155
 9341TIP3   OH249513   4.029   5.247  11.632  0.1930 -0.1103  0.7676
 9341TIP3    H149514   3.963   5.314  11.616  0.2008 -0.3366 -0.2349
 9341TIP3    H249515   3.981   5.176  11.674 -0.3461 -0.5446 -0.5496
 9342TIP3   OH249516   5.211   3.259   5.081  0.2216 -0.1879  0.1004
 9342TIP3    H149517   5.279   3.325   5.071 -1.1031  1.0288 -1.4222
 9342TIP3    H249518   5.234   3.191   5.017  1.8938 -1.5640  2.0550
 9343TIP3   OH249519   4.758   1.681   4.983 -0.0412  0.4658  0.5445
 9343TIP3    H149520   4.711   1.620   5.039 -0.3297  0.9300  0.8150
 9343TIP3    H249521   4.727   1.662   4.895 -1.6371  1.5432  0.8405
 9344TIP3   OH249522   0.438   5.655  15.637  0.7703 -0.3116  0.2278
 9344TIP3    H149523   0.394   5.696  15.563  0.9572 -0.6805 -0.0972
 9344TIP3    H249524   0.370   5.603  15.679  0.7420 -0.3737  0.1074
 9345TIP3   OH249525   3.630   4.954   5.266  0.0045 -0.0772 -0.6298
 9345TIP3    H149526   3.638   4.901   5.187  2.3348  0.5643 -0.8862
 9345TIP3    H249527   3.615   5.043   5.234 -1.0786 -0.1216 -0.2761
 9346TIP3   OH249528   4.506   6.355  13.875  0.1295 -0.2305 -0.4994
 9346TIP3    H149529   4.448   6.309  13.936  0.0410 -0.8897 -1.0635
 9346TIP3    H249530   4.479   6.446  13.880  0.1004 -0.2739  0.4144
 9347TIP3   OH249531   2.899   2.749   2.691  0.0394 -0.1291  0.2804
 9347TIP3    H149532   2.855   2.789   2.616  1.1801 -0.0365 -0.3773
 9347TIP3    H249533   2.884   2.655   2.682  0.3343 -0.1329 -0.1768
 9348TIP3   OH249534   5.010   5.545  15.994  0.3590  0.0646 -0.8445
 9348TIP3    H149535   5.019   5.494  15.913  0.4923 -2.3441  0.5824
 9348TIP3    H249536   4.916   5.561  16.002 -0.0546 -2.2894 -0.0843
 9349TIP3   OH249537   4.330   5.377  17.113 -0.5677  0.0134  0.4066
 9349TIP3    H149538   4.401   5.424  17.156 -0.1068  0.9571 -1.2857
 9349TIP3    H249539   4.284   5.332  17.184  0.0834  1.5586  1.8718
 9350TIP3   OH249540   2.031   1.728  14.701  0.3412 -0.5601  0.5502
 9350TIP3    H149541   2.079   1.646  14.695 -1.0180 -1.2823 -1.2169
 9350TIP3    H249542   2.094   1.795  14.672  0.0190 -1.6429 -3.1382
 9351TIP3   OH249543   5.404   6.047   3.550 -0.5461 -0.0756 -0.0474
 9351TIP3    H149544   5.483   6.074   3.597 -0.1355  1.3407 -1.4894
 9351TIP3    H249545   5.436   5.998   3.475 -0.9775  0.9526 -0.9283
 9352TIP3   OH249546   6.177   4.028   1.413  0.4648 -0.5430 -0.1201
 9352TIP3    H149547   6.187   4.065   1.501 -2.5376 -1.5730  0.7771
 9352TIP3    H249548   6.219   4.092   1.355  0.5569  1.3023  1.8640
 9353TIP3   OH249549   6.102   5.065   0.399 -0.1904 -0.8145 -0.0787
 9353TIP3    H149550   6.081   5.102   0.313 -0.5603  0.0449  0.3704
 9353TIP3    H249551   6.061   5.124   0.461 -1.3636 -2.3438  0.6643
 9354TIP3   OH249552   0.571   5.635   2.724  0.2835 -0.1266  1.0607
 9354TIP3    H149553   0.598   5.619   2.814 -2.3066  1.9165  2.3247
 9354TIP3    H249554   0.571   5.730   2.715  1.4283 -0.2799 -1.4762
 9355TIP3   OH249555   0.718   3.331   3.909 -0.4459  0.4416  0.1495
 9355TIP3    H149556   0.646   3.332   3.972  0.2746 -0.2463  1.0157
 9355TIP3    H249557   0.691   3.268   3.842 -0.6904  0.2432  0.4301
 9356TIP3   OH249558   2.639   6.123  11.491 -0.2168  0.1165  0.0764
 9356TIP3    H149559   2.563   6.101  11.437 -0.5857 -1.8074  1.2634
 9356TIP3    H249560   2.654   6.216  11.476 -1.2927 -0.0019 -2.0544
 9357TIP3   OH249561   6.104   4.099   0.431  0.2300 -0.0712 -0.3206
 9357TIP3    H149562   6.042   4.029   0.413  1.5904 -1.0971 -1.1948
 9357TIP3    H249563   6.135   4.127   0.345  0.2828  1.0837  0.0527
 9358TIP3   OH249564   1.787   3.504   6.782 -0.0823 -0.2491  0.4639
 9358TIP3    H149565   1.729   3.558   6.836  1.6332 -0.1713  2.3300
 9358TIP3    H249566   1.736   3.426   6.762 -1.6887  0.8940 -0.1022
 9359TIP3   OH249567   1.335   4.383   5.781 -0.5220  0.5478 -0.5091
 9359TIP3    H149568   1.299   4.363   5.868 -1.5098  0.0302 -1.0147
 9359TIP3    H249569   1.264   4.430   5.736 -0.5548 -0.4116 -1.5021
 9360TIP3   OH249570   4.638   0.711  10.221  0.4766  0.2578 -0.0173
 9360TIP3    H149571   4.592   0.628  10.227  0.3951  0.2299 -0.8826
 9360TIP3    H249572   4.583   0.773  10.269 -0.0055  0.0322 -0.2740
 9361TIP3   OH249573   3.075   2.782   3.781  0.2579  0.0619 -1.0562
 9361TIP3    H149574   3.090   2.737   3.864  0.1891  0.3258 -0.9004
 9361TIP3    H249575   3.125   2.732   3.717  0.3636 -0.1039 -0.8442
 9362TIP3   OH249576   3.406   1.786  10.191  0.3670 -0.3974 -0.0115
 9362TIP3    H149577   3.447   1.765  10.107  0.4062 -1.6913  0.3066
 9362TIP3    H249578   3.480   1.795  10.251  0.2745 -2.0149  0.4059
 9363TIP3   OH249579   3.125   6.660   0.533 -0.4391 -0.2794  0.1917
 9363TIP3    H149580   3.090   6.734   0.582  0.5951  0.4355 -0.1310
 9363TIP3    H249581   3.193   6.697   0.478 -0.6593 -1.2987 -0.7960
 9364TIP3   OH249582   0.366   0.908   5.527 -0.5455  0.4990 -0.2665
 9364TIP3    H149583   0.274   0.916   5.501 -0.3649  0.4198 -0.9658
 9364TIP3    H249584   0.399   0.833   5.477 -0.5514 -0.6124  1.3416
 9365TIP3   OH249585   0.912   6.615   0.626  1.0686 -0.0324  0.7950
 9365TIP3    H149586   0.880   6.533   0.588  0.2154  0.1106  1.1950
 9365TIP3    H249587   1.005   6.617   0.603  0.7766 -0.3971 -0.4597
 9366TIP3   OH249588   5.302   3.717  11.919  0.5921 -0.3267 -0.3603
 9366TIP3    H149589   5.346   3.637  11.892  0.3397 -0.1950 -1.1910
 9366TIP3    H249590   5.303   3.773  11.841  1.6169  0.8720  0.4674
 9367TIP3   OH249591   0.207   4.259   4.734 -0.1855 -0.2818  0.4559
 9367TIP3    H149592   0.179   4.232   4.646  0.5901  0.3106  0.0207
 9367TIP3    H249593   0.136   4.230   4.791 -0.9924 -0.1117 -0.4430
 9368TIP3   OH249594   0.450   2.294  11.017 -0.3518 -0.3368 -0.1787
 9368TIP3    H149595   0.523   2.329  10.967 -0.8675  1.4107  0.2155
 9368TIP3    H249596   0.452   2.200  11.001  1.5551 -0.2348 -0.7027
 9369TIP3   OH249597   2.291   3.097  16.766  0.2516 -0.2943  0.2041
 9369TIP3    H149598   2.333   3.016  16.797 -3.4901 -1.7115  2.2369
 9369TIP3    H249599   2.264   3.076  16.676 -1.2630 -1.6482  0.9283
 9370TIP3   OH249600   1.558   1.994  13.518 -0.3570  0.0605  0.4877
 9370TIP3    H149601   1.532   1.951  13.436 -1.9232  1.0709  0.4001
 9370TIP3    H249602   1.650   1.971  13.529  0.0769  0.4119 -1.8896
 9371TIP3   OH249603   0.647   1.890  16.468  0.4298 -0.5855  0.7321
 9371TIP3    H149604   0.639   1.985  16.461  0.3309 -0.5608  1.1355
 9371TIP3    H249605   0.579   1.856  16.410  2.0665 -0.4502 -1.3808
 9372TIP3   OH249606   2.846   0.284   3.116  0.5896 -0.2309 -0.5382
 9372TIP3    H149607   2.892   0.277   3.200 -1.1328 -0.3507  0.4439
 9372TIP3    H249608   2.772   0.341   3.134 -0.5254 -1.2701 -1.6414
 9373TIP3   OH249609   1.997   5.466  12.774  0.3008  0.1491 -0.4061
 9373TIP3    H149610   1.913   5.493  12.736 -0.4459 -0.1585  0.9704
 9373TIP3    H249611   2.058   5.469  12.700 -1.2991 -1.4933 -1.9090
 9374TIP3   OH249612   0.040   6.272  10.725  0.4323 -0.2014  0.8734
 9374TIP3    H149613  -0.054   6.292  10.730  0.3672  0.5824 -1.8761
 9374TIP3    H249614   0.042   6.177  10.713 -0.0507 -0.1882  0.6276
 9375TIP3   OH249615   2.120   4.726   2.946 -0.3096  0.5862  0.1140
 9375TIP3    H149616   2.200   4.716   2.997 -0.8918  1.5465  1.2752
 9375TIP3    H249617   2.119   4.818   2.921 -1.2293  0.6832  0.4532
 9376TIP3   OH249618   0.538   2.365  14.919  0.3245 -0.2688 -0.0856
 9376TIP3    H149619   0.622   2.382  14.876  0.3098  0.1692  0.0544
 9376TIP3    H249620   0.531   2.432  14.987  0.6309 -1.3348  1.0324
 9377TIP3   OH249621   6.647   5.362  14.066 -0.2069 -0.2387 -0.3580
 9377TIP3    H149622   6.742   5.370  14.058 -0.1742 -0.4126 -0.1468
 9377TIP3    H249623   6.630   5.375  14.159 -0.3644 -0.4687 -0.3544
 9378TIP3   OH249624   5.980   1.511  11.613  0.0954  0.1398  0.3955
 9378TIP3    H149625   5.902   1.477  11.657 -1.1246  0.8502 -1.1045
 9378TIP3    H249626   5.979   1.469  11.526  2.0730 -0.7517  0.7302
 9379TIP3   OH249627   1.671   3.845   2.053  0.4297  0.3084 -0.0069
 9379TIP3    H149628   1.582   3.826   2.022  0.3621 -0.3276  0.5734
 9379TIP3    H249629   1.722   3.768   2.028  0.7510  0.5312 -0.0459
 9380TIP3   OH249630   5.101   5.869   3.143 -0.0247 -0.8135 -0.4227
 9380TIP3    H149631   5.110   5.964   3.152 -1.1154 -0.4869 -2.3992
 9380TIP3    H249632   5.008   5.855   3.125 -0.3297 -2.4993  1.9447
 9381TIP3   OH249633   5.520   2.468   5.904 -0.2204  0.1455  0.2683
 9381TIP3    H149634   5.465   2.478   5.982  0.4195 -0.1604  0.7759
 9381TIP3    H249635   5.463   2.427   5.839 -0.4759 -0.5336  0.9108
 9382TIP3   OH249636   2.784   2.745   4.214  0.3259 -0.0377 -0.2250
 9382TIP3    H149637   2.860   2.691   4.195 -0.5475 -1.4817  0.2420
 9382TIP3    H249638   2.815   2.808   4.279  0.9009 -1.2530  0.7258
 9383TIP3   OH249639   3.709   0.228  12.152 -0.0427  0.2880 -0.5185
 9383TIP3    H149640   3.708   0.132  12.146 -2.1937  0.3571 -2.8307
 9383TIP3    H249641   3.743   0.257  12.067 -0.8254  1.5532 -0.4298
 9384TIP3   OH249642   4.594   2.870   2.931 -0.0179 -0.4840 -0.1220
 9384TIP3    H149643   4.559   2.869   2.842 -3.0046  0.5519  0.9011
 9384TIP3    H249644   4.534   2.927   2.980  1.5111 -0.9893  2.5659
 9385TIP3   OH249645   6.620   5.045   3.056 -0.1314  0.1625  0.6633
 9385TIP3    H149646   6.620   4.953   3.082  0.2171  0.3057  1.1947
 9385TIP3    H249647   6.651   5.044   2.965  0.9071 -0.1692  1.0012
 9386TIP3   OH249648   2.163   5.375   5.756 -0.1296  0.5855 -0.1729
 9386TIP3    H149649   2.117   5.352   5.838 -1.4131  0.8220 -0.7988
 9386TIP3    H249650   2.196   5.463   5.771  3.1301 -0.7395  1.5212
 9387TIP3   OH249651   6.283   2.316   1.835  0.2798 -0.1071  0.2817
 9387TIP3    H149652   6.196   2.316   1.795 -0.5350 -0.6023  1.9545
 9387TIP3    H249653   6.327   2.391   1.796 -1.4439  1.0764  0.4934
 9388TIP3   OH249654   1.661   5.230   4.368 -0.5853 -0.1420  0.3547
 9388TIP3    H149655   1.629   5.142   4.387  1.1885 -0.6645  1.1875
 9388TIP3    H249656   1.582   5.284   4.363 -1.7549 -1.8537 -0.7298
 9389TIP3   OH249657   4.717   0.529   4.324  0.0270  0.2418  0.1010
 9389TIP3    H149658   4.647   0.526   4.390 -0.3142  1.0726 -0.2041
 9389TIP3    H249659   4.766   0.449   4.337 -1.0219 -0.3896  0.2967
 9390TIP3   OH249660   6.575   0.035   1.011  0.1183  0.8218 -0.1990
 9390TIP3    H149661   6.663   0.052   1.045  0.0210  0.8673  0.0254
 9390TIP3    H249662   6.586   0.036   0.915  0.0646  2.3905 -0.2070
 9391TIP3   OH249663   1.329   3.390  14.091 -0.0041  0.0371  0.3089
 9391TIP3    H149664   1.255   3.353  14.139  0.7068 -0.5041  1.0176
 9391TIP3    H249665   1.304   3.481  14.075 -1.6850 -0.6465 -1.2517
 9392TIP3   OH249666   2.829   5.330   5.899  0.0638 -0.2010  0.0822
 9392TIP3    H149667   2.876   5.270   5.958  0.3071 -0.7729 -0.6747
 9392TIP3    H249668   2.814   5.278   5.820 -0.5596  0.4492 -0.2331
 9393TIP3   OH249669   6.508   0.714   0.306 -0.2956  0.0066  0.0185
 9393TIP3    H149670   6.598   0.717   0.272 -0.0059 -0.0528  0.7535
 9393TIP3    H249671   6.489   0.804   0.330  0.1082 -0.1965  1.1894
 9394TIP3   OH249672   5.200   0.359  12.413 -0.3196  0.5287 -0.2193
 9394TIP3    H149673   5.259   0.371  12.338 -0.9960  0.1520 -0.8335
 9394TIP3    H249674   5.226   0.427  12.475  2.0501 -0.8373  0.4060
 9395TIP3   OH249675   6.062   4.749  13.358 -0.3141 -0.6725  0.4339
 9395TIP3    H149676   6.073   4.738  13.264 -1.5945 -1.6851  0.3675
 9395TIP3    H249677   5.968   4.760  13.370 -0.2098 -0.9162  1.6214
 9396TIP3   OH249678   4.947   0.959  11.970 -0.2367 -0.0382 -0.4132
 9396TIP3    H149679   4.897   0.964  11.889 -1.7070 -1.4065  0.3561
 9396TIP3    H249680   4.946   0.867  11.994 -0.1309  0.3792  1.3504
 9397TIP3   OH249681   3.556   1.630  13.018  0.2812 -0.6334 -0.3141
 9397TIP3    H149682   3.537   1.570  12.946 -1.9595 -0.4878  0.0905
 9397TIP3    H249683   3.616   1.694  12.981  0.0343 -1.1937 -1.7324
 9398TIP3   OH249684   1.488   0.580   5.920  0.0978 -0.6827 -0.1226
 9398TIP3    H149685   1.540   0.529   5.981 -0.4572 -1.5940 -0.3900
 9398TIP3    H249686   1.540   0.583   5.840  0.2031 -0.6860 -0.0540
 9399TIP3   OH249687   5.259   0.455   0.933  0.5905  0.2986  0.3386
 9399TIP3    H149688   5.294   0.377   0.977  1.1666 -0.1735 -0.8966
 9399TIP3    H249689   5.192   0.488   0.992  0.2125 -1.2359  0.8269
 9400TIP3   OH249690   0.683   4.857   4.411  0.3780  0.4144  0.1677
 9400TIP3    H149691   0.655   4.850   4.502  2.5908  2.8291  1.1528
 9400TIP3    H249692   0.772   4.822   4.410  0.0601 -0.4418 -1.2915
 9401TIP3   OH249693   3.945   5.135  13.267  0.2465  0.2362  0.5712
 9401TIP3    H149694   3.903   5.083  13.198  3.5620 -2.8112  0.5746
 9401TIP3    H249695   3.965   5.219  13.224 -4.9900  1.8253  0.4744
 9402TIP3   OH249696   5.131   2.637  16.249  0.0245 -0.5606 -0.3827
 9402TIP3    H149697   5.157   2.615  16.339 -3.4741 -0.7805  0.7410
 9402TIP3    H249698   5.208   2.680  16.212  1.0851  1.2681  3.3742
 9403TIP3   OH249699   3.784   1.269   3.708  0.0648 -0.0630  0.0731
 9403TIP3    H149700   3.706   1.234   3.750 -0.1720  0.3444 -0.0254
 9403TIP3    H249701   3.856   1.240   3.764  0.0758 -2.2866 -0.9913
 9404TIP3   OH249702   4.160   5.268   4.324  0.5857  0.2288  0.3319
 9404TIP3    H149703   4.190   5.346   4.371 -1.1600  0.7710  0.6244
 9404TIP3    H249704   4.213   5.197   4.360  0.9519  1.0010  1.3877
 9405TIP3   OH249705   6.509   1.823  12.404  0.3378  0.5264 -0.2244
 9405TIP3    H149706   6.551   1.749  12.361  1.2928 -0.1149  1.6723
 9405TIP3    H249707   6.490   1.791  12.492  0.2519  2.3581  0.4661
 9406TIP3   OH249708   6.042   1.889  14.194  0.5247  0.0696 -0.5344
 9406TIP3    H149709   6.062   1.812  14.247  3.0478  0.2844 -1.0298
 9406TIP3    H249710   6.126   1.935  14.187 -0.8390  2.7220 -0.5089
 9407TIP3   OH249711   5.197   4.354   5.943 -0.1358  0.0929 -0.5493
 9407TIP3    H149712   5.185   4.435   5.892 -0.3655  0.0067 -0.6350
 9407TIP3    H249713   5.110   4.336   5.979  0.1162  0.3729  0.2085
 9408TIP3   OH249714   1.696   2.859   1.563 -0.2909 -0.0125 -0.0899
 9408TIP3    H149715   1.772   2.902   1.601 -2.1041  2.6379  0.8066
 9408TIP3    H249716   1.654   2.926   1.509 -1.7321 -1.5385 -0.9894
 9409TIP3   OH249717   0.310   1.663   0.216 -0.0830  0.2098  0.5623
 9409TIP3    H149718   0.383   1.725   0.220  0.4943 -0.3469 -0.7730
 9409TIP3    H249719   0.329   1.599   0.285 -0.8436  1.6384  2.1663
 9410TIP3   OH249720   2.214   3.377   0.489  0.6929 -0.7074 -0.0801
 9410TIP3    H149721   2.274   3.349   0.420  2.1950 -1.5536  1.4955
 9410TIP3    H249722   2.247   3.336   0.568  0.0414  1.5856  1.4885
 9411TIP3   OH249723   3.336   2.766  11.560  0.4879  0.3227  0.1255
 9411TIP3    H149724   3.242   2.765  11.543  0.2001  2.0952  1.4783
 9411TIP3    H249725   3.373   2.811  11.484  0.4065 -1.2482 -0.9021
 9412TIP3   OH249726   2.659   1.128   1.757  0.0023  0.4187  0.4930
 9412TIP3    H149727   2.649   1.037   1.728 -0.7776  0.8980 -0.8725
 9412TIP3    H249728   2.598   1.137   1.829  0.2405 -0.1932  0.7818
 9413TIP3   OH249729   3.713   6.473   2.576  0.4231 -0.8398  0.4065
 9413TIP3    H149730   3.756   6.441   2.497  0.2053 -1.0585  0.3785
 9413TIP3    H249731   3.644   6.531   2.544  2.8350  2.3331  0.4652
 9414TIP3   OH249732   6.218   3.787   1.536 -0.5377  0.1553 -0.3203
 9414TIP3    H149733   6.198   3.708   1.486 -1.0280  0.6715 -0.9673
 9414TIP3    H249734   6.195   3.859   1.476  0.2121  0.7815  0.1350
 9415TIP3   OH249735   5.849   6.306   4.789  0.2521  0.1643  0.5937
 9415TIP3    H149736   5.801   6.381   4.756  1.8217  1.0128  0.1549
 9415TIP3    H249737   5.932   6.307   4.742  0.8701 -1.0411  1.5727
 9416TIP3   OH249738   4.905   6.573   4.356 -0.8459  0.2243 -1.1902
 9416TIP3    H149739   4.846   6.514   4.308 -0.5813  0.1472 -1.4254
 9416TIP3    H249740   4.918   6.647   4.296 -2.5570  1.3911 -0.2362
 9417TIP3   OH249741   1.938   5.222  14.921  0.0990  0.4480  0.0033
 9417TIP3    H149742   1.858   5.220  14.972  0.8242 -0.7420  1.1734
 9417TIP3    H249743   1.981   5.304  14.946 -0.8232  1.2007 -0.7989
 9418TIP3   OH249744   2.380   4.001   2.656  0.5112  0.0489 -0.0844
 9418TIP3    H149745   2.381   3.937   2.585  0.1505 -1.3288  1.0968
 9418TIP3    H249746   2.309   4.061   2.634  0.0743 -0.6621 -0.6252
 9419TIP3   OH249747   5.012   3.988  16.136  0.6737  1.0537 -0.2520
 9419TIP3    H149748   5.071   3.982  16.212 -1.5292  0.1704  1.5091
 9419TIP3    H249749   5.040   3.918  16.078  0.3585 -0.5215  1.3791
 9420TIP3   OH249750   2.354   4.175  12.840 -0.0799  0.3835  0.0796
 9420TIP3    H149751   2.303   4.250  12.811  0.5481  1.0879  0.7171
 9420TIP3    H249752   2.290   4.108  12.864 -0.7356  1.4272  1.3457
 9421TIP3   OH249753   6.754   2.650   1.252  0.3494  0.1689 -0.0020
 9421TIP3    H149754   6.839   2.613   1.231  1.3070  2.4522 -0.5310
 9421TIP3    H249755   6.760   2.741   1.222 -1.7933  0.7741  1.1972
 9422TIP3   OH249756   1.680   1.540  12.094  0.1324  0.0828 -0.1239
 9422TIP3    H149757   1.623   1.543  12.171  1.6818  2.0905  1.0470
 9422TIP3    H249758   1.714   1.450  12.093 -0.6397 -0.2522  0.9741
 9423TIP3   OH249759   3.204   4.718   0.769 -0.1600 -0.3380 -0.4266
 9423TIP3    H149760   3.162   4.632   0.764 -0.2600 -0.2756 -0.7223
 9423TIP3    H249761   3.274   4.714   0.703  1.2603 -0.9508  1.0599
 9424TIP3   OH249762   5.317   5.988  12.012  0.0342 -0.6341 -0.2986
 9424TIP3    H149763   5.410   6.000  12.032 -0.3039 -0.2297  1.1657
 9424TIP3    H249764   5.308   5.894  11.996  0.2570 -1.2070  2.3791
 9425TIP3   OH249765   3.041   3.373  16.397  0.2756  0.1271  0.0769
 9425TIP3    H149766   3.080   3.460  16.408  1.5066 -0.1109 -1.7740
 9425TIP3    H249767   3.103   3.327  16.340 -1.7838 -0.9784 -1.3842
 9426TIP3   OH249768   5.845   2.161   1.324 -0.2447  0.1491  0.4675
 9426TIP3    H149769   5.828   2.174   1.231 -1.1596 -0.0882  0.5948
 9426TIP3    H249770   5.877   2.246   1.354 -1.4137  0.6792  0.2560
 9427TIP3   OH249771   3.009   4.864   1.437 -0.1895  0.2749 -0.1734
 9427TIP3    H149772   3.049   4.781   1.415  1.3546  0.8458  0.3330
 9427TIP3    H249773   3.018   4.918   1.358 -1.1105  0.0201 -0.4723
 9428TIP3   OH249774   0.233   4.881   1.741  0.0602  0.2632 -0.7837
 9428TIP3    H149775   0.323   4.913   1.735  0.1245  0.8571  1.9566
 9428TIP3    H249776   0.180   4.960   1.754 -0.4296 -0.2617  0.7089
 9429TIP3   OH249777   2.526   0.670  11.350 -0.3643 -0.3585  0.0042
 9429TIP3    H149778   2.604   0.710  11.388  0.0563 -2.4707  1.5003
 9429TIP3    H249779   2.520   0.584  11.390 -2.7408 -0.7936 -1.0748
 9430TIP3   OH249780   6.302   2.227  15.008 -0.3495 -0.0219  0.7669
 9430TIP3    H149781   6.363   2.186  14.946  0.6817  2.2543  0.1561
 9430TIP3    H249782   6.302   2.168  15.084  1.2605 -0.9787  0.0862
 9431TIP3   OH249783   3.381   0.652  14.520 -0.2355  0.1506  0.4062
 9431TIP3    H149784   3.347   0.572  14.560 -0.1273 -0.2719 -0.3253
 9431TIP3    H249785   3.465   0.626  14.483 -0.5912  0.3863 -0.5873
 9432TIP3   OH249786   2.013   6.006  15.595 -0.6494  0.5746  0.0100
 9432TIP3    H149787   1.987   6.095  15.620 -1.3574  0.7212 -1.1582
 9432TIP3    H249788   2.106   6.002  15.614 -0.9173  1.0440  1.5273
 9433TIP3   OH249789   6.631   0.600   1.278  0.4657  0.6311 -0.2210
 9433TIP3    H149790   6.668   0.615   1.365 -1.7447  2.3843  0.4882
 9433TIP3    H249791   6.631   0.687   1.237 -0.5369  0.2150 -1.1332
 9434TIP3   OH249792   1.476   4.175  15.815 -0.2256 -0.0123 -0.2914
 9434TIP3    H149793   1.569   4.164  15.836 -0.0698  0.5238 -0.6661
 9434TIP3    H249794   1.466   4.270  15.803 -0.5927 -0.1663 -1.2983
 9435TIP3   OH249795   5.962   2.721  11.775  0.4370  0.2897  0.3658
 9435TIP3    H149796   5.918   2.805  11.762 -1.3776 -0.7132 -0.2982
 9435TIP3    H249797   6.052   2.744  11.796 -0.2426  2.4227  1.1404
 9436TIP3   OH249798   4.796   6.384  13.048  0.3134  0.3327  0.0142
 9436TIP3    H149799   4.821   6.291  13.046 -0.8209  0.0032  0.4826
 9436TIP3    H249800   4.735   6.393  12.974  2.0256  1.2128 -1.3566
 9437TIP3   OH249801   2.588   5.831  13.332  0.2351 -0.2571  0.4098
 9437TIP3    H149802   2.631   5.844  13.417 -2.6611  0.2956  1.9294
 9437TIP3    H249803   2.614   5.907  13.280  0.8650  0.1896  1.3536
 9438TIP3   OH249804   0.623   0.049  14.836 -0.3400 -0.0462  0.3177
 9438TIP3    H149805   0.593  -0.036  14.804  0.4116 -0.2145  0.0588
 9438TIP3    H249806   0.542   0.094  14.863 -0.7882 -0.6334 -0.0292
 9439TIP3   OH249807   6.742   6.586   5.108 -0.0745  0.1540 -0.3112
 9439TIP3    H149808   6.803   6.659   5.116  0.1192  0.1412 -1.4702
 9439TIP3    H249809   6.781   6.529   5.042 -0.2412 -0.9882  0.5559
 9440TIP3   OH249810   1.699   6.150  13.901 -0.2738 -0.0596 -0.3626
 9440TIP3    H149811   1.631   6.155  13.834  0.1038  0.2784 -0.7232
 9440TIP3    H249812   1.656   6.181  13.981  0.1028  2.5896 -1.0968
 9441TIP3   OH249813   0.061   5.235  11.182  0.1035  0.1957 -0.2290
 9441TIP3    H149814   0.143   5.261  11.224 -0.0459 -0.1247  0.2726
 9441TIP3    H249815   0.085   5.165  11.122  0.0674 -0.5207  0.5822
 9442TIP3   OH249816   6.452   4.876   5.633 -0.2403  0.3686  0.4094
 9442TIP3    H149817   6.542   4.845   5.633 -0.9188 -1.7481  0.1898
 9442TIP3    H249818   6.452   4.951   5.692  1.5397  0.0731  0.8310
 9443TIP3   OH249819   0.335   1.219   2.255 -0.0134  0.5406 -0.2750
 9443TIP3    H149820   0.334   1.239   2.161 -1.5606  0.0787 -0.3999
 9443TIP3    H249821   0.301   1.129   2.260 -1.0594  0.9646  0.7791
 9444TIP3   OH249822   1.011   2.239   4.256 -0.0455 -0.3469 -0.6512
 9444TIP3    H149823   0.952   2.247   4.182 -0.9849 -1.8042 -0.1046
 9444TIP3    H249824   0.975   2.167   4.308  1.0861  0.0480  0.7539
 9445TIP3   OH249825   4.616   5.623   1.214  0.2241  0.3310  0.0700
 9445TIP3    H149826   4.674   5.636   1.289  0.2208  1.5218 -0.1136
 9445TIP3    H249827   4.528   5.624   1.252  0.2196  0.9901  0.0474
 9446TIP3   OH249828   4.969   5.447  13.805  0.0875 -0.6160 -0.4865
 9446TIP3    H149829   5.042   5.453  13.744  0.1063 -2.1942 -0.6605
 9446TIP3    H249830   4.920   5.369  13.777  0.0875 -1.3858  1.4695
 9447TIP3   OH249831   2.964   1.062  11.392  0.1750 -0.0064 -0.4482
 9447TIP3    H149832   3.050   1.081  11.430 -0.1319  0.9006 -0.1634
 9447TIP3    H249833   2.983   1.021  11.308  0.8887  0.0918 -0.3430
 9448TIP3   OH249834   5.913   2.469  12.448 -0.2745 -0.2137 -0.1449
 9448TIP3    H149835   5.953   2.415  12.380  0.8154  0.8387 -0.3608
 9448TIP3    H249836   5.923   2.559  12.417 -0.9138  0.2021  0.8056
 9449TIP3   OH249837   4.471   1.923  14.785  0.3106  0.0206  0.7318
 9449TIP3    H149838   4.440   2.008  14.817  0.0876  0.2578 -0.0824
 9449TIP3    H249839   4.566   1.931  14.782  0.4483 -0.4857  2.6236
 9450TIP3   OH249840   5.718   3.275   3.137  0.0022 -0.7403  0.0553
 9450TIP3    H149841   5.717   3.370   3.138  0.8485 -0.7029 -0.9859
 9450TIP3    H249842   5.694   3.249   3.226  1.3089  0.4666  0.7826
 9451TIP3   OH249843   5.645   1.565  12.308 -0.0120  0.3705 -0.3890
 9451TIP3    H149844   5.647   1.653  12.346  3.4131 -0.1888  1.0807
 9451TIP3    H249845   5.635   1.580  12.214 -2.8118  2.0837  0.0656
 9452TIP3   OH249846   1.564   4.982   4.822 -0.7591 -0.1354  0.7462
 9452TIP3    H149847   1.650   4.976   4.864 -0.4922  0.7814  0.3534
 9452TIP3    H249848   1.558   5.072   4.792 -1.4110 -0.4842 -0.2070
 9453TIP3   OH249849   0.978   5.701   1.009  0.4447 -0.0944 -0.1928
 9453TIP3    H149850   1.004   5.668   0.923  0.6094  0.2660 -0.2837
 9453TIP3    H249851   1.012   5.635   1.071  3.1681  1.1840 -0.1738
 9454TIP3   OH249852   2.978   5.528  15.240  0.1109  0.0776  0.4246
 9454TIP3    H149853   3.058   5.480  15.261 -0.2875 -1.1911 -0.8106
 9454TIP3    H249854   2.971   5.523  15.145 -1.5932 -0.1307  0.5277
 9455TIP3   OH249855   3.171   2.414  11.005 -0.3571  0.4836 -0.2404
 9455TIP3    H149856   3.199   2.447  11.090 -2.8991  0.4009  0.7137
 9455TIP3    H249857   3.227   2.460  10.942 -1.4471  4.1701  1.2049
 9456TIP3   OH249858   0.712   0.967  13.951  0.0716 -0.2263 -0.0303
 9456TIP3    H149859   0.693   0.894  13.893 -0.7790  0.2015 -0.3028
 9456TIP3    H249860   0.634   0.976  14.005  0.9777 -0.8371  1.4403
 9457TIP3   OH249861   4.562   1.601  14.669  0.0003 -0.7080 -0.0569
 9457TIP3    H149862   4.536   1.510  14.662  2.0233 -1.4578  1.2125
 9457TIP3    H249863   4.590   1.611  14.760  3.1872  0.1646 -1.0132
 9458TIP3   OH249864   6.097   4.855  11.329  1.0146  0.5030  0.2260
 9458TIP3    H149865   6.168   4.899  11.376  2.4145 -0.5132 -0.8549
 9458TIP3    H249866   6.134   4.836  11.242 -0.7477  0.3592 -0.5310
 9459TIP3   OH249867   5.988   1.897   5.076  0.1849  0.0154  0.0643
 9459TIP3    H149868   5.924   1.968   5.062 -0.3701 -0.8807 -2.3726
 9459TIP3    H249869   6.072   1.942   5.087 -0.4882  1.1133  0.9749
 9460TIP3   OH249870   6.663   0.269   4.813 -0.3311  0.2096  0.6467
 9460TIP3    H149871   6.572   0.260   4.783  0.3304 -0.8489 -1.2447
 9460TIP3    H249872   6.658   0.327   4.889 -2.7532 -1.0530  1.5428
 9461TIP3   OH249873   4.307   2.701   1.450 -0.5278 -0.3360  0.5082
 9461TIP3    H149874   4.229   2.718   1.502 -0.6838 -1.6885  0.7413
 9461TIP3    H249875   4.281   2.723   1.360 -0.4782  1.3041  0.8620
 9462TIP3   OH249876   5.394   4.809  12.322 -0.0400 -0.5744  0.1057
 9462TIP3    H149877   5.458   4.743  12.296  2.8500  2.0933 -0.0031
 9462TIP3    H249878   5.427   4.845  12.404 -2.6788 -0.6176  1.3088
 9463TIP3   OH249879   2.388   3.759  16.595 -0.1657 -0.0813  0.1315
 9463TIP3    H149880   2.409   3.713  16.514 -1.9527  0.0119 -0.4264
 9463TIP3    H249881   2.345   3.840  16.567 -0.1340  0.3169  1.1687
 9464TIP3   OH249882   5.467   6.332   2.710 -0.0147 -0.0222 -0.0254
 9464TIP3    H149883   5.450   6.261   2.772  1.9837 -0.8719 -0.3618
 9464TIP3    H249884   5.509   6.400   2.762  1.5171 -0.6705 -0.3564
 9465TIP3   OH249885   0.731   5.265   0.459 -0.0993 -0.4030 -0.3216
 9465TIP3    H149886   0.805   5.308   0.500  0.1449 -1.2098  0.1045
 9465TIP3    H249887   0.749   5.271   0.365 -0.4170  1.0061 -0.3152
 9466TIP3   OH249888   3.394   5.312  11.810  0.0561 -0.3588 -0.4686
 9466TIP3    H149889   3.360   5.236  11.762  0.2437  0.0666 -1.2876
 9466TIP3    H249890   3.404   5.281  11.900  0.4342 -1.4053 -0.8559
 9467TIP3   OH249891   6.476   1.936   3.322  0.0927 -0.6825  0.3963
 9467TIP3    H149892   6.470   1.868   3.255 -0.9559  1.0527 -1.4022
 9467TIP3    H249893   6.406   1.915   3.384 -1.3354 -0.3966 -1.0379
 9468TIP3   OH249894   0.837   1.730  14.367  0.0541 -0.3358 -0.4587
 9468TIP3    H149895   0.872   1.641  14.357  2.0060  0.4129 -0.8500
 9468TIP3    H249896   0.860   1.774  14.285  0.6354  0.9814  0.3759
 9469TIP3   OH249897   5.244   1.349   1.578  0.0246  0.0643 -0.3723
 9469TIP3    H149898   5.179   1.281   1.592 -2.1449  1.5987 -2.2195
 9469TIP3    H249899   5.233   1.409   1.652 -0.5572  0.2102 -0.5711
 9470TIP3   OH249900   2.138   0.878   5.306 -0.8411 -0.0717  0.0605
 9470TIP3    H149901   2.112   0.854   5.395 -0.7743  0.1575  0.1436
 9470TIP3    H249902   2.063   0.925   5.270 -0.0483  1.9192  0.8247
 9471TIP3   OH249903   6.643   0.984  12.599 -0.0372 -0.0702  0.3780
 9471TIP3    H149904   6.698   0.962  12.674  0.0301 -0.1959  0.2930
 9471TIP3    H249905   6.606   1.070  12.620  1.4892  0.7924 -0.2804
 9472TIP3   OH249906   3.957   5.754  13.482  0.1925  0.3015 -0.5531
 9472TIP3    H149907   3.899   5.784  13.411 -1.0089 -1.7573 -0.5231
 9472TIP3    H249908   3.900   5.703  13.540  1.6950 -0.3292  0.4331
 9473TIP3   OH249909   3.195   1.067   6.591  0.4310  0.0928 -0.4142
 9473TIP3    H149910   3.103   1.040   6.600  0.9927 -1.9979 -0.3626
 9473TIP3    H249911   3.200   1.150   6.638 -1.9772  1.6381 -2.5715
 9474TIP3   OH249912   0.868   0.269   3.430  0.1762 -0.7930 -0.1437
 9474TIP3    H149913   0.954   0.260   3.390  0.0620 -1.7445 -0.1913
 9474TIP3    H249914   0.869   0.209   3.504 -0.3398 -0.5800  0.0446
 9475TIP3   OH249915   5.099   3.560  11.976 -0.4253 -0.4588 -0.9486
 9475TIP3    H149916   5.146   3.644  11.975  0.9996 -1.2003  0.1777
 9475TIP3    H249917   5.029   3.571  11.912 -1.4556  2.2727  0.4492
 9476TIP3   OH249918   5.413   0.870   0.573 -1.0182  0.2839 -0.0413
 9476TIP3    H149919   5.488   0.899   0.522 -2.5585  1.2525 -1.8446
 9476TIP3    H249920   5.452   0.838   0.655  1.2219  2.1353 -0.2737
 9477TIP3   OH249921   6.567   0.819  11.931  0.8808  0.1894  0.1962
 9477TIP3    H149922   6.494   0.816  11.870  1.8985 -0.7367 -1.0058
 9477TIP3    H249923   6.534   0.775  12.010  0.4019 -0.9724 -0.6316
 9478TIP3   OH249924   4.706   1.772   5.600 -0.0753 -0.4910 -0.2652
 9478TIP3    H149925   4.671   1.683   5.601  1.1640 -1.0061  1.0494
 9478TIP3    H249926   4.791   1.764   5.557  0.9529 -0.3546  1.6579
 9479TIP3   OH249927   3.743   1.325   1.617  0.3463 -0.0516  0.2613
 9479TIP3    H149928   3.814   1.287   1.565  1.3800  0.5815  1.1583
 9479TIP3    H249929   3.668   1.267   1.601 -0.2898  1.5401 -4.0943
 9480TIP3   OH249930   5.126   0.686  15.559 -0.4009  0.1946  0.4605
 9480TIP3    H149931   5.099   0.741  15.485 -3.5017 -0.2471  1.1585
 9480TIP3    H249932   5.079   0.604  15.546 -1.1784  0.1744  2.9882
 9481TIP3   OH249933   0.096   6.716   3.757  0.5259  0.5737 -0.1357
 9481TIP3    H149934   0.067   6.730   3.667  1.3523  2.3772 -0.1737
 9481TIP3    H249935   0.064   6.793   3.804  0.6416 -0.0472  0.9848
 9482TIP3   OH249936   0.558   2.802  11.603  0.0205  0.2313  0.2426
 9482TIP3    H149937   0.475   2.834  11.569  0.1112 -1.5929 -1.9166
 9482TIP3    H249938   0.535   2.727  11.657  0.1734  0.8883  1.2605
 9483TIP3   OH249939   5.005   0.514   0.169 -0.1506 -0.0999  0.1433
 9483TIP3    H149940   5.056   0.511   0.250  0.3662 -1.5419 -0.2038
 9483TIP3    H249941   5.051   0.455   0.110  0.2073  1.8394 -1.6561
 9484TIP3   OH249942   2.426   5.603   5.156 -0.1187 -0.0292  0.9451
 9484TIP3    H149943   2.455   5.584   5.246  3.7239  2.3612  0.4731
 9484TIP3    H249944   2.397   5.694   5.160 -1.8258 -0.5091  0.0812
 9485TIP3   OH249945   3.938   2.858   4.141 -0.2930 -0.4091 -0.1846
 9485TIP3    H149946   3.961   2.947   4.164 -0.3377 -0.2228 -0.8334
 9485TIP3    H249947   3.847   2.848   4.169 -0.9810  0.4463 -1.9974
 9486TIP3   OH249948   2.340   6.513   6.270  0.1834 -0.3484 -0.6472
 9486TIP3    H149949   2.328   6.429   6.225  2.5845 -1.1150 -0.0175
 9486TIP3    H249950   2.417   6.551   6.230  0.0508  0.8163  0.1688
 9487TIP3   OH249951   6.192   5.652   5.523 -0.2488  0.0028  0.2753
 9487TIP3    H149952   6.122   5.600   5.563  1.2944 -0.2742  2.8202
 9487TIP3    H249953   6.273   5.607   5.547  0.8813  0.1390 -2.8407
 9488TIP3   OH249954   2.727   6.547  11.702 -0.2667 -0.2121 -0.1033
 9488TIP3    H149955   2.709   6.461  11.738  1.2263 -0.1915  0.7599
 9488TIP3    H249956   2.794   6.584  11.759 -1.5941  1.9513  0.1931
 9489TIP3   OH249957   0.503   1.596  14.604 -0.0976  0.5534  0.1230
 9489TIP3    H149958   0.546   1.677  14.633 -0.6994  0.3225  1.7971
 9489TIP3    H249959   0.409   1.614  14.611 -0.2741 -0.7628  2.1755
 9490TIP3   OH249960   0.984   3.224   4.710 -0.1013  0.3118  0.2009
 9490TIP3    H149961   0.984   3.309   4.665  0.0000  0.3714  0.3142
 9490TIP3    H249962   0.926   3.170   4.657  1.5383 -0.2137 -1.1424
 9491TIP3   OH249963   0.523   3.678   4.865 -0.1621 -0.6738 -0.3003
 9491TIP3    H149964   0.590   3.694   4.799  0.7515  0.7005  0.8972
 9491TIP3    H249965   0.572   3.653   4.943 -1.1459 -1.0062  0.2275
 9492TIP3   OH249966   5.987   1.693   3.173 -0.6556 -0.0920  0.2437
 9492TIP3    H149967   5.957   1.636   3.102 -1.3146  1.1401 -0.4921
 9492TIP3    H249968   5.906   1.725   3.213 -0.3104  1.0278  0.0626
 9493TIP3   OH249969   5.979   0.456   1.115 -0.3356 -0.2549 -0.2744
 9493TIP3    H149970   5.981   0.363   1.138  1.6853 -0.2246 -0.1881
 9493TIP3    H249971   5.984   0.502   1.198  2.3369 -0.1308 -0.4312
 9494TIP3   OH249972   4.988   3.640   1.479  0.0121 -0.5808 -0.4634
 9494TIP3    H149973   5.011   3.702   1.410  1.8204 -0.2017  0.4265
 9494TIP3    H249974   4.892   3.634   1.475 -0.1338  1.4812 -1.2428
 9495TIP3   OH249975   3.934   5.811  14.916  0.5405  0.5188 -0.7224
 9495TIP3    H149976   3.852   5.839  14.955  0.1355 -0.1412 -1.0778
 9495TIP3    H249977   4.001   5.839  14.977 -0.1362 -1.5198  1.0731
 9496TIP3   OH249978   4.664   0.439  14.377  0.3446  0.4464  0.6612
 9496TIP3    H149979   4.661   0.397  14.291 -2.6977  1.0308  0.3484
 9496TIP3    H249980   4.725   0.387  14.428 -0.6320 -2.2365 -0.7386
 9497TIP3   OH249981   1.467   5.674  12.996 -0.6703 -0.3721  0.4796
 9497TIP3    H149982   1.432   5.736  13.060  0.5255 -0.8781  1.6701
 9497TIP3    H249983   1.449   5.714  12.911 -1.0982  0.9576  1.1749
 9498TIP3   OH249984   2.064   6.198  12.260  0.2382 -0.1903 -0.0029
 9498TIP3    H149985   2.122   6.150  12.200  0.3756  1.6536 -1.4621
 9498TIP3    H249986   2.112   6.201  12.342  2.1068  0.8978 -1.0472
 9499TIP3   OH249987   5.343   1.463   3.040  0.5865  0.3329 -0.6280
 9499TIP3    H149988   5.415   1.464   3.103 -0.1543 -2.6872  0.4623
 9499TIP3    H249989   5.300   1.548   3.052  2.6761  1.3463  0.2096
 9500TIP3   OH249990   5.091   1.540  16.682 -0.2931  0.4166  0.7156
 9500TIP3    H149991   5.142   1.465  16.712 -1.1099 -0.3065  0.3463
 9500TIP3    H249992   5.076   1.523  16.589 -1.8810  0.1966  0.9840
 9501TIP3   OH249993   5.521   2.095   3.447  0.0416 -0.2567  0.4096
 9501TIP3    H149994   5.557   2.059   3.528  0.0031 -1.3908 -0.0540
 9501TIP3    H249995   5.492   2.018   3.398 -1.0836  0.4927 -0.1406
 9502TIP3   OH249996   0.242   3.504   0.623 -0.3030  0.0409 -0.2463
 9502TIP3    H149997   0.263   3.428   0.678 -0.3463 -0.3283 -0.7371
 9502TIP3    H249998   0.197   3.467   0.547 -0.5752  0.5869 -0.3563
 9503TIP3   OH249999   6.264   1.888   2.393  0.3348 -0.1084  0.6413
 9503TIP3    H150000   6.327   1.818   2.408  0.1253 -0.6578 -0.9205
 9503TIP3    H250001   6.221   1.900   2.478  0.3343 -1.8955  0.9316
 9504TIP3   OH250002   0.007   0.398  13.832  0.3223  0.8405  0.2825
 9504TIP3    H150003  -0.087   0.414  13.841 -0.0340 -1.0544  0.4386
 9504TIP3    H250004   0.012   0.317  13.781  1.8469  0.2957  1.2539
 9505TIP3   OH250005   1.511   4.448   1.570  0.0750  0.0627  0.0144
 9505TIP3    H150006   1.438   4.421   1.625  1.3136 -0.7566  1.3221
 9505TIP3    H250007   1.584   4.393   1.598  1.4828  1.5797 -0.4872
 9506TIP3   OH250008   5.498   0.307   3.982 -0.6241 -0.1212 -1.2074
 9506TIP3    H150009   5.577   0.266   3.947 -0.5184 -1.4141  0.4493
 9506TIP3    H250010   5.463   0.358   3.909  2.0148  0.9337 -1.8498
 9507TIP3   OH250011   4.757   5.244  13.704 -0.2459  0.5278  0.0580
 9507TIP3    H150012   4.741   5.153  13.729  0.6110  0.2859 -0.2454
 9507TIP3    H250013   4.677   5.272  13.660 -0.2561 -0.2930 -0.4467
 9508TIP3   OH250014   0.210   5.214  12.246  0.1898 -0.4812  0.4546
 9508TIP3    H150015   0.270   5.197  12.319  0.3051  0.5227  0.6009
 9508TIP3    H250016   0.174   5.300  12.264 -0.0754 -0.3872 -0.4799
 9509TIP3   OH250017   2.529   3.344   2.739  0.1635 -0.3686 -0.6894
 9509TIP3    H150018   2.606   3.349   2.683  0.8529 -0.7763  0.2097
 9509TIP3    H250019   2.525   3.252   2.766 -0.0922 -0.1510  0.0259
 9510TIP3   OH250020   6.146   4.917   3.434  0.7540  0.5125  0.0730
 9510TIP3    H150021   6.237   4.945   3.437  1.2977 -1.1476 -0.1538
 9510TIP3    H250022   6.142   4.841   3.492 -0.4521  0.4526 -0.0546
 9511TIP3   OH250023   4.305   6.038  15.269  0.1226  0.1636 -0.9471
 9511TIP3    H150024   4.334   6.120  15.229 -0.6262  0.1761 -1.4723
 9511TIP3    H250025   4.371   5.974  15.243  1.5232  0.8765  0.6723
 9512TIP3   OH250026   1.481   2.437  13.020 -0.0227 -0.3296  0.3140
 9512TIP3    H150027   1.511   2.356  13.061  0.0146 -0.0400  0.8723
 9512TIP3    H250028   1.541   2.504  13.052  0.3454 -0.1834 -0.6639
 9513TIP3   OH250029   4.233   2.076  14.545  0.1848 -0.2872  0.0445
 9513TIP3    H150030   4.219   2.121  14.628 -1.7202  0.5782 -0.6940
 9513TIP3    H250031   4.218   1.983  14.565 -2.1813  0.1093  0.3177
 9514TIP3   OH250032   1.967   2.529  15.780  0.2546  0.3994  0.7072
 9514TIP3    H150033   1.906   2.574  15.722 -0.7372 -1.7264  0.0017
 9514TIP3    H250034   1.944   2.561  15.868 -1.0715  0.5687  0.3287
 9515TIP3   OH250035   3.732   1.238   0.080  0.7032 -0.2346  0.8385
 9515TIP3    H150036   3.701   1.317   0.036 -0.4606 -0.8065  0.6042
 9515TIP3    H250037   3.694   1.166   0.030  1.3202 -0.9392  1.3645
 9516TIP3   OH250038   6.321   2.781   5.614  0.1259  0.3711  0.3797
 9516TIP3    H150039   6.355   2.848   5.673 -0.2466  0.3120  0.6639
 9516TIP3    H250040   6.359   2.699   5.645 -0.1642  0.3238  0.6130
 9517TIP3   OH250041   0.863   1.707  16.507 -0.0608 -0.2289 -0.0043
 9517TIP3    H150042   0.930   1.773  16.522  0.2917  0.1142 -2.5437
 9517TIP3    H250043   0.780   1.754  16.515  0.1484  0.2394 -0.5118
 9518TIP3   OH250044   0.918   6.628  15.162  0.0574 -0.3195 -0.0047
 9518TIP3    H150045   0.996   6.591  15.121  0.5930  0.2893  0.4431
 9518TIP3    H250046   0.925   6.722  15.145 -0.0415 -0.1388  0.9215
 9519TIP3   OH250047   4.973   6.616  13.085  0.1389  0.2807  0.2834
 9519TIP3    H150048   4.913   6.689  13.070 -0.3666  0.4664  2.7924
 9519TIP3    H250049   4.926   6.539  13.052  0.4021  0.9381 -1.7724
 9520TIP3   OH250050   4.593   4.615   4.179  0.2145  0.3415 -0.3673
 9520TIP3    H150051   4.585   4.635   4.086 -1.9867 -0.8607 -0.5011
 9520TIP3    H250052   4.541   4.684   4.222 -1.7964 -1.0766 -0.3636
 9521TIP3   OH250053   2.661   3.665   0.699 -0.5941  0.2517  0.2193
 9521TIP3    H150054   2.640   3.634   0.611 -0.7971 -0.2042  0.4274
 9521TIP3    H250055   2.704   3.591   0.741  0.6263  0.8735  0.1005
 9522TIP3   OH250056   0.945   3.722   5.825  0.3072  0.2139  0.4220
 9522TIP3    H150057   0.957   3.699   5.733  0.0537 -0.8008  0.6299
 9522TIP3    H250058   0.965   3.642   5.873 -2.4945 -0.2045  1.0662
 9523TIP3   OH250059   5.641   5.952   3.025 -0.5707 -0.0624  0.1682
 9523TIP3    H150060   5.616   5.883   3.087 -0.3784  0.3499  0.7175
 9523TIP3    H250061   5.729   5.978   3.052 -0.7077  0.5146  0.0799
 9524TIP3   OH250062   3.043   4.436  11.834  0.2674 -0.2751  0.3146
 9524TIP3    H150063   3.122   4.395  11.867 -0.6498 -1.4445  1.1412
 9524TIP3    H250064   3.055   4.529  11.853  1.8709 -0.2712 -0.5277
 9525TIP3   OH250065   3.127   5.868  11.059  0.3407  0.4930  0.4511
 9525TIP3    H150066   3.177   5.805  11.111  0.5207  0.5855  0.3884
 9525TIP3    H250067   3.092   5.816  10.986  0.3899  0.4420  0.4639
 9526TIP3   OH250068   6.203   3.256   2.283 -0.3063 -0.2099 -0.4788
 9526TIP3    H150069   6.290   3.295   2.274 -0.3878  0.5283  1.4942
 9526TIP3    H250070   6.219   3.169   2.319 -0.4088  0.6576  1.8274
 9527TIP3   OH250071   1.547   1.136  13.317  0.0399 -0.1154  0.1201
 9527TIP3    H150072   1.520   1.047  13.338 -0.1821 -0.3187 -0.9871
 9527TIP3    H250073   1.632   1.127  13.275  0.9038  0.3622  1.6775
 9528TIP3   OH250074   1.729   2.776  15.231 -0.3071 -0.3118  0.2090
 9528TIP3    H150075   1.770   2.836  15.294  0.3484 -0.8345  0.2933
 9528TIP3    H250076   1.800   2.753  15.171 -0.8003 -0.2269 -0.4139
 9529TIP3   OH250077   6.429   6.152  15.682  0.0283 -0.2138  0.1544
 9529TIP3    H150078   6.518   6.177  15.659  0.3588 -1.2230  0.2984
 9529TIP3    H250079   6.405   6.212  15.752 -0.1692  1.4090 -1.2286
 9530TIP3   OH250080   0.101   5.176   6.012  0.2388 -0.1701  0.2447
 9530TIP3    H150081   0.101   5.253   6.070 -2.1447 -1.1161  1.6584
 9530TIP3    H250082   0.127   5.103   6.069 -2.1129 -1.1214  0.1872
 9531TIP3   OH250083   3.067   3.864  12.302  0.1664  0.6486 -0.1392
 9531TIP3    H150084   3.063   3.770  12.318  0.1483  0.5072 -0.9260
 9531TIP3    H250085   2.995   3.900  12.355 -0.4641  0.1019 -0.5994
 9532TIP3   OH250086   2.448   3.890   4.675 -0.1617  0.0833  0.3407
 9532TIP3    H150087   2.491   3.951   4.615  2.1331 -0.6641  1.1485
 9532TIP3    H250088   2.360   3.879   4.638  0.8724  0.2829 -2.4318
 9533TIP3   OH250089   6.627   1.310  14.982 -0.2550  0.3335 -0.0052
 9533TIP3    H150090   6.571   1.383  15.010 -0.1835  0.3832  0.0096
 9533TIP3    H250091   6.627   1.250  15.056 -1.3878 -0.3228 -0.5088
 9534TIP3   OH250092   1.494   0.159  13.357 -0.4948 -0.0941 -0.3617
 9534TIP3    H150093   1.470   0.251  13.356  0.5308  0.1828 -1.1415
 9534TIP3    H250094   1.582   0.158  13.396 -1.1911 -0.9373  1.2798
 9535TIP3   OH250095   1.394   4.704  14.502 -0.6249  0.0378  0.0792
 9535TIP3    H150096   1.378   4.647  14.426  4.2395 -2.8050  0.7639
 9535TIP3    H250097   1.318   4.691  14.558 -1.4645 -2.9024 -1.5247
 9536TIP3   OH250098   0.754   5.781   3.912 -0.3056 -0.0663  0.0331
 9536TIP3    H150099   0.749   5.688   3.938 -0.8194  0.7481  3.3461
 9536TIP3    H250100   0.829   5.815   3.961 -0.7729  1.4979 -0.2945
 9537TIP3   OH250101   3.359   0.192   4.296  0.0560  0.3760 -0.0254
 9537TIP3    H150102   3.294   0.215   4.230  0.3536 -1.0306 -0.8742
 9537TIP3    H250103   3.429   0.257   4.285 -0.9280  1.5624  0.5257
 9538TIP3   OH250104   0.772   1.143  14.500  0.2951 -0.5452 -0.4583
 9538TIP3    H150105   0.833   1.161  14.428  0.5418 -1.8056 -0.5908
 9538TIP3    H250106   0.818   1.079  14.554  0.3166  0.7156  1.1165
 9539TIP3   OH250107   1.116   3.748  12.566  0.2471 -0.2435  0.0431
 9539TIP3    H150108   1.106   3.842  12.552  1.9359 -0.2213 -1.3053
 9539TIP3    H250109   1.197   3.740  12.616 -0.2420 -0.9614  0.7368
 9540TIP3   OH250110   0.684   0.984   5.184 -0.0309 -0.3819  0.0740
 9540TIP3    H150111   0.726   1.060   5.143 -1.2336 -0.7015 -1.9204
 9540TIP3    H250112   0.595   0.984   5.148  0.2461 -3.3423 -0.8641
 9541TIP3   OH250113   1.980   2.437   3.167 -0.5057  0.1652 -0.0433
 9541TIP3    H150114   1.902   2.448   3.220 -1.7011 -0.3774 -1.6222
 9541TIP3    H250115   2.042   2.391   3.224 -1.5896 -0.0548  0.9834
 9542TIP3   OH250116   3.436   6.763   5.711  0.8213  0.5183  0.4062
 9542TIP3    H150117   3.361   6.817   5.688 -0.9561 -1.2174  1.7521
 9542TIP3    H250118   3.476   6.807   5.786  0.4508  0.8665  0.3974
 9543TIP3   OH250119   6.449   2.807  14.462  0.2257 -0.2406  0.4562
 9543TIP3    H150120   6.485   2.797  14.374 -0.0407 -1.2992  0.4475
 9543TIP3    H250121   6.358   2.777  14.454 -2.1474  5.8335 -0.4190
 9544TIP3   OH250122   4.000   1.139  16.303  0.0065 -0.4163  0.3313
 9544TIP3    H150123   4.042   1.070  16.252  1.9704  0.9737 -0.0002
 9544TIP3    H250124   3.969   1.094  16.382 -0.2477 -1.9631 -0.5954
 9545TIP3   OH250125   4.210   2.007   2.783  0.2804 -0.3011 -0.4367
 9545TIP3    H150126   4.219   1.912   2.784 -2.0649 -0.6237 -2.0266
 9545TIP3    H250127   4.168   2.028   2.867  1.6820 -0.4960  0.3498
 9546TIP3   OH250128   0.948   1.500   0.440 -0.2907  0.3045  0.6905
 9546TIP3    H150129   1.001   1.485   0.361  0.1617  0.7089  0.9131
 9546TIP3    H250130   1.009   1.541   0.502 -0.7868  0.4883  1.0588
 9547TIP3   OH250131   5.322   0.966   2.307  0.5695 -0.3734 -0.1044
 9547TIP3    H150132   5.354   0.878   2.329 -0.3930 -0.8555 -0.5511
 9547TIP3    H250133   5.291   0.958   2.217 -1.4600 -0.1567  0.5216
 9548TIP3   OH250134   6.671   4.743   6.625  0.2192 -0.4026  0.0579
 9548TIP3    H150135   6.592   4.718   6.577  0.1353  1.5795 -0.9305
 9548TIP3    H250136   6.737   4.680   6.597 -0.3512 -0.4955 -1.1677
 9549TIP3   OH250137   6.569   3.916  15.778 -0.5553 -0.2167 -0.0259
 9549TIP3    H150138   6.529   3.829  15.783  1.9789 -1.4484  0.5523
 9549TIP3    H250139   6.650   3.908  15.828  0.1550  2.2630 -0.6410
 9550TIP3   OH250140   4.547   3.686   2.818 -0.1438 -0.0674  0.2114
 9550TIP3    H150141   4.452   3.685   2.827 -0.0383  1.0293  1.7631
 9550TIP3    H250142   4.576   3.759   2.872  1.5936 -0.3631 -0.2532
 9551TIP3   OH250143   0.558   1.980  10.384 -0.1611 -0.1209 -0.1979
 9551TIP3    H150144   0.638   1.976  10.332 -0.9123 -1.5195 -1.3182
 9551TIP3    H250145   0.568   2.059  10.437  1.4784  0.3174 -1.0830
 9552TIP3   OH250146   0.742   5.182  14.687  0.3260  0.1015 -0.1262
 9552TIP3    H150147   0.681   5.246  14.650  0.1873  0.7369  1.1295
 9552TIP3    H250148   0.714   5.098  14.652 -2.2216  0.1513  1.5234
 9553TIP3   OH250149   3.007   2.099  13.410 -0.0933 -0.1564 -0.3103
 9553TIP3    H150150   3.089   2.142  13.431 -0.2372 -0.3784  0.7720
 9553TIP3    H250151   2.939   2.161  13.439 -0.3018 -0.3578 -0.3611
 9554TIP3   OH250152   4.230   0.116   2.278  0.4082 -0.5912  0.1684
 9554TIP3    H150153   4.273   0.032   2.261  2.0701  0.1762  0.4107
 9554TIP3    H250154   4.141   0.104   2.244  1.0752 -1.9272 -1.2684
 9555TIP3   OH250155   0.815   0.960  16.154 -0.0643  0.3503  0.1234
 9555TIP3    H150156   0.883   0.894  16.149  0.2635  0.7025 -0.1580
 9555TIP3    H250157   0.817   0.992  16.244 -0.9155 -0.7376  0.5432
 9556TIP3   OH250158   4.488   2.448  13.760 -0.2900 -0.4807  0.0016
 9556TIP3    H150159   4.444   2.439  13.675  0.1942 -0.0666 -0.3005
 9556TIP3    H250160   4.420   2.428  13.824 -0.9308  0.1603 -0.4535
 9557TIP3   OH250161   3.016   0.495  11.273  0.1731 -0.2392  0.3267
 9557TIP3    H150162   2.929   0.483  11.311  0.1925  0.8718  0.7618
 9557TIP3    H250163   3.070   0.428  11.316  0.1304  0.8152  2.1330
 9558TIP3   OH250164   4.363   4.325   3.794  0.4411  0.0691 -0.3155
 9558TIP3    H150165   4.290   4.366   3.748 -0.4041  0.3753  1.2412
 9558TIP3    H250166   4.327   4.300   3.879  1.6923 -1.3710 -0.1726
 9559TIP3   OH250167   6.571   6.450   2.971  0.4919 -0.1790  0.2417
 9559TIP3    H150168   6.532   6.454   2.884  0.7414 -0.0043  0.1357
 9559TIP3    H250169   6.648   6.394   2.960  0.8232  0.2721  0.2296
 9560TIP3   OH250170   5.105   5.481  13.320  0.3344  0.2801  0.1620
 9560TIP3    H150171   5.181   5.424  13.329  0.4201  0.2574 -0.5825
 9560TIP3    H250172   5.037   5.439  13.373 -0.1520 -1.5394 -1.7396
 9561TIP3   OH250173   2.764   5.309   2.409 -0.1792 -0.2460 -0.0008
 9561TIP3    H150174   2.716   5.259   2.474 -0.9196  0.5997  0.1275
 9561TIP3    H250175   2.820   5.367   2.460 -2.0342  1.6785  0.0001
 9562TIP3   OH250176   1.003   0.653  12.415  0.4338  0.1071  0.3843
 9562TIP3    H150177   1.076   0.713  12.400 -0.6732  1.2981 -0.4638
 9562TIP3    H250178   0.937   0.707  12.458 -0.3056 -0.7059  0.2997
 9563TIP3   OH250179   6.361   4.922  11.449  0.1933  0.3380 -0.6923
 9563TIP3    H150180   6.444   4.968  11.461  0.4297  0.1175 -1.4245
 9563TIP3    H250181   6.323   4.917  11.537  1.8237 -1.1985  0.0056
 9564TIP3   OH250182   1.100   2.212  13.347  0.2155  0.1087  0.3644
 9564TIP3    H150183   1.117   2.126  13.384 -0.5033  0.1918  0.9091
 9564TIP3    H250184   1.157   2.271  13.395  0.7074 -0.0541 -0.0084
 9565TIP3   OH250185   0.770   5.614  13.724  0.3031 -0.1880 -0.0229
 9565TIP3    H150186   0.689   5.565  13.713 -0.3152  0.7509  0.1546
 9565TIP3    H250187   0.783   5.660  13.640  0.3939  0.0326  0.1084
 9566TIP3   OH250188   0.757   0.403  13.809  0.0984 -0.1680  0.0308
 9566TIP3    H150189   0.819   0.412  13.737  0.7612 -4.1296 -0.1454
 9566TIP3    H250190   0.672   0.426  13.770  0.8777  1.2733 -0.9134
 9567TIP3   OH250191   1.792   2.992  16.586  0.8344  0.4176  0.5740
 9567TIP3    H150192   1.879   2.951  16.586  0.7012  0.1178 -0.0260
 9567TIP3    H250193   1.739   2.934  16.532 -0.4435 -0.8800  3.0105
 9568TIP3   OH250194   2.053   1.116  11.283  0.1668  0.6330  0.3491
 9568TIP3    H150195   2.148   1.102  11.281  0.0911 -0.3371  2.0063
 9568TIP3    H250196   2.030   1.134  11.192  2.0107  1.4133 -0.0109
 9569TIP3   OH250197   2.264   4.191   3.832 -0.5774  0.0380 -0.5710
 9569TIP3    H150198   2.252   4.189   3.737  0.5293 -0.2287 -0.7238
 9569TIP3    H250199   2.225   4.274   3.860 -1.9007 -0.3903 -1.0992
 9570TIP3   OH250200   3.134   0.162   1.222  0.1108 -0.2215  0.2030
 9570TIP3    H150201   3.195   0.232   1.242 -0.6189  0.7385 -0.7849
 9570TIP3    H250202   3.187   0.095   1.179  0.6426  0.1447  0.2817
 9571TIP3   OH250203   0.743   6.565  14.866  0.3362 -0.6146 -0.3407
 9571TIP3    H150204   0.712   6.570  14.956  1.9945 -0.0823  0.2379
 9571TIP3    H250205   0.756   6.657  14.840 -1.2622 -0.6905 -1.5702
 9572TIP3   OH250206   6.580   4.926   2.150 -0.1712 -0.5921  0.6773
 9572TIP3    H150207   6.636   4.873   2.094 -0.2883  0.6373 -0.6717
 9572TIP3    H250208   6.592   5.016   2.118 -3.3851 -0.3441 -0.1514
 9573TIP3   OH250209   2.472   0.626   1.019 -0.2385  0.2093  0.5695
 9573TIP3    H150210   2.422   0.554   0.980  0.8228 -0.5097  0.4823
 9573TIP3    H250211   2.507   0.674   0.944  1.4392 -0.9148  0.5748
 9574TIP3   OH250212   3.434   2.862  13.650  0.2984 -0.6266  0.0299
 9574TIP3    H150213   3.509   2.830  13.699  0.0232 -0.7819  0.3525
 9574TIP3    H250214   3.372   2.893  13.716 -0.1011 -0.8974 -0.2085
 9575TIP3   OH250215   0.084   2.818   3.481  0.4098 -0.6674 -0.4970
 9575TIP3    H150216   0.012   2.772   3.439 -0.9035  1.4514 -0.7108
 9575TIP3    H250217   0.046   2.854   3.561  1.0908  0.8529 -0.8337
 9576TIP3   OH250218   4.209   4.093   0.231  0.7656  0.4151 -0.2485
 9576TIP3    H150219   4.184   4.121   0.319 -1.5876  1.9819 -1.3177
 9576TIP3    H250220   4.288   4.143   0.212  1.1785  0.2226  0.8663
 9577TIP3   OH250221   4.593   1.933   5.807 -0.5020 -0.5220 -0.1921
 9577TIP3    H150222   4.510   1.887   5.819 -0.9350  0.6119  1.3842
 9577TIP3    H250223   4.628   1.896   5.726 -3.3156  0.1131 -1.8450
 9578TIP3   OH250224   0.696   4.112   1.171 -0.1093  0.2520 -0.5314
 9578TIP3    H150225   0.693   4.200   1.206 -0.8369 -0.2981  0.8650
 9578TIP3    H250226   0.604   4.090   1.153  0.0283 -0.3381 -0.5429
 9579TIP3   OH250227   0.241   2.682   1.532  0.3203 -0.0873 -0.7199
 9579TIP3    H150228   0.186   2.760   1.534  0.9523  0.3621  0.0722
 9579TIP3    H250229   0.192   2.616   1.581 -1.1510 -0.8850 -3.0942
 9580TIP3   OH250230   5.748   4.605  15.650  0.0928  0.4402  0.6814
 9580TIP3    H150231   5.669   4.568  15.611 -0.3848 -1.4698  3.2057
 9580TIP3    H250232   5.721   4.634  15.737  2.0181  0.3946  1.3525
 9581TIP3   OH250233   5.791   3.459  10.383  0.0270  0.8372 -0.4426
 9581TIP3    H150234   5.703   3.478  10.414  0.9441  1.9664  1.6405
 9581TIP3    H250235   5.791   3.487  10.292 -1.9423  0.1565 -0.6938
 9582TIP3   OH250236   0.287   2.935  16.482 -0.3763 -0.3581  0.7919
 9582TIP3    H150237   0.277   3.001  16.551 -1.7009 -0.1480  0.4328
 9582TIP3    H250238   0.382   2.920  16.476 -0.1977  0.1124  2.1756
 9583TIP3   OH250239   5.528   3.876   4.933 -0.0923  0.3554 -0.2846
 9583TIP3    H150240   5.537   3.951   4.992 -0.9810 -0.7530  1.3221
 9583TIP3    H250241   5.436   3.875   4.909 -0.2028 -0.5281  0.1426
 9584TIP3   OH250242   6.168   6.131   0.185 -0.0401 -0.1362 -0.3505
 9584TIP3    H150243   6.108   6.108   0.115  1.3701  1.5900 -2.2226
 9584TIP3    H250244   6.128   6.207   0.227 -1.0557 -1.3732  1.0363
 9585TIP3   OH250245   6.593   0.470  16.953  0.6404 -0.3643 -0.1222
 9585TIP3    H150246   6.505   0.433  16.946  1.6247 -2.7272 -0.8747
 9585TIP3    H250247   6.578   0.561  16.978 -2.0614 -0.3761 -1.3263
 9586TIP3   OH250248   1.116   4.755   2.951 -0.0332  0.1677 -0.2507
 9586TIP3    H150249   1.064   4.718   3.023 -0.0271  0.8873  0.1318
 9586TIP3    H250250   1.193   4.793   2.993  0.1796  0.2249 -0.6828
 9587TIP3   OH250251   6.251   2.014   5.022 -0.4346  0.5355  0.0183
 9587TIP3    H150252   6.322   2.015   5.086 -0.6980  0.4013  0.3188
 9587TIP3    H250253   6.280   1.952   4.955 -0.4306  0.1879  0.3349
 9588TIP3   OH250254   6.268   1.295  11.938  0.3537  0.6568  0.1749
 9588TIP3    H150255   6.185   1.285  11.984  0.6230 -1.1910  0.3708
 9588TIP3    H250256   6.275   1.216  11.884  1.2460  1.5466 -1.0575
 9589TIP3   OH250257   3.416   1.679   2.675 -0.2166 -0.0759 -0.2464
 9589TIP3    H150258   3.375   1.611   2.728 -0.4432  0.1838 -0.0819
 9589TIP3    H250259   3.462   1.632   2.606  1.7612 -0.5655  1.3006
 9590TIP3   OH250260   0.553   2.423  15.521 -0.5790  0.0445 -0.3235
 9590TIP3    H150261   0.576   2.444  15.611  1.1400  0.2658 -0.7774
 9590TIP3    H250262   0.539   2.509  15.480 -1.1011 -0.0443 -0.3328
 9591TIP3   OH250263   3.019   0.201  12.013  0.1445 -0.2983 -0.6107
 9591TIP3    H150264   3.053   0.183  11.925  2.0837 -1.2445  0.2686
 9591TIP3    H250265   2.998   0.114  12.048 -0.8597  0.0959 -0.2244
 9592TIP3   OH250266   5.488   5.785  12.619 -0.2420 -0.3987  0.4161
 9592TIP3    H150267   5.465   5.863  12.669  1.2810  2.3093 -2.7303
 9592TIP3    H250268   5.583   5.778  12.627  0.1282  0.4505 -2.3090
 9593TIP3   OH250269   4.101   5.987  11.536  0.0933 -0.4291  0.0907
 9593TIP3    H150270   4.107   6.075  11.574  2.0285 -0.6048  0.2816
 9593TIP3    H250271   4.012   5.959  11.556 -0.2309  1.0766  0.9604
 9594TIP3   OH250272   0.795   1.108   0.738  0.2758 -0.1832  0.8456
 9594TIP3    H150273   0.882   1.081   0.710  0.5714  3.9506 -3.6348
 9594TIP3    H250274   0.735   1.064   0.678  0.0153  1.8066 -0.4533
 9595TIP3   OH250275   6.482   2.798  12.212  0.2968  0.0709 -0.4161
 9595TIP3    H150276   6.398   2.843  12.206  2.1455  4.1783  0.7288
 9595TIP3    H250277   6.515   2.796  12.122 -1.0929 -1.9475 -0.9361
 9596TIP3   OH250278   0.187   1.639   5.706  0.9514 -0.3640 -0.8063
 9596TIP3    H150279   0.189   1.669   5.797  1.5387  0.7768 -1.1748
 9596TIP3    H250280   0.244   1.562   5.705 -2.0694 -2.8677  0.5551
 9597TIP3   OH250281   4.487   0.158   0.121  0.2042 -0.3472 -0.3811
 9597TIP3    H150282   4.566   0.122   0.162 -0.0150 -0.4206 -0.0280
 9597TIP3    H250283   4.499   0.139   0.028  0.6920 -0.1951 -0.3547
 9598TIP3   OH250284   5.699   4.500  13.103  0.2425  0.5615 -0.3259
 9598TIP3    H150285   5.763   4.476  13.170  0.2213 -0.6487 -0.7160
 9598TIP3    H250286   5.710   4.595  13.092  1.0241  0.5880  0.5726
 9599TIP3   OH250287   4.638   3.488  12.418 -0.3119  0.4275  0.5980
 9599TIP3    H150288   4.562   3.449  12.375  0.3664  0.1437 -0.3670
 9599TIP3    H250289   4.640   3.578  12.386  1.1468 -0.2314 -1.3399
 9600TIP3   OH250290   1.334   6.418  15.657  0.5343  0.1954 -0.0197
 9600TIP3    H150291   1.352   6.348  15.720 -0.1235 -1.2907 -1.4196
 9600TIP3    H250292   1.419   6.461  15.644  1.5876 -2.0390 -1.0650
 9601TIP3   OH250293   0.991   5.204  15.926  0.4448 -0.1243  0.5936
 9601TIP3    H150294   0.992   5.118  15.970 -1.3050 -0.5114 -0.0252
 9601TIP3    H250295   0.905   5.240  15.948  1.4818  1.9161  1.5835
 9602TIP3   OH250296   3.317   0.181   6.168  0.1069  0.7240 -0.0527
 9602TIP3    H150297   3.229   0.199   6.202  0.2126  1.4288 -0.1326
 9602TIP3    H250298   3.363   0.140   6.241 -1.2747 -2.9270 -1.0076
 9603TIP3   OH250299   0.695   3.590   1.820  0.1223 -0.7180 -0.3695
 9603TIP3    H150300   0.614   3.560   1.861  0.1833 -1.2203 -0.6038
 9603TIP3    H250301   0.679   3.582   1.726 -0.5434  1.7876 -0.5451
 9604TIP3   OH250302   4.218   0.070  16.580 -0.5316 -0.2029 -0.0852
 9604TIP3    H150303   4.223  -0.007  16.523 -0.9161  0.1603 -0.6122
 9604TIP3    H250304   4.309   0.087  16.605 -0.4012 -0.5956 -0.2840
 9605TIP3   OH250305   6.080   3.601   6.675  0.2028 -0.2396  0.7135
 9605TIP3    H150306   6.078   3.523   6.731  2.8884 -0.7611  0.2082
 9605TIP3    H250307   6.013   3.659   6.713 -2.4623 -3.0296  0.6108
 9606TIP3   OH250308   1.996   1.482   2.042  0.0580  0.7957 -0.3421
 9606TIP3    H150309   1.924   1.540   2.066 -0.4344  0.1729 -0.3110
 9606TIP3    H250310   1.963   1.431   1.968  0.0207 -0.3519  0.4477
 9607TIP3   OH250311   3.583   5.295  13.884  0.4177 -0.0825 -0.3073
 9607TIP3    H150312   3.593   5.247  13.966  0.4930  1.2175  0.4733
 9607TIP3    H250313   3.493   5.277  13.856  1.0247 -2.2163 -1.0777
 9608TIP3   OH250314   2.402   5.241  13.943  0.0211  0.1133 -0.4458
 9608TIP3    H150315   2.382   5.313  14.002 -0.5278 -1.0035  0.7613
 9608TIP3    H250316   2.317   5.210  13.912  0.2393 -0.1732 -0.7686
 9609TIP3   OH250317   0.314   1.641  13.981 -0.0070  0.4824 -0.0758
 9609TIP3    H150318   0.343   1.550  13.981  2.9438  1.2588  2.3316
 9609TIP3    H250319   0.317   1.667  13.889 -0.9655 -1.7837 -0.8187
 9610TIP3   OH250320   1.219   4.707  15.650 -0.1701  0.0608  0.1947
 9610TIP3    H150321   1.265   4.782  15.613  0.1360 -0.5671 -0.7124
 9610TIP3    H250322   1.139   4.744  15.687 -0.1163  0.8018 -0.4133
 9611TIP3   OH250323   0.108   0.953  14.885 -0.8812  0.1712 -0.2614
 9611TIP3    H150324   0.148   1.034  14.915  1.3324 -1.4229  1.4923
 9611TIP3    H250325   0.047   0.929  14.955  1.9557 -1.9348  1.7368
 9612TIP3   OH250326   2.515   1.682   1.956  0.2897 -0.7450 -0.6062
 9612TIP3    H150327   2.531   1.637   1.874  1.2488 -0.8376 -0.3774
 9612TIP3    H250328   2.590   1.740   1.967  0.2593 -0.8558  0.2832
 9613TIP3   OH250329   1.246   1.565  12.468  0.1549  0.1598  0.4830
 9613TIP3    H150330   1.272   1.597  12.554 -1.4772  3.0450  0.0252
 9613TIP3    H250331   1.252   1.470  12.475  2.8860  0.3782  2.7939
 9614TIP3   OH250332   6.805   4.325   0.453  0.6632 -0.3254  0.1436
 9614TIP3    H150333   6.855   4.247   0.479  0.8508 -0.0354  0.6826
 9614TIP3    H250334   6.866   4.376   0.400  1.3587  0.5541  1.6909
 9615TIP3   OH250335   3.268   0.134  14.289  0.4758  0.0768  0.6177
 9615TIP3    H150336   3.283   0.045  14.257  0.1089  0.2396 -0.0210
 9615TIP3    H250337   3.343   0.184  14.258  0.4258  0.1014  0.5365
 9616TIP3   OH250338   6.349   2.863   5.352 -0.1664  0.2012 -0.0232
 9616TIP3    H150339   6.344   2.822   5.438 -1.7282 -2.3490 -1.1909
 9616TIP3    H250340   6.440   2.850   5.324 -0.0422 -0.3654  0.6118
 9617TIP3   OH250341   5.067   3.653   0.593 -0.4265  0.6384  0.1353
 9617TIP3    H150342   5.047   3.705   0.515 -1.3438  1.0043  0.6010
 9617TIP3    H250343   5.110   3.715   0.653  0.0344  0.4226  0.0380
 9618TIP3   OH250344   3.245   3.661   0.570  0.4954  0.0317  0.7064
 9618TIP3    H150345   3.213   3.734   0.516 -1.3770 -0.2604  1.3367
 9618TIP3    H250346   3.273   3.596   0.506 -1.0744 -0.0479  0.0295
 9619TIP3   OH250347   0.156   4.026  15.295 -0.4849  0.3076 -0.0625
 9619TIP3    H150348   0.121   3.956  15.350 -0.3912  1.9357  2.2090
 9619TIP3    H250349   0.188   4.092  15.357  0.7681  1.7288 -2.0891
 9620TIP3   OH250350   1.096   1.567   4.856 -0.0584 -0.3940 -0.0846
 9620TIP3    H150351   1.059   1.593   4.941 -0.7623  1.2240 -0.8315
 9620TIP3    H250352   1.029   1.511   4.818  0.3279 -1.2557  0.4702
 9621TIP3   OH250353   1.977   5.729   1.240 -0.5160 -0.0522 -0.0753
 9621TIP3    H150354   2.031   5.675   1.182 -0.1226  0.1659  0.0819
 9621TIP3    H250355   1.990   5.691   1.327  2.9112  2.5479  0.7823
 9622TIP3   OH250356   3.202   1.048   4.394 -0.2631  0.3481 -0.4778
 9622TIP3    H150357   3.294   1.056   4.370 -0.3089  1.3652 -0.3836
 9622TIP3    H250358   3.154   1.064   4.313 -0.3719  1.2128 -0.2533
 9623TIP3   OH250359   1.081   1.881  11.135  0.0829  0.0553 -0.4326
 9623TIP3    H150360   1.094   1.789  11.112 -0.3552 -0.4102  1.1083
 9623TIP3    H250361   1.167   1.911  11.165  1.4165  1.4207 -4.7874
 9624TIP3   OH250362   6.303   6.754   0.179  0.3823 -0.1307 -0.0246
 9624TIP3    H150363   6.379   6.806   0.153  0.6464  0.5615  1.9557
 9624TIP3    H250364   6.258   6.807   0.244 -0.9458 -1.1977 -0.0248
 9625TIP3   OH250365   0.061   4.306  13.830  0.5767  0.0088  0.7135
 9625TIP3    H150366   0.056   4.279  13.738  0.7280 -0.6623  0.8965
 9625TIP3    H250367   0.141   4.360  13.834  0.9694 -0.5509  0.5942
 9626TIP3   OH250368   6.003   3.036   4.412  0.1951 -0.3076 -0.3808
 9626TIP3    H150369   5.982   3.105   4.350 -0.0724 -0.7198 -0.7486
 9626TIP3    H250370   6.043   3.083   4.486  0.9184  0.1370 -1.0416
 9627TIP3   OH250371   2.779   4.429  12.304  0.2425  0.6961 -0.1757
 9627TIP3    H150372   2.808   4.367  12.370 -0.9892  0.2740 -0.0089
 9627TIP3    H250373   2.718   4.488  12.349 -0.3713  0.5977 -0.8419
 9628TIP3   OH250374   1.445   4.541   4.612  0.1292 -0.0867  0.3342
 9628TIP3    H150375   1.487   4.482   4.550  0.0865  1.9253 -1.7139
 9628TIP3    H250376   1.515   4.602   4.637 -0.8171  1.6130 -0.9781
 9629TIP3   OH250377   0.610   5.708  16.320 -0.3425 -0.0110 -0.2081
 9629TIP3    H150378   0.646   5.680  16.236 -1.2500  0.2526 -0.6970
 9629TIP3    H250379   0.657   5.790  16.339  0.5411 -0.5573  0.0174
 9630TIP3   OH250380   1.381   1.905  15.790  0.6392  0.5765 -0.6632
 9630TIP3    H150381   1.379   1.855  15.708  1.5166  0.2057 -0.4656
 9630TIP3    H250382   1.411   1.844  15.856  2.9179  1.6126 -0.6420
 9631TIP3   OH250383   4.357   5.543  14.915  0.3398  0.4251  0.1515
 9631TIP3    H150384   4.411   5.608  14.961 -0.7757  0.4319  1.5263
 9631TIP3    H250385   4.285   5.525  14.975  0.3323 -1.7144 -0.4241
 9632TIP3   OH250386   1.086   3.477  17.020  0.5041 -0.6690 -0.4049
 9632TIP3    H150387   1.123   3.451  16.936  0.4127 -0.7397 -0.4229
 9632TIP3    H250388   0.999   3.511  16.999  0.5862 -0.4397 -0.3708
 9633TIP3   OH250389   1.064   3.083   0.350  0.0441 -0.2825  0.1091
 9633TIP3    H150390   1.058   2.993   0.317  1.2197 -0.3380 -0.0154
 9633TIP3    H250391   1.156   3.106   0.339 -0.6640  1.8525 -2.2601
 9634TIP3   OH250392   4.085   4.556  13.769  0.1890  0.0650  0.2635
 9634TIP3    H150393   4.116   4.498  13.699 -0.3523 -0.5996  0.5610
 9634TIP3    H250394   4.123   4.518  13.849 -1.0889 -0.5685  0.5954
 9635TIP3   OH250395   4.387   0.311   5.285 -0.2939  0.1975  0.0659
 9635TIP3    H150396   4.345   0.317   5.371 -1.4574  2.2478 -0.5943
 9635TIP3    H250397   4.318   0.280   5.227 -0.5498  2.1650 -0.7484
 9636TIP3   OH250398   5.266   1.938  16.971  0.1161  0.4207  0.5959
 9636TIP3    H150399   5.291   1.846  16.974 -1.6702 -0.1050  0.8838
 9636TIP3    H250400   5.259   1.964  17.063 -1.6880  0.1178  0.5879
 9637TIP3   OH250401   3.980   6.596   0.428 -0.1150 -0.3349 -0.4401
 9637TIP3    H150402   3.973   6.655   0.352  0.0280  1.1135  0.6317
 9637TIP3    H250403   3.997   6.654   0.502  2.2855 -1.9042  0.3610
 9638TIP3   OH250404   6.721   5.611  10.968 -0.6510 -0.7541 -0.3237
 9638TIP3    H150405   6.687   5.675  10.905  0.0244 -0.2137 -0.1478
 9638TIP3    H250406   6.647   5.593  11.025 -0.9782 -0.4772 -0.6516
 9639TIP3   OH250407   2.966   6.166   0.570 -0.6827 -0.1800  0.6819
 9639TIP3    H150408   2.876   6.180   0.541 -0.2869 -1.1928 -1.2036
 9639TIP3    H250409   3.019   6.219   0.511  0.0073 -0.0213  1.4242
 9640TIP3   OH250410   5.768   5.590  12.402 -0.1494  0.4727  0.3375
 9640TIP3    H150411   5.753   5.603  12.495 -0.8910 -0.8291  0.4222
 9640TIP3    H250412   5.794   5.677  12.369 -2.2911  1.5352  1.2824
 9641TIP3   OH250413   0.931   3.166   4.966 -0.7101 -0.7987  0.5596
 9641TIP3    H150414   0.970   3.185   4.880 -1.5829  0.7418  0.4678
 9641TIP3    H250415   0.893   3.079   4.955  0.1134 -1.0818 -0.2705
 9642TIP3   OH250416   0.885   5.947  13.928 -0.7726  0.1269 -0.5543
 9642TIP3    H150417   0.804   5.993  13.908 -0.4545  1.2140  0.5110
 9642TIP3    H250418   0.947   6.017  13.949  0.0805 -0.7452 -0.1111
 9643TIP3   OH250419   5.844   3.392  16.332 -0.1230 -0.2834 -0.9121
 9643TIP3    H150420   5.767   3.342  16.361 -0.6359  2.6769  3.6628
 9643TIP3    H250421   5.807   3.470  16.289  0.0249  1.7829  2.4134
 9644TIP3   OH250422   3.456   5.177  12.915 -0.6048 -0.6321 -0.0013
 9644TIP3    H150423   3.543   5.202  12.883 -0.2967 -1.7525 -0.0735
 9644TIP3    H250424   3.401   5.253  12.896  0.7554  0.9462  1.8532
 9645TIP3   OH250425   2.136   0.332  14.458  0.2706 -0.2536  0.1844
 9645TIP3    H150426   2.051   0.374  14.468  0.6803  0.8169 -0.6875
 9645TIP3    H250427   2.116   0.245  14.424 -0.4206  0.6541 -1.8784
 9646TIP3   OH250428   1.982   0.428  16.292  0.4007 -0.2249 -0.2409
 9646TIP3    H150429   2.075   0.408  16.281  0.0846 -0.6696 -2.6510
 9646TIP3    H250430   1.950   0.443  16.203 -1.8198  0.0589  0.5402
 9647TIP3   OH250431   4.238   4.648   4.762 -0.2623  0.1284  0.2058
 9647TIP3    H150432   4.212   4.583   4.827  1.1009 -0.0965  0.5632
 9647TIP3    H250433   4.278   4.719   4.813 -2.0741  1.4720 -0.1374
 9648TIP3   OH250434   2.622   5.057  16.650 -0.3336 -0.0141  0.1523
 9648TIP3    H150435   2.702   5.089  16.610 -0.3005 -1.2892 -0.8932
 9648TIP3    H250436   2.551   5.098  16.600 -0.3383  0.7223  0.7521
 9649TIP3   OH250437   0.166   3.384   1.734 -0.3855  0.3949 -0.2607
 9649TIP3    H150438   0.226   3.352   1.801 -0.7326  0.0970 -0.0898
 9649TIP3    H250439   0.220   3.440   1.678  0.1302 -0.1458 -0.3098
 9650TIP3   OH250440   1.627   4.780  12.737 -0.1176  0.2095  0.0054
 9650TIP3    H150441   1.554   4.722  12.760 -1.3068  2.1766  1.5644
 9650TIP3    H250442   1.588   4.844  12.678  0.9358 -0.0289 -0.9601
 9651TIP3   OH250443   3.881   2.409  17.202  0.2950 -0.4904  0.0047
 9651TIP3    H150444   3.786   2.401  17.199  0.3989 -1.5795 -1.4582
 9651TIP3    H250445   3.907   2.363  17.282 -0.4809  1.0424  1.1767
 9652TIP3   OH250446   6.150   2.962  16.099 -0.5628  0.1114 -0.3203
 9652TIP3    H150447   6.242   2.969  16.072 -0.6171 -0.8263 -0.7882
 9652TIP3    H250448   6.149   2.996  16.188  0.1382  0.6510 -0.5076
 9653TIP3   OH250449   5.161   1.477  12.604 -0.4922 -0.0228 -0.3565
 9653TIP3    H150450   5.188   1.432  12.524 -1.2773 -0.1919 -0.5370
 9653TIP3    H250451   5.107   1.550  12.573 -0.8340 -0.1142  0.0162
 9654TIP3   OH250452   4.695   3.044   5.405  0.2098 -0.2664  0.1473
 9654TIP3    H150453   4.725   3.134   5.390 -0.1689 -0.3568 -1.3028
 9654TIP3    H250454   4.601   3.052   5.418  0.4592 -0.2450  2.2727
 9655TIP3   OH250455   1.535   0.536   2.460 -0.1359  0.4151 -0.6181
 9655TIP3    H150456   1.577   0.462   2.416 -0.4711 -0.0263 -0.2022
 9655TIP3    H250457   1.447   0.539   2.423 -0.4875 -0.0816  0.1514
 9656TIP3   OH250458   5.935   1.629   5.922 -0.2703 -0.0494  0.1377
 9656TIP3    H150459   5.965   1.600   5.836 -0.0129  0.6042 -0.0008
 9656TIP3    H250460   5.991   1.583   5.984 -0.2882 -0.3311 -0.0557
 9657TIP3   OH250461   2.494   3.755  16.840  0.2833 -0.0338  0.4036
 9657TIP3    H150462   2.457   3.681  16.887 -2.5932  2.1893  1.9248
 9657TIP3    H250463   2.456   3.750  16.753 -2.3743  1.1729  1.3936
 9658TIP3   OH250464   6.207   3.847   4.152 -0.1672 -0.5117  0.1494
 9658TIP3    H150465   6.175   3.870   4.239 -0.7393  0.5965 -0.3441
 9658TIP3    H250466   6.130   3.815   4.105 -0.6120  2.0050 -0.9849
 9659TIP3   OH250467   0.923   4.931  11.804 -0.0070  0.2995  0.1983
 9659TIP3    H150468   0.890   4.841  11.803  0.6220 -0.0326  2.5020
 9659TIP3    H250469   0.996   4.931  11.743 -0.0791 -0.7281  0.0947
 9660TIP3   OH250470   3.040   0.454   0.369 -0.1391  0.0320  0.7655
 9660TIP3    H150471   3.074   0.530   0.416  1.4035 -0.0942 -0.0608
 9660TIP3    H250472   3.062   0.379   0.424 -2.4885  0.1708  2.0409
 9661TIP3   OH250473   5.020   1.950   5.528  0.5792 -0.0752  0.1020
 9661TIP3    H150474   5.068   2.005   5.466  1.3631 -1.1219 -0.2607
 9661TIP3    H250475   4.979   1.883   5.473 -0.3699  0.1375  0.5320
 9662TIP3   OH250476   3.959   6.746  14.719  0.4791 -0.3428  0.0404
 9662TIP3    H150477   3.919   6.694  14.649  1.2808 -0.2659 -0.4882
 9662TIP3    H250478   3.968   6.834  14.681  0.0655 -0.0655  0.5728
 9663TIP3   OH250479   0.319   4.359  11.096  0.5207 -0.3680  0.4864
 9663TIP3    H150480   0.358   4.298  11.033 -2.0247 -0.5951 -1.0137
 9663TIP3    H250481   0.247   4.400  11.048 -1.7817 -0.7796  3.3323
 9664TIP3   OH250482   5.610   1.304   0.042  0.4839  0.0043 -0.2573
 9664TIP3    H150483   5.601   1.393   0.077  1.0208  0.1220 -0.3972
 9664TIP3    H250484   5.595   1.247   0.116  0.2519  0.2150 -0.1393
 9665TIP3   OH250485   5.627   1.753   2.045 -0.1775  0.3925  0.4756
 9665TIP3    H150486   5.682   1.688   2.001 -0.6990 -0.3703  0.9106
 9665TIP3    H250487   5.563   1.700   2.093  0.2188  1.1878  1.9410
 9666TIP3   OH250488   5.796   5.970  11.643  0.2364  0.0048 -0.0264
 9666TIP3    H150489   5.727   5.943  11.582 -2.1337  3.6526  0.7568
 9666TIP3    H250490   5.750   5.988  11.725  2.7423 -0.8726  1.7090
 9667TIP3   OH250491   1.385   3.879   2.079 -0.4702  0.3208  0.0897
 9667TIP3    H150492   1.357   3.791   2.107 -0.7082  0.4252  0.1822
 9667TIP3    H250493   1.304   3.921   2.048 -0.0372 -0.2525 -2.0195
 9668TIP3   OH250494   2.258   5.838   1.307  0.3885  0.5420 -0.3791
 9668TIP3    H150495   2.279   5.749   1.335 -0.0211  0.1470 -1.2920
 9668TIP3    H250496   2.162   5.839   1.301  0.3345  1.3149  0.4923
 9669TIP3   OH250497   5.367   6.458   4.271  0.1118 -1.3840 -0.3396
 9669TIP3    H150498   5.366   6.489   4.180 -2.0960 -1.5212 -0.4076
 9669TIP3    H250499   5.448   6.408   4.278  0.7569 -0.6361 -1.9749
 9670TIP3   OH250500   2.177   3.749   6.211  0.4887 -0.1909  0.1907
 9670TIP3    H150501   2.088   3.738   6.244  0.2641 -1.3822 -0.7294
 9670TIP3    H250502   2.219   3.664   6.225  1.1911  0.0757 -0.2148
 9671TIP3   OH250503   2.112   1.855   3.386 -0.4278 -0.0039  0.1951
 9671TIP3    H150504   2.026   1.834   3.348 -0.3367 -0.3960  0.2048
 9671TIP3    H250505   2.175   1.829   3.319 -0.2196 -1.4404  0.9025
 9672TIP3   OH250506   0.379   0.563  12.186  0.1973  0.7291  0.2605
 9672TIP3    H150507   0.455   0.600  12.230  0.5502  1.6253 -1.0564
 9672TIP3    H250508   0.358   0.625  12.116 -1.2073  0.0587  0.0381
 9673TIP3   OH250509   3.245   0.341   5.296 -0.1929 -0.5118 -0.5127
 9673TIP3    H150510   3.157   0.313   5.275  0.4221 -2.6918 -0.4436
 9673TIP3    H250511   3.235   0.395   5.375 -1.4454 -0.8201 -0.4454
 9674TIP3   OH250512   4.785   2.568   2.500 -0.5087  0.1626  0.1817
 9674TIP3    H150513   4.737   2.520   2.432 -0.6102  0.0107  0.3625
 9674TIP3    H250514   4.717   2.611   2.552 -0.6028 -1.8846  1.8499
 9675TIP3   OH250515   2.473   6.402   1.775 -0.1291  0.0758 -0.3177
 9675TIP3    H150516   2.502   6.372   1.688  1.4433 -0.0455  0.2106
 9675TIP3    H250517   2.482   6.324   1.830 -1.5906  0.0233 -0.1275
 9676TIP3   OH250518   6.685   2.481   5.913  0.1313  0.6442  0.4787
 9676TIP3    H150519   6.729   2.566   5.912  1.2895  0.0773 -0.6489
 9676TIP3    H250520   6.593   2.501   5.927  0.1354  2.2385 -1.3369
 9677TIP3   OH250521   1.472   2.162   2.860  0.4503 -0.5692 -0.1531
 9677TIP3    H150522   1.466   2.067   2.872  0.0440 -0.9928 -3.0791
 9677TIP3    H250523   1.395   2.197   2.905 -0.6290 -1.8657 -0.9162
 9678TIP3   OH250524   2.076   2.308  13.448 -0.4815  1.0133  0.1092
 9678TIP3    H150525   2.162   2.335  13.478  0.0157 -1.4626  1.2301
 9678TIP3    H250526   2.044   2.381  13.396  1.3706  2.8811  1.4317
 9679TIP3   OH250527   0.865   2.582   2.092  0.1352 -0.4405 -0.0125
 9679TIP3    H150528   0.857   2.637   2.170  0.9482 -0.6445  0.2192
 9679TIP3    H250529   0.778   2.585   2.052 -0.1084  0.1970  0.5430
 9680TIP3   OH250530   3.320   3.423   0.450  0.0904 -0.1084  1.0152
 9680TIP3    H150531   3.297   3.388   0.537  0.1531  0.3972  1.2419
 9680TIP3    H250532   3.312   3.348   0.391 -2.9058  0.1320  0.9283
 9681TIP3   OH250533   4.037   3.856  11.573 -0.0331  0.0457 -0.3557
 9681TIP3    H150534   3.980   3.881  11.645 -0.3560 -0.7403 -0.3364
 9681TIP3    H250535   4.001   3.773  11.540 -0.0207  0.4874 -1.5489
 9682TIP3   OH250536   2.504   6.539   5.681  0.4697 -0.1089 -0.4024
 9682TIP3    H150537   2.449   6.469   5.645  0.6593 -0.6834  0.4046
 9682TIP3    H250538   2.447   6.588   5.739 -0.1672  1.5620 -2.3346
 9683TIP3   OH250539   3.751   0.035   2.866  0.2481 -0.3609 -0.0355
 9683TIP3    H150540   3.734  -0.017   2.944 -0.9157 -0.0215 -0.0504
 9683TIP3    H250541   3.771  -0.029   2.798 -1.4521 -0.8367 -0.1253
 9684TIP3   OH250542   0.745   5.246  11.675 -0.1070 -1.0428  0.5558
 9684TIP3    H150543   0.839   5.251  11.659  0.0532  2.6426  1.6103
 9684TIP3    H250544   0.709   5.208  11.595  2.1715 -1.5340 -0.3185
 9685TIP3   OH250545   3.716   6.255   4.667 -0.6285 -0.0116  0.0864
 9685TIP3    H150546   3.684   6.344   4.654 -0.1627 -0.0612 -1.6852
 9685TIP3    H250547   3.678   6.205   4.595  0.1112 -0.9677  0.3306
 9686TIP3   OH250548   0.074   4.365   1.387 -0.0741  0.5248 -0.0995
 9686TIP3    H150549   0.147   4.347   1.326 -0.3170 -0.7543 -0.0462
 9686TIP3    H250550  -0.004   4.341   1.337 -0.1603 -4.1110  1.7121
 9687TIP3   OH250551   3.543   6.106   4.450 -0.1763 -0.1385  0.1446
 9687TIP3    H150552   3.563   6.134   4.361 -1.1083  1.7490  0.4781
 9687TIP3    H250553   3.559   6.012   4.450 -0.2609 -0.1990 -2.0462
 9688TIP3   OH250554   5.549   6.150  14.006  0.0634  0.1019 -1.2767
 9688TIP3    H150555   5.519   6.059  14.007 -0.0678  0.1433 -0.2004
 9688TIP3    H250556   5.518   6.184  13.923 -0.2402 -0.7235 -1.5143
 9689TIP3   OH250557   2.909   4.138  17.170 -0.4532 -0.7165  0.1737
 9689TIP3    H150558   2.835   4.161  17.225 -0.8076  2.1686 -1.3346
 9689TIP3    H250559   2.921   4.213  17.112  1.6254 -2.4382 -1.8366
 9690TIP3   OH250560   2.487   4.967  15.550 -0.8336 -0.1695  0.2360
 9690TIP3    H150561   2.566   5.020  15.553 -0.0401 -1.2046 -1.0852
 9690TIP3    H250562   2.469   4.955  15.456 -0.6699 -2.6127  0.4493
 9691TIP3   OH250563   4.703   0.581   2.874  0.2188  0.0461  0.1569
 9691TIP3    H150564   4.649   0.507   2.902 -0.1073  0.6609  1.2362
 9691TIP3    H250565   4.691   0.585   2.780  0.1594 -1.2060  0.0860
 9692TIP3   OH250566   6.244   6.392  11.758 -0.3375 -0.3909 -0.2261
 9692TIP3    H150567   6.257   6.457  11.827  1.5793  0.6003 -1.4301
 9692TIP3    H250568   6.323   6.338  11.762 -1.1225 -1.5929 -0.3864
 9693TIP3   OH250569   1.466   0.982  14.136 -0.4449 -0.0245 -0.1255
 9693TIP3    H150570   1.479   0.895  14.175  0.0112 -0.3164 -0.9206
 9693TIP3    H250571   1.413   1.029  14.201  0.7019 -0.3304  1.0809
 9694TIP3   OH250572   6.202   3.735  13.894  0.1324 -0.3940  0.0630
 9694TIP3    H150573   6.159   3.679  13.958 -1.5417 -0.1231 -0.7746
 9694TIP3    H250574   6.173   3.824  13.916  2.2759  0.1176  1.0088
 9695TIP3   OH250575   6.420   6.004   3.714  0.6518  0.5677 -0.7010
 9695TIP3    H150576   6.397   5.917   3.747 -0.3413  0.5444 -1.4235
 9695TIP3    H250577   6.400   6.063   3.787  0.4852  0.2968 -0.5261
 9696TIP3   OH250578   5.851   3.573  12.411 -0.4069 -0.1787  0.9797
 9696TIP3    H150579   5.946   3.566  12.411 -0.2606  1.2772  2.1575
 9696TIP3    H250580   5.828   3.590  12.319  0.3057 -1.9256  0.4470
 9697TIP3   OH250581   5.454   0.133   5.784 -0.2250 -0.4701  0.0600
 9697TIP3    H150582   5.509   0.059   5.758 -0.8290 -0.7417 -0.4605
 9697TIP3    H250583   5.484   0.155   5.873  0.7994 -0.5274 -0.2639
 9698TIP3   OH250584   1.906   4.019   2.067  0.5759 -0.8559 -0.2419
 9698TIP3    H150585   1.938   4.062   2.146  0.3166 -2.7953  0.9816
 9698TIP3    H250586   1.820   3.985   2.092 -1.9679  2.7822 -2.9146
 9699TIP3   OH250587   4.596   4.529   4.532  0.0907 -0.0253 -0.0949
 9699TIP3    H150588   4.596   4.506   4.625 -0.9199  0.0122 -0.0823
 9699TIP3    H250589   4.530   4.597   4.523 -1.0159 -1.1860 -1.1082
 9700TIP3   OH250590   2.438   2.110  15.384  0.2315  0.9839  0.7120
 9700TIP3    H150591   2.462   2.187  15.333  0.0659  0.8209  0.3836
 9700TIP3    H250592   2.447   2.137  15.475  0.5519  1.2719  0.5961
 9701TIP3   OH250593   0.534   4.424   1.947 -0.1862 -0.4947 -0.5755
 9701TIP3    H150594   0.620   4.392   1.920 -0.3749 -1.3082 -0.2375
 9701TIP3    H250595   0.512   4.490   1.881  0.5965 -0.4389 -0.7903
 9702TIP3   OH250596   2.984   2.680  15.827 -0.1954 -0.2629 -0.2569
 9702TIP3    H150597   3.070   2.639  15.831  0.1774  0.4205 -1.1489
 9702TIP3    H250598   2.960   2.695  15.919  0.4267 -0.8698  0.0081
 9703TIP3   OH250599   1.256   0.765  12.368  0.2465  0.0804  0.1388
 9703TIP3    H150600   1.296   0.724  12.292  1.8341  0.8101  0.5410
 9703TIP3    H250601   1.232   0.852  12.338  1.1133  0.4629  0.5083
 9704TIP3   OH250602   6.234   3.521  12.346 -0.2419 -0.0683  0.5624
 9704TIP3    H150603   6.180   3.599  12.357  1.1238  1.3880 -2.0661
 9704TIP3    H250604   6.309   3.534  12.404  0.8053  1.4634 -1.0509
 9705TIP3   OH250605   5.584   3.721   4.183 -0.7885  0.4855  0.3625
 9705TIP3    H150606   5.565   3.696   4.273  0.3600 -0.8285  0.2789
 9705TIP3    H250607   5.613   3.640   4.141  0.4613  1.4355 -0.6877
 9706TIP3   OH250608   4.759   4.156   2.265  0.0432  0.5900 -0.1119
 9706TIP3    H150609   4.716   4.195   2.189 -0.4282  0.1896 -0.0525
 9706TIP3    H250610   4.830   4.217   2.286 -0.5065  1.2686 -0.1994
 9707TIP3   OH250611   6.248   5.851  14.922 -0.6710  0.1847  0.4799
 9707TIP3    H150612   6.262   5.945  14.929  0.1106  0.0217  1.2668
 9707TIP3    H250613   6.245   5.834  14.828 -0.5745  0.9549  0.3353
 9708TIP3   OH250614   4.714   6.783  11.824 -0.2519  0.8158 -0.2898
 9708TIP3    H150615   4.709   6.712  11.760 -0.0663  2.0179 -1.6738
 9708TIP3    H250616   4.645   6.762  11.888 -1.3375  0.2680 -1.5810
 9709TIP3   OH250617   5.369   2.909  17.077 -0.2775  0.1971  0.0984
 9709TIP3    H150618   5.453   2.888  17.035  0.4091 -1.0110  1.9472
 9709TIP3    H250619   5.313   2.834  17.057 -0.5868  0.5154 -0.2457
 9710TIP3   OH250620   4.431   5.249   2.260 -0.0637 -0.3036  0.4856
 9710TIP3    H150621   4.493   5.297   2.315 -1.0358  0.7196  0.7278
 9710TIP3    H250622   4.461   5.158   2.264  0.8145  0.0011  1.4146
 9711TIP3   OH250623   5.024   1.814   2.874 -0.2844  0.1243 -0.0145
 9711TIP3    H150624   4.955   1.752   2.896  0.1892 -0.4689 -0.1807
 9711TIP3    H250625   5.029   1.812   2.778  1.5440 -1.6263  0.0557
 9712TIP3   OH250626   2.530   6.562   2.424 -0.1710 -0.2600  0.0141
 9712TIP3    H150627   2.539   6.507   2.346 -3.1255  1.2603 -1.6149
 9712TIP3    H250628   2.522   6.500   2.497 -0.0443 -1.8461 -1.2603
 9713TIP3   OH250629   1.782   3.003  16.236  0.2031  0.2494 -0.3309
 9713TIP3    H150630   1.721   3.076  16.223  0.4035  0.4617 -0.0771
 9713TIP3    H250631   1.728   2.933  16.271  0.3579  0.9170  1.3369
 9714TIP3   OH250632   0.978   4.197   2.905 -0.5985  0.0680 -0.0979
 9714TIP3    H150633   0.929   4.231   2.830 -0.3794 -1.5881 -1.0243
 9714TIP3    H250634   1.058   4.249   2.906 -0.4715 -0.0935 -1.1904
 9715TIP3   OH250635   4.851   2.390  11.613  0.0485 -0.6812  0.3766
 9715TIP3    H150636   4.818   2.318  11.667  0.9922 -1.3813  0.0590
 9715TIP3    H250637   4.840   2.360  11.523  2.5362 -1.4915  0.2509
 9716TIP3   OH250638   3.665   1.496  17.267  0.0284  0.0202 -0.3307
 9716TIP3    H150639   3.756   1.505  17.237 -0.0119 -0.6371 -0.6715
 9716TIP3    H250640   3.615   1.552  17.209  0.5616  3.1589  1.9366
 9717TIP3   OH250641   2.441   1.867   4.505 -0.5203  0.5888  0.6614
 9717TIP3    H150642   2.479   1.847   4.419 -0.1576  1.1200  0.6888
 9717TIP3    H250643   2.504   1.831   4.568  0.8586  2.8836  0.7371
 9718TIP3   OH250644   1.955   4.740   5.765  0.1550  0.3895  0.0472
 9718TIP3    H150645   1.936   4.646   5.754  1.2921  0.2068 -0.5553
 9718TIP3    H250646   1.981   4.768   5.677 -0.4577  1.3452  0.1666
 9719TIP3   OH250647   5.966   2.261  12.800 -0.3479 -0.4074 -0.0956
 9719TIP3    H150648   5.873   2.263  12.824 -0.1633 -2.2152  0.9765
 9719TIP3    H250649   6.011   2.295  12.877  0.0060 -2.2216  0.5462
 9720TIP3   OH250650   6.428   4.088  12.329 -0.2077  0.3650 -0.3437
 9720TIP3    H150651   6.394   4.140  12.257 -0.2310  1.3645  0.3574
 9720TIP3    H250652   6.420   4.145  12.406  0.6100 -0.3427  0.2973
 9721TIP3   OH250653   2.570   5.401  10.721  0.2081 -0.3850 -0.2058
 9721TIP3    H150654   2.565   5.494  10.746  0.5275  0.5778 -3.3540
 9721TIP3    H250655   2.644   5.367  10.772 -0.8923  0.5759  2.2325
 9722TIP3   OH250656   4.726   5.283  15.954 -0.7373 -0.3176 -0.3327
 9722TIP3    H150657   4.664   5.294  15.881 -0.6360 -0.2663 -0.4110
 9722TIP3    H250658   4.812   5.300  15.915 -0.8242  1.4821  0.1987
 9723TIP3   OH250659   2.137   2.597   3.528 -0.3734 -0.1592  0.1983
 9723TIP3    H150660   2.191   2.540   3.583 -0.0191 -0.3090 -0.2919
 9723TIP3    H250661   2.191   2.614   3.451 -0.5394  0.7125  0.2632
 9724TIP3   OH250662   4.570   4.470   4.797 -0.1719  0.0816  0.5911
 9724TIP3    H150663   4.554   4.554   4.840  0.8707  0.2937  0.5938
 9724TIP3    H250664   4.505   4.411   4.834 -0.9124  0.8832  0.6008
 9725TIP3   OH250665   1.545   0.386  16.675  0.2052 -0.5292  0.2004
 9725TIP3    H150666   1.632   0.393  16.637  0.2626 -0.7650  0.2830
 9725TIP3    H250667   1.493   0.341  16.608  0.9255 -3.2493  1.3293
 9726TIP3   OH250668   2.152   3.330   1.299  0.8218 -0.0193  0.2560
 9726TIP3    H150669   2.226   3.385   1.273  1.1662 -0.9489 -0.8257
 9726TIP3    H250670   2.192   3.248   1.328  0.2321 -0.5227 -0.3125
 9727TIP3   OH250671   0.170   2.484   2.519 -0.4885  0.6324  0.6638
 9727TIP3    H150672   0.088   2.466   2.474 -0.5746  0.2019  0.9834
 9727TIP3    H250673   0.173   2.579   2.526  0.3381  0.8463 -1.7358
 9728TIP3   OH250674   5.094   4.273  12.879  0.4771 -0.0370  0.3450
 9728TIP3    H150675   5.004   4.244  12.864  0.8065 -0.4666 -0.8425
 9728TIP3    H250676   5.145   4.193  12.885  0.7458  0.1963  1.3391
 9729TIP3   OH250677   4.551   4.152   0.879 -0.3168 -0.0730 -0.4309
 9729TIP3    H150678   4.608   4.130   0.953  0.7488  1.2202 -0.8397
 9729TIP3    H250679   4.594   4.225   0.836 -0.3858 -1.4301 -2.9742
 9730TIP3   OH250680   2.953   2.206   6.124  0.0610  0.7603  0.0708
 9730TIP3    H150681   2.866   2.164   6.124  0.3890  0.0707  0.1834
 9730TIP3    H250682   3.015   2.133   6.130  0.6450  1.2629  0.2274
 9731TIP3   OH250683   4.468   6.042  10.810  0.2179 -0.1605 -0.7840
 9731TIP3    H150684   4.435   6.114  10.863  1.2731  0.5378 -1.0481
 9731TIP3    H250685   4.392   5.986  10.795 -0.7089  1.0914 -0.8990
 9732TIP3   OH250686   4.503   1.697  14.191  0.1601  1.1200 -0.1772
 9732TIP3    H150687   4.466   1.760  14.253  0.6550  0.8416  0.4036
 9732TIP3    H250688   4.448   1.706  14.113 -1.1008  0.7579  0.6447
 9733TIP3   OH250689   2.292   5.094   6.344 -0.6399  0.2486  0.0988
 9733TIP3    H150690   2.327   5.169   6.392 -0.9271  0.0037  0.7173
 9733TIP3    H250691   2.198   5.096   6.363 -1.0603  1.0971 -1.8109
 9734TIP3   OH250692   4.779   3.646   2.983  0.1753  0.1414  0.1366
 9734TIP3    H150693   4.779   3.593   2.903 -2.8484  0.9923 -0.5393
 9734TIP3    H250694   4.765   3.735   2.953 -1.6987  0.4016  1.6033
 9735TIP3   OH250695   3.130   1.724  12.581  0.0585  0.5590 -0.3515
 9735TIP3    H150696   3.207   1.673  12.554 -0.4623  0.0388 -0.8751
 9735TIP3    H250697   3.066   1.658  12.610 -0.6924  0.8834 -1.2233
 9736TIP3   OH250698   4.358   0.524  12.318 -0.2787  0.1646  0.5625
 9736TIP3    H150699   4.333   0.611  12.288 -0.7176 -0.1952 -0.1564
 9736TIP3    H250700   4.453   0.520  12.307  0.0352  1.2376  2.4773
 9737TIP3   OH250701   3.374   6.483   4.238 -0.3355 -0.7108 -0.1650
 9737TIP3    H150702   3.320   6.449   4.166 -2.4972  0.6516  0.6921
 9737TIP3    H250703   3.341   6.572   4.252  2.5827  0.4391  0.0857
 9738TIP3   OH250704   0.771   1.767   6.312 -0.2157  0.1848 -0.4667
 9738TIP3    H150705   0.860   1.744   6.284  0.9191  2.1488  1.2535
 9738TIP3    H250706   0.765   1.862   6.301 -1.7365  0.2354  0.4491
 9739TIP3   OH250707   4.833   1.598   6.621  0.1393 -0.2672  0.0522
 9739TIP3    H150708   4.898   1.625   6.557  0.1438 -0.8778 -0.2066
 9739TIP3    H250709   4.850   1.504   6.635  0.3259 -0.0882  1.1615
 9740TIP3   OH250710   4.374   3.591  14.614 -0.8871  0.1540 -0.0262
 9740TIP3    H150711   4.285   3.587  14.650 -0.6197  1.9765  0.9120
 9740TIP3    H250712   4.371   3.663  14.551 -0.5348 -1.0358 -1.4922
 9741TIP3   OH250713   4.685   3.784   0.195  0.2129 -0.1361  0.8570
 9741TIP3    H150714   4.648   3.867   0.165 -1.2855 -0.8522  0.6616
 9741TIP3    H250715   4.646   3.718   0.138 -0.3888 -1.2121  2.4373
 9742TIP3   OH250716   5.532   6.695  15.391  0.3121  0.3350 -0.1173
 9742TIP3    H150717   5.488   6.647  15.462  0.4635  0.5955  0.1564
 9742TIP3    H250718   5.601   6.636  15.362 -0.1813 -0.0567 -0.5143
 9743TIP3   OH250719   1.396   5.692   3.138 -0.6193  0.1323 -0.0011
 9743TIP3    H150720   1.369   5.726   3.223  0.1055  1.3745 -0.2415
 9743TIP3    H250721   1.491   5.701   3.138 -0.5978 -0.0290 -0.8812
 9744TIP3   OH250722   0.984   3.147   5.824  0.3599  0.0680  0.0228
 9744TIP3    H150723   0.981   3.132   5.729 -0.6271 -1.2260  0.2239
 9744TIP3    H250724   0.942   3.070   5.861 -1.6165  1.7013  1.4017
 9745TIP3   OH250725   3.585   0.725   3.195 -0.0088  0.3368  0.3363
 9745TIP3    H150726   3.511   0.676   3.159  0.8740 -0.6877 -0.1689
 9745TIP3    H250727   3.583   0.704   3.289 -0.3301  0.2848  0.3208
 9746TIP3   OH250728   4.567   1.095   0.765  0.6794 -0.2128 -0.2052
 9746TIP3    H150729   4.641   1.111   0.823  0.5397  0.2125 -0.1480
 9746TIP3    H250730   4.599   1.119   0.678 -0.5168  3.6732  0.2357
 9747TIP3   OH250731   5.736   3.884   2.575 -0.2406  0.1922  0.1839
 9747TIP3    H150732   5.779   3.798   2.574  0.6388  0.5566 -2.4182
 9747TIP3    H250733   5.644   3.864   2.556  0.1967 -0.1784 -1.8551
 9748TIP3   OH250734   6.436   3.698  12.109  0.6318  0.2626  0.1982
 9748TIP3    H150735   6.436   3.602  12.102  1.2060  0.2984 -0.3706
 9748TIP3    H250736   6.423   3.729  12.020  0.3379  0.7180  0.3961
 9749TIP3   OH250737   5.756   4.466   1.266 -0.3000  0.1892  0.1257
 9749TIP3    H150738   5.764   4.474   1.170 -0.8504  0.2617  0.0850
 9749TIP3    H250739   5.785   4.377   1.285 -1.9509 -0.4753 -0.3183
 9750TIP3   OH250740   2.891   5.626   5.147  0.5690  0.0846 -0.1663
 9750TIP3    H150741   2.821   5.598   5.088  0.4959  0.1470 -0.1084
 9750TIP3    H250742   2.904   5.552   5.206  1.6191 -0.5571 -1.1582
 9751TIP3   OH250743   6.183   3.176   6.016 -0.4944 -0.1609 -0.1035
 9751TIP3    H150744   6.254   3.237   6.038 -0.5748 -0.0283 -0.2073
 9751TIP3    H250745   6.122   3.184   6.089 -0.0393 -0.8403  0.3561
 9752TIP3   OH250746   5.868   6.536   2.341  0.0225  0.0010  0.2379
 9752TIP3    H150747   5.926   6.483   2.395 -0.8865  0.3424  1.5772
 9752TIP3    H250748   5.781   6.500   2.356 -0.0955 -1.1471 -2.4913
 9753TIP3   OH250749   4.609   0.513   1.366  0.0669 -0.1359 -0.1325
 9753TIP3    H150750   4.529   0.541   1.321  0.2169  0.5009 -0.0089
 9753TIP3    H250751   4.679   0.529   1.303  0.3907  1.5849  0.6067
 9754TIP3   OH250752   1.556   0.688  11.178  0.5613 -0.5508 -0.1397
 9754TIP3    H150753   1.541   0.717  11.088 -0.3553  0.9353  0.4540
 9754TIP3    H250754   1.576   0.768  11.226 -2.0993 -0.8031  1.6019
 9755TIP3   OH250755   0.463   3.967   4.669  0.6083  0.2275  0.5021
 9755TIP3    H150756   0.495   4.031   4.605  0.9415 -1.2090 -0.8253
 9755TIP3    H250757   0.449   3.887   4.618 -0.3502 -0.6064  2.0026
 9756TIP3   OH250758   2.469   3.475  12.690 -0.4788 -0.4971  0.3533
 9756TIP3    H150759   2.468   3.482  12.595  1.0981 -0.5523  0.3026
 9756TIP3    H250760   2.502   3.560  12.720 -1.0034 -0.4652  0.8564
 9757TIP3   OH250761   6.373   4.011  13.660  0.3414  0.5705 -0.1848
 9757TIP3    H150762   6.362   3.967  13.744  0.9822  0.0103 -0.3822
 9757TIP3    H250763   6.444   4.074  13.675  2.2656 -1.2865 -0.9212
 9758TIP3   OH250764   1.123   5.627  16.227  1.3296 -0.4497  0.3785
 9758TIP3    H150765   1.213   5.650  16.204  0.3159 -0.1827 -4.1293
 9758TIP3    H250766   1.118   5.533  16.212  0.4690 -0.1699 -1.3238
 9759TIP3   OH250767   6.495   5.971  16.115  0.2255  0.6200  0.3366
 9759TIP3    H150768   6.571   6.012  16.074  0.4782  0.1962  0.3756
 9759TIP3    H250769   6.484   5.889  16.068 -0.4963  0.8906  0.0252
 9760TIP3   OH250770   1.578   0.378  12.863  0.0446 -0.5298 -0.1351
 9760TIP3    H150771   1.556   0.418  12.779  0.7215  0.2350  0.0401
 9760TIP3    H250772   1.633   0.443  12.907  0.9367 -1.5290  0.2822
 9761TIP3   OH250773   1.666   2.222   0.447  0.2939 -0.0083  0.6108
 9761TIP3    H150774   1.583   2.191   0.484 -1.0057  0.1413 -1.9491
 9761TIP3    H250775   1.730   2.155   0.474 -0.7948 -0.5707  1.9440
 9762TIP3   OH250776   4.019   6.005  12.191  0.0891 -0.6709 -0.2241
 9762TIP3    H150777   3.981   5.943  12.128 -1.5990 -0.0026  0.0876
 9762TIP3    H250778   3.944   6.033  12.245  0.7640  1.7539 -0.4600
 9763TIP3   OH250779   5.724   0.305  15.530  0.6311  0.0457  0.0035
 9763TIP3    H150780   5.813   0.289  15.496 -0.4766  1.4096 -4.1933
 9763TIP3    H250781   5.670   0.239  15.486 -1.1043  2.7135 -2.2113
 9764TIP3   OH250782   4.565   3.064  15.473  0.2055 -0.3245  0.5841
 9764TIP3    H150783   4.503   3.027  15.536  0.9560 -0.3251  1.3370
 9764TIP3    H250784   4.645   3.015  15.486  0.2757 -0.5572 -0.6313
 9765TIP3   OH250785   5.775   4.829  13.283 -0.3797  0.3702  0.0676
 9765TIP3    H150786   5.744   4.791  13.201 -0.6488  2.5641 -0.9123
 9765TIP3    H250787   5.832   4.901  13.257  2.8109 -1.2926  1.8220
 9766TIP3   OH250788   3.713   0.929   5.528 -0.2362  0.5936 -0.4032
 9766TIP3    H150789   3.794   0.878   5.538 -1.6532 -1.4552  1.4294
 9766TIP3    H250790   3.703   0.974   5.611 -2.4356 -1.5478  0.6017
 9767TIP3   OH250791   1.081   1.736  13.721  0.2014  0.0442 -0.0103
 9767TIP3    H150792   1.100   1.828  13.703  1.9000  0.2227  2.2218
 9767TIP3    H250793   1.038   1.737  13.806 -2.1886 -1.1061 -1.1042
 9768TIP3   OH250794   1.845   1.117  16.174  0.2284  0.3326 -0.1630
 9768TIP3    H150795   1.790   1.086  16.246  1.3799  0.4850  0.8206
 9768TIP3    H250796   1.927   1.069  16.186  0.4448  0.3755 -1.3829
 9769TIP3   OH250797   3.291   0.253  13.534  0.2168 -0.0934  0.3788
 9769TIP3    H150798   3.333   0.243  13.448 -0.0287  0.0307  0.2402
 9769TIP3    H250799   3.282   0.347  13.545 -0.1935 -0.1219  0.3171
 9770TIP3   OH250800   0.610   4.182  12.512  0.0761  0.3423  0.3453
 9770TIP3    H150801   0.645   4.252  12.457 -0.5123  0.2025 -0.2247
 9770TIP3    H250802   0.571   4.120  12.450 -1.6269  0.7453  0.9380
 9771TIP3   OH250803   5.512   2.064  14.898 -0.3760  0.0221 -0.4094
 9771TIP3    H150804   5.541   2.147  14.936 -2.3071  0.3691  0.4547
 9771TIP3    H250805   5.439   2.089  14.840 -0.3628 -0.9715 -0.8678
 9772TIP3   OH250806   4.309   6.253  14.533 -0.6678 -0.0962 -0.0666
 9772TIP3    H150807   4.299   6.158  14.544  2.7686 -0.6030 -0.2167
 9772TIP3    H250808   4.403   6.268  14.543 -1.1093  3.3419 -0.0123
 9773TIP3   OH250809   0.741   5.309   4.500 -0.1104  0.1071  0.3739
 9773TIP3    H150810   0.766   5.401   4.486 -0.4879  0.4273  1.6045
 9773TIP3    H250811   0.701   5.282   4.418  2.8440  0.0224 -1.1860
 9774TIP3   OH250812   5.113   3.959  12.977 -0.2569  0.3508  1.0199
 9774TIP3    H150813   5.042   3.978  12.916  0.5187  0.8663  0.2706
 9774TIP3    H250814   5.190   3.999  12.938  0.1609  1.1487  2.6022
 9775TIP3   OH250815   4.666   0.023  11.369  0.0727  0.6697  1.0749
 9775TIP3    H150816   4.666  -0.059  11.319 -1.6462  0.4345  1.3815
 9775TIP3    H250817   4.709   0.086  11.313 -1.2301  0.2567 -0.4725
 9776TIP3   OH250818   0.150   0.209   0.721 -0.3982  0.0279  0.4580
 9776TIP3    H150819   0.100   0.274   0.770  0.4243 -0.3278  1.8338
 9776TIP3    H250820   0.157   0.134   0.780 -0.2870 -0.8505 -0.6277
 9777TIP3   OH250821   2.479   6.183   0.493  0.2208  0.1401  0.0803
 9777TIP3    H150822   2.449   6.273   0.482 -2.6737 -0.5535  1.1980
 9777TIP3    H250823   2.525   6.162   0.411 -1.8459  1.6585 -1.5827
 9778TIP3   OH250824   0.734   2.791  15.249  0.0091 -0.3521 -0.1115
 9778TIP3    H150825   0.812   2.748  15.286 -0.0822  0.0586  0.5763
 9778TIP3    H250826   0.769   2.866  15.201 -0.0509  0.9108  1.7205
 9779TIP3   OH250827   2.738   1.420  13.375  0.1544  0.0540 -0.2203
 9779TIP3    H150828   2.674   1.436  13.444  1.5234  1.7258  0.7141
 9779TIP3    H250829   2.685   1.404  13.297 -1.4615 -2.6797  1.2571
 9780TIP3   OH250830   6.357   2.253   3.449 -0.2921  0.5217 -0.1466
 9780TIP3    H150831   6.273   2.216   3.475 -1.1302  2.2785 -0.2027
 9780TIP3    H250832   6.406   2.264   3.531  0.0339 -0.8188 -0.1502
 9781TIP3   OH250833   3.298   1.919   0.473 -0.2801  0.0511  0.6284
 9781TIP3    H150834   3.261   1.831   0.467 -1.0096  0.3941  0.0414
 9781TIP3    H250835   3.383   1.912   0.431 -1.8860  0.4851 -3.0198
 9782TIP3   OH250836   2.978   3.181   4.650 -0.3450  0.3764 -0.2185
 9782TIP3    H150837   2.965   3.110   4.714 -0.6642  0.9430  0.3560
 9782TIP3    H250838   2.934   3.257   4.689 -1.7504  0.4043 -1.7252
 9783TIP3   OH250839   0.315   3.016   1.356 -0.0032 -0.0078  0.2682
 9783TIP3    H150840   0.238   2.970   1.391 -0.8420  0.1115 -1.3272
 9783TIP3    H250841   0.343   3.073   1.427 -1.1049 -0.4084  1.0534
 9784TIP3   OH250842   5.510   6.561  16.977  0.1821 -0.3927 -0.4940
 9784TIP3    H150843   5.494   6.537  16.886  0.4024 -0.2663 -0.5664
 9784TIP3    H250844   5.600   6.594  16.978 -0.2914  0.9459 -0.4977
 9785TIP3   OH250845   6.203   1.717   4.466  0.0721 -1.0095 -0.3276
 9785TIP3    H150846   6.179   1.771   4.391  1.5877  0.0039 -0.1367
 9785TIP3    H250847   6.213   1.779   4.538 -2.3375 -2.0729  1.0286
 9786TIP3   OH250848   1.535   5.444  13.112  0.0586 -0.4812  0.0339
 9786TIP3    H150849   1.509   5.529  13.076 -0.6314 -0.6435  0.1321
 9786TIP3    H250850   1.593   5.466  13.185  0.4041 -0.1142 -0.3453
 9787TIP3   OH250851   3.674   4.421   6.498 -0.2138  0.0911  0.8184
 9787TIP3    H150852   3.694   4.440   6.589 -1.9051 -1.9255  1.7122
 9787TIP3    H250853   3.736   4.353   6.473 -1.0611 -0.8505  1.1906
 9788TIP3   OH250854   4.312   3.133   2.615 -0.0938  0.2761  0.0754
 9788TIP3    H150855   4.291   3.218   2.576  1.9729  0.9719  0.3616
 9788TIP3    H250856   4.229   3.102   2.651 -1.2063  1.4709 -1.3304
 9789TIP3   OH250857   4.615   1.428  16.962 -0.5118 -0.2379  0.0943
 9789TIP3    H150858   4.623   1.447  17.055 -0.2047 -1.5770  0.3534
 9789TIP3    H250859   4.705   1.425  16.929 -0.5865 -0.4442 -0.0990
 9790TIP3   OH250860   2.402   3.976  14.562 -0.1658 -0.0335 -0.4015
 9790TIP3    H150861   2.465   3.913  14.527  0.1643  1.1313 -2.0541
 9790TIP3    H250862   2.421   4.057  14.513 -1.2917  1.0294  0.8683
 9791TIP3   OH250863   5.207   6.223  14.425 -0.3250  0.3762 -0.0322
 9791TIP3    H150864   5.182   6.259  14.510  0.1951  0.0448  0.2600
 9791TIP3    H250865   5.303   6.223  14.426 -0.2147  2.7550 -1.5946
 9792TIP3   OH250866   1.826   6.415   5.244 -0.2955 -0.1341  0.4512
 9792TIP3    H150867   1.921   6.424   5.244 -0.3362  0.3752  0.4740
 9792TIP3    H250868   1.807   6.357   5.318 -0.0648  0.6959  1.1959
 9793TIP3   OH250869   0.241   1.093  14.473 -0.1625  0.8725 -0.1889
 9793TIP3    H150870   0.272   1.056  14.556 -1.5048  2.7012  1.1963
 9793TIP3    H250871   0.321   1.101  14.420  0.3575 -3.1205 -0.3626
 9794TIP3   OH250872   0.891   0.682   3.609 -0.2227  0.0404  0.0415
 9794TIP3    H150873   0.955   0.617   3.637  0.2651 -0.3870 -1.8830
 9794TIP3    H250874   0.919   0.763   3.652  1.2721 -0.2771 -0.2600
 9795TIP3   OH250875   1.375   0.856   5.419 -0.0509  0.3818  0.3757
 9795TIP3    H150876   1.315   0.789   5.454 -0.5497  1.2250  1.1696
 9795TIP3    H250877   1.337   0.939   5.446  1.6423  0.9478  1.1528
 9796TIP3   OH250878   1.584   4.722   5.507 -0.8549 -0.3697 -0.4010
 9796TIP3    H150879   1.545   4.640   5.477 -1.2103 -0.3423 -0.0228
 9796TIP3    H250880   1.606   4.707   5.599 -3.8539  0.9382  0.6779
 9797TIP3   OH250881   4.199   1.492   3.918  0.7083 -0.6832 -0.5185
 9797TIP3    H150882   4.270   1.518   3.976 -1.5049  1.5849  1.4256
 9797TIP3    H250883   4.196   1.562   3.852 -1.6863  1.2575  1.4180
 9798TIP3   OH250884   1.934   3.162  13.823  0.3940 -0.1030 -0.0241
 9798TIP3    H150885   1.869   3.226  13.795 -1.0570 -0.8201  1.4703
 9798TIP3    H250886   1.902   3.132  13.909  1.8577 -1.6501  0.0358
 9799TIP3   OH250887   1.615   2.827   1.192 -0.8816 -0.6792  0.0455
 9799TIP3    H150888   1.532   2.780   1.198 -1.1997 -0.0344  0.9026
 9799TIP3    H250889   1.600   2.895   1.127 -1.5244  0.3820  1.2634
 9800TIP3   OH250890   5.782   3.420   6.529 -0.4266  0.5601 -0.3442
 9800TIP3    H150891   5.851   3.363   6.495 -2.2306 -1.5962 -0.6669
 9800TIP3    H250892   5.788   3.500   6.476  1.6479  0.3807 -0.4755
 9801TIP3   OH250893   0.539   3.122   3.824  0.4013  0.1820 -1.2175
 9801TIP3    H150894   0.447   3.143   3.842  0.7735  1.2286 -0.4723
 9801TIP3    H250895   0.557   3.046   3.880  0.3138  0.7068 -0.4562
 9802TIP3   OH250896   4.260   2.437  14.920  0.1067  0.1062 -0.7611
 9802TIP3    H150897   4.352   2.424  14.944  0.0776  1.3447  0.1227
 9802TIP3    H250898   4.211   2.396  14.991 -0.0228 -0.0748 -0.9545
 9803TIP3   OH250899   2.315   5.526  15.081 -0.1454  0.2684  0.4840
 9803TIP3    H150900   2.361   5.604  15.111 -1.4704  1.3937 -0.2544
 9803TIP3    H250901   2.298   5.476  15.160  0.6997  0.7443  0.9830
 9804TIP3   OH250902   3.810   4.285   2.082  0.8098 -1.0948 -0.3529
 9804TIP3    H150903   3.840   4.198   2.105  1.9220 -0.2569  1.5703
 9804TIP3    H250904   3.784   4.325   2.165 -0.7575  0.0351 -1.3310
 9805TIP3   OH250905   5.730   2.922  12.474  0.9401 -0.1233  0.5187
 9805TIP3    H150906   5.711   2.979  12.399  3.3877 -0.6024 -0.5569
 9805TIP3    H250907   5.647   2.918  12.522 -0.7155  0.2649 -2.0967
 9806TIP3   OH250908   5.767   2.188   3.676  0.6634  0.3901  0.6709
 9806TIP3    H150909   5.775   2.169   3.583 -1.6871  1.1966  0.2206
 9806TIP3    H250910   5.701   2.125   3.707  1.5891 -0.0269  1.8546
 9807TIP3   OH250911   1.873   6.307  16.214 -0.2359  0.1830  0.6671
 9807TIP3    H150912   1.875   6.399  16.238  1.5424  0.6685 -1.1293
 9807TIP3    H250913   1.904   6.305  16.123 -2.4442 -1.9572 -0.1736
 9808TIP3   OH250914   5.693   5.355  16.736 -0.0167 -0.4780  0.7653
 9808TIP3    H150915   5.778   5.364  16.693 -0.0949  0.2712  0.7472
 9808TIP3    H250916   5.685   5.434  16.790 -1.0109 -0.1896  0.2210
 9809TIP3   OH250917   2.474   6.711  11.932 -0.2732  0.6175 -0.4682
 9809TIP3    H150918   2.429   6.628  11.944 -0.2465  0.4554 -1.4105
 9809TIP3    H250919   2.567   6.689  11.939 -0.3036  0.8402  0.8203
 9810TIP3   OH250920   1.551   4.299  16.895 -0.2271 -0.0167 -0.9980
 9810TIP3    H150921   1.645   4.289  16.879 -0.2480 -0.5261 -0.8032
 9810TIP3    H250922   1.522   4.214  16.927 -0.7035  0.2167 -0.7921
 9811TIP3   OH250923   1.700   0.636  14.128 -0.2690  0.1597 -0.2740
 9811TIP3    H150924   1.698   0.541  14.136  0.8887  0.0554 -0.9678
 9811TIP3    H250925   1.635   0.656  14.061 -0.2087 -0.1770 -0.4346
 9812TIP3   OH250926   5.451   5.462  15.421  0.2251 -0.2756 -0.2488
 9812TIP3    H150927   5.474   5.405  15.494 -0.0289  0.5548  0.4843
 9812TIP3    H250928   5.420   5.543  15.461 -0.7420 -0.1205 -1.2582
 9813TIP3   OH250929   1.629   2.448  13.512  0.3279 -0.4227 -0.1154
 9813TIP3    H150930   1.556   2.501  13.479 -0.9055 -1.7195  0.4346
 9813TIP3    H250931   1.614   2.443  13.606 -0.3703 -2.8259 -0.2985
 9814TIP3   OH250932   2.676   1.958   3.873  0.7202  0.2526 -0.2585
 9814TIP3    H150933   2.710   1.897   3.807  1.2650 -0.4040  0.5990
 9814TIP3    H250934   2.582   1.945   3.871  0.8410 -0.7788  0.0347
 9815TIP3   OH250935   0.410   2.931   4.703  0.1703  0.5279  0.4012
 9815TIP3    H150936   0.411   2.863   4.636  0.2501  2.1489 -1.3435
 9815TIP3    H250937   0.317   2.955   4.711 -0.1451 -1.0582  2.4774
 9816TIP3   OH250938   6.463   3.261   5.193  0.0185 -0.1361 -0.2978
 9816TIP3    H150939   6.519   3.229   5.122 -0.5889  1.0173 -1.3406
 9816TIP3    H250940   6.477   3.199   5.265  2.2559 -0.1487 -0.6756
 9817TIP3   OH250941   0.777   1.470  13.696 -0.7414 -0.3569  0.0293
 9817TIP3    H150942   0.824   1.535  13.644  0.1164 -0.2990  0.8323
 9817TIP3    H250943   0.693   1.460  13.653 -1.0242  1.5201  0.0665
 9818TIP3   OH250944   0.979   5.558  15.874 -0.1848  0.1380  0.6538
 9818TIP3    H150945   0.890   5.536  15.903 -0.5791 -1.2766 -1.3558
 9818TIP3    H250946   1.005   5.483  15.820  0.7871  2.0523 -1.7416
 9819TIP3   OH250947   0.288   4.215  12.203 -0.1225  0.6549  0.0501
 9819TIP3    H150948   0.296   4.148  12.136  1.2599  0.9815 -0.1297
 9819TIP3    H250949   0.280   4.166  12.285  1.9888  0.2449  0.0452
 9820TIP3   OH250950   5.290   2.582   4.783 -0.3736  0.1287 -0.7352
 9820TIP3    H150951   5.205   2.537   4.781 -0.4461  0.2938 -1.6406
 9820TIP3    H250952   5.309   2.602   4.692  1.1127 -0.7712 -0.6557
 9821TIP3   OH250953   1.048   0.567  14.444 -0.3771  0.1692 -0.2429
 9821TIP3    H150954   1.081   0.486  14.482  2.2277  1.3280  0.2289
 9821TIP3    H250955   1.005   0.541  14.363  0.9641 -1.6239 -0.4384
 9822TIP3   OH250956   5.308   3.277  12.937  0.5575  0.3924 -0.4334
 9822TIP3    H150957   5.397   3.257  12.966 -0.2384  0.1677  2.0716
 9822TIP3    H250958   5.320   3.330  12.858  2.8874  0.1076 -0.3417
 9823TIP3   OH250959   0.111   2.438   4.994  0.0081  0.1219 -0.1485
 9823TIP3    H150960   0.140   2.385   5.069 -0.9573  0.4092  0.4423
 9823TIP3    H250961   0.073   2.516   5.034 -0.4601  0.3057 -0.9487
 9824TIP3   OH250962   0.619   3.312   2.079 -0.4736 -0.5564 -0.4592
 9824TIP3    H150963   0.704   3.272   2.062 -0.5446 -0.8098 -0.2120
 9824TIP3    H250964   0.556   3.245   2.054 -0.5920 -0.6393  0.0675
 9825TIP3   OH250965   0.750   4.829   3.521  0.6501  0.1322 -0.7866
 9825TIP3    H150966   0.707   4.911   3.546  1.3837 -0.1007  1.4707
 9825TIP3    H250967   0.812   4.855   3.453  3.1903  2.1848  2.0365
 9826TIP3   OH250968   3.473   3.680   0.702  0.1698 -0.4658  0.0295
 9826TIP3    H150969   3.393   3.670   0.651 -0.0409 -1.0973  0.4826
 9826TIP3    H250970   3.472   3.608   0.765  1.2277 -0.6600 -0.1434
 9827TIP3   OH250971   6.542   4.919  13.316 -0.7325  0.3041 -0.4865
 9827TIP3    H150972   6.464   4.920  13.373 -0.5462 -1.1681 -0.1743
 9827TIP3    H250973   6.611   4.957  13.370 -0.8995  0.3053 -0.2700
 9828TIP3   OH250974   5.044   3.953   3.782 -0.0872 -0.1780  0.0397
 9828TIP3    H150975   5.031   4.041   3.746  1.1501  0.3043  0.7230
 9828TIP3    H250976   5.070   3.967   3.872  2.6780 -1.0994 -0.5263
 9829TIP3   OH250977   1.660   2.055   0.773  0.3635  0.0398 -0.1043
 9829TIP3    H150978   1.643   1.961   0.780  0.3202 -0.1973 -2.4885
 9829TIP3    H250979   1.755   2.061   0.762  0.2478  0.1656 -1.0894
 9830TIP3   OH250980   5.959   5.161  17.178  0.2347  0.3080 -0.8019
 9830TIP3    H150981   5.929   5.152  17.269  0.4807 -0.7021 -0.8080
 9830TIP3    H250982   6.031   5.223  17.183 -2.1501  3.3264 -0.8691
 9831TIP3   OH250983   6.554   5.814  15.615  0.1044 -0.1595 -0.1546
 9831TIP3    H150984   6.568   5.752  15.544  1.3166  0.1810 -0.2442
 9831TIP3    H250985   6.592   5.771  15.692  0.6590  0.3220 -0.1523
 9832TIP3   OH250986   3.855   0.490  15.778  0.1644 -0.0150 -0.9284
 9832TIP3    H150987   3.947   0.493  15.805 -0.8438  0.3535  3.1426
 9832TIP3    H250988   3.829   0.582  15.768 -1.0789  0.4959  4.2056
 9833TIP3   OH250989   6.247   4.474  14.990  0.3553 -0.3695  0.1649
 9833TIP3    H150990   6.226   4.397  14.937 -0.4021  0.5479 -0.9274
 9833TIP3    H250991   6.219   4.548  14.936  0.3967  0.6445  1.4908
 9834TIP3   OH250992   4.654   5.490  15.163  0.3739  0.2060 -0.0634
 9834TIP3    H150993   4.703   5.520  15.087  1.9192 -0.8807  0.4504
 9834TIP3    H250994   4.713   5.428  15.206 -1.2398 -0.7007  0.9249
 9835TIP3   OH250995   0.825   5.384   4.173 -0.1542  0.0856  0.0159
 9835TIP3    H150996   0.897   5.335   4.214  0.2950  0.9680  0.3167
 9835TIP3    H250997   0.822   5.467   4.222 -0.5505  0.5670 -0.8043
 9836TIP3   OH250998   3.345   4.085   1.774  0.7413 -0.0512 -0.6386
 9836TIP3    H150999   3.251   4.071   1.767  0.3332  1.5489  0.9346
 9836TIP3    H251000   3.369   4.043   1.857  1.1366  0.7833 -0.3272
 9837TIP3   OH251001   6.237   4.970  15.425  0.1673  0.2132 -0.1295
 9837TIP3    H151002   6.259   4.879  15.405 -1.2244 -0.2360  0.2398
 9837TIP3    H251003   6.240   4.975  15.520 -3.6313 -0.6127  0.2053
 9838TIP3   OH251004   0.363   6.267   6.234 -0.1982 -0.2103  0.1861
 9838TIP3    H151005   0.396   6.245   6.147  1.0773  1.1708  0.2758
 9838TIP3    H251006   0.273   6.297   6.219  0.2388  0.6748 -0.7600
 9839TIP3   OH251007   2.839   5.385   3.772 -0.1133  0.0721 -0.1648
 9839TIP3    H151008   2.898   5.412   3.702 -0.6657 -0.2239 -0.7595
 9839TIP3    H251009   2.840   5.459   3.834  2.3483 -0.7000  0.8469
 9840TIP3   OH251010   0.455   1.796  14.359 -0.2831 -0.4867  0.0490
 9840TIP3    H151011   0.543   1.760  14.352 -0.0040  0.3670 -1.1007
 9840TIP3    H251012   0.458   1.878  14.309 -1.8493 -0.7011 -0.4688
 9841TIP3   OH251013   5.866   6.563  11.760  1.0786 -0.3704 -0.4115
 9841TIP3    H151014   5.932   6.504  11.796  0.1066 -1.0667  0.2568
 9841TIP3    H251015   5.916   6.639  11.729  1.9862  0.3271  2.4768
 9842TIP3   OH251016   3.505   4.380  11.118  0.4534  0.5026 -0.2230
 9842TIP3    H151017   3.411   4.369  11.136  0.4337 -0.0386 -0.6533
 9842TIP3    H251018   3.538   4.428  11.194 -0.0735  0.2452  0.1732
 9843TIP3   OH251019   5.705   6.045   0.580 -0.3318 -0.1399 -0.2738
 9843TIP3    H151020   5.714   5.967   0.526  2.4011  0.1143 -0.3365
 9843TIP3    H251021   5.643   6.020   0.649 -2.1247 -1.2006 -2.1668
 9844TIP3   OH251022   1.660   4.387  12.323  0.1026 -0.2698  0.0903
 9844TIP3    H151023   1.653   4.332  12.401 -1.2226 -0.2060  0.0284
 9844TIP3    H251024   1.592   4.453  12.333 -0.7542 -0.8298 -1.5503
 9845TIP3   OH251025   1.684   2.785   0.299  0.0540  0.1224  0.2773
 9845TIP3    H151026   1.729   2.867   0.315 -0.4894  0.2444  1.2429
 9845TIP3    H251027   1.745   2.734   0.246 -0.4632  1.9454 -2.2400
 9846TIP3   OH251028   4.568   0.077   2.955 -0.2730 -0.0144  0.1429
 9846TIP3    H151029   4.575   0.055   3.048  1.9833 -0.6973 -0.1263
 9846TIP3    H251030   4.551  -0.006   2.912  0.1287  0.0624 -0.1692
 9847TIP3   OH251031   6.009   4.714   4.514  0.2314  0.4857  0.3384
 9847TIP3    H151032   6.020   4.676   4.601 -2.3837 -0.6210  0.2997
 9847TIP3    H251033   5.959   4.794   4.529  0.7290  0.8824 -0.0762
 9848TIP3   OH251034   2.779   2.275  14.201  0.2411  0.1710 -0.0082
 9848TIP3    H151035   2.827   2.345  14.245  0.2530  0.1659 -0.0130
 9848TIP3    H251036   2.743   2.222  14.271  0.1783  0.2182 -0.0050
 9849TIP3   OH251037   4.086   5.062  16.223  0.0469  0.1788 -0.0042
 9849TIP3    H151038   4.105   5.058  16.129 -0.5699 -1.0431 -0.0971
 9849TIP3    H251039   4.166   5.032  16.265 -0.6903 -2.4239 -0.2956
 9850TIP3   OH251040   3.827   4.174  11.091  0.1246 -0.2195  0.3297
 9850TIP3    H151041   3.753   4.129  11.049 -0.5601  0.2186  1.0230
 9850TIP3    H251042   3.817   4.152  11.184  0.9632 -0.2761  0.4058
 9851TIP3   OH251043   4.004   2.389   4.972  0.0337  0.3683  0.3734
 9851TIP3    H151044   4.081   2.421   5.020  1.3949 -0.7021 -1.0128
 9851TIP3    H251045   3.969   2.467   4.929  1.0224  0.6791  0.1128
 9852TIP3   OH251046   3.624   6.223  14.209  0.3328 -0.2816 -0.2857
 9852TIP3    H151047   3.661   6.191  14.292  1.0820 -1.6665 -1.1171
 9852TIP3    H251048   3.541   6.264  14.234  0.4925 -0.7616  1.1337
 9853TIP3   OH251049   0.551   0.353  13.084  0.1800  0.6650  0.5497
 9853TIP3    H151050   0.484   0.290  13.059  2.1414 -0.9070 -1.1448
 9853TIP3    H251051   0.542   0.424  13.021 -1.5462  1.8174  1.9976
 9854TIP3   OH251052   3.865   2.168   4.889 -0.4850 -0.3940  0.0707
 9854TIP3    H151053   3.942   2.224   4.886 -0.2880 -0.6211  0.8870
 9854TIP3    H251054   3.834   2.173   4.979 -0.7685 -1.1976  0.0239
 9855TIP3   OH251055   2.323   3.515  16.731  0.0467 -0.4249  0.6142
 9855TIP3    H151056   2.321   3.611  16.727  1.2876 -0.3959  0.1113
 9855TIP3    H251057   2.354   3.488  16.644 -0.4622 -1.2953  0.6940
 9856TIP3   OH251058   2.693   0.728   6.764 -0.3566  0.0299 -0.7731
 9856TIP3    H151059   2.669   0.793   6.830  1.0358 -0.4556  0.2584
 9856TIP3    H251060   2.655   0.646   6.796 -0.8779  0.0498 -1.3239
 9857TIP3   OH251061   4.267   3.783  14.977 -0.0073 -0.1267 -0.2478
 9857TIP3    H151062   4.257   3.878  14.966 -0.2673 -0.2362 -1.0963
 9857TIP3    H251063   4.246   3.748  14.890 -2.2907 -1.1218  0.6298
 9858TIP3   OH251064   3.590   4.395   1.429  0.3111 -0.0444 -0.0989
 9858TIP3    H151065   3.580   4.307   1.392 -1.7978  0.2526 -0.3890
 9858TIP3    H251066   3.547   4.390   1.514 -2.4146  1.2991 -1.2466
 9859TIP3   OH251067   0.318   5.656  15.297 -0.8725 -0.3726 -0.0116
 9859TIP3    H151068   0.270   5.644  15.216 -1.2534 -0.2066  0.1905
 9859TIP3    H251069   0.259   5.625  15.366 -0.6722 -0.2209  0.2325
 9860TIP3   OH251070   3.925   6.148   5.069  0.3337 -0.7235  0.8512
 9860TIP3    H151071   3.852   6.089   5.053  0.1665 -1.0415  2.5914
 9860TIP3    H251072   3.908   6.223   5.011 -1.0037 -1.0940  0.7193
 9861TIP3   OH251073   6.493   1.686  14.518 -0.1408  0.2237 -0.1597
 9861TIP3    H151074   6.551   1.634  14.463 -0.8514 -0.6913 -0.0621
 9861TIP3    H251075   6.505   1.776  14.487 -1.8211 -0.4292 -3.0908
 9862TIP3   OH251076   5.759   4.797   0.068  0.1495 -0.0476  0.1801
 9862TIP3    H151077   5.783   4.830  -0.019 -0.9956 -1.0861 -0.5608
 9862TIP3    H251078   5.703   4.865   0.105  1.6031  0.9543  0.6414
 9863TIP3   OH251079   6.034   1.518  15.026 -0.2790  0.1226  0.3998
 9863TIP3    H151080   6.116   1.468  15.025  0.6339  1.5907 -1.0389
 9863TIP3    H251081   6.050   1.588  15.090 -0.1189  0.8248 -0.3903
 9864TIP3   OH251082   0.129   1.430   5.928  0.1435 -0.5173  0.1396
 9864TIP3    H151083   0.200   1.389   5.879  0.4602 -1.4625  1.3407
 9864TIP3    H251084   0.155   1.521   5.938  0.5679 -0.5577 -0.5061
 9865TIP3   OH251085   1.363   0.967   0.783 -0.2172  0.6743 -0.1656
 9865TIP3    H151086   1.389   0.968   0.875  0.4799 -0.7004 -0.3278
 9865TIP3    H251087   1.311   0.887   0.774  1.2854 -0.2265 -1.3416
 9866TIP3   OH251088   1.208   1.467   5.316 -0.2738  0.2507 -0.0798
 9866TIP3    H151089   1.216   1.476   5.221  0.5482  0.3483 -0.0124
 9866TIP3    H251090   1.143   1.532   5.341  0.7107  1.3817 -0.3910
 9867TIP3   OH251091   1.386   2.502  13.385  0.8239  0.2813 -0.5600
 9867TIP3    H151092   1.351   2.564  13.321  0.3090  0.9964  0.3855
 9867TIP3    H251093   1.357   2.536  13.470  3.0359  0.4162  0.2225
 9868TIP3   OH251094   2.973   4.027   0.221 -0.2874  0.2262 -0.1146
 9868TIP3    H151095   2.943   4.051   0.308  0.3724 -0.1090  0.2101
 9868TIP3    H251096   2.900   3.977   0.183  0.2961 -1.6820  1.1354
 9869TIP3   OH251097   5.823   3.766   2.103  0.4958  0.2014  0.4003
 9869TIP3    H151098   5.758   3.816   2.053  0.3219  0.0589  0.4842
 9869TIP3    H251099   5.792   3.676   2.100  1.2146 -0.0361 -0.4176
 9870TIP3   OH251100   3.261   1.153  12.156 -0.5874  0.2744 -0.0478
 9870TIP3    H151101   3.213   1.142  12.074  1.9841 -2.1845 -1.4237
 9870TIP3    H251102   3.227   1.085  12.213 -0.5545  0.2298 -0.0809
 9871TIP3   OH251103   2.992   6.141  14.157 -0.6652  0.0692 -0.4934
 9871TIP3    H151104   2.949   6.059  14.136 -0.6211 -0.5219  1.5079
 9871TIP3    H251105   2.973   6.155  14.250  0.5865  1.5497 -0.4130
 9872TIP3   OH251106   2.806   1.642   5.583 -0.1110 -0.0978 -0.0560
 9872TIP3    H151107   2.859   1.637   5.663 -0.0984  0.2544 -0.0400
 9872TIP3    H251108   2.794   1.736   5.568 -0.2521 -0.1650 -0.3777
 9873TIP3   OH251109   1.293   3.410  15.851 -0.2109  0.0191 -0.2420
 9873TIP3    H151110   1.382   3.384  15.828  0.9467  3.2186  0.0431
 9873TIP3    H251111   1.250   3.425  15.767 -0.2693 -0.8607 -0.3755
 9874TIP3   OH251112   3.857   2.690  10.868  0.5873  0.3136 -0.2295
 9874TIP3    H151113   3.793   2.645  10.923  0.9555  0.4576  0.3211
 9874TIP3    H251114   3.813   2.770  10.840  0.8646  0.8890  0.9425
 9875TIP3   OH251115   1.360   5.322  13.397 -0.9965 -0.0564 -0.0359
 9875TIP3    H151116   1.405   5.400  13.362 -0.8293 -0.6967 -1.3309
 9875TIP3    H251117   1.293   5.357  13.455  0.6388  0.9730  1.3324
 9876TIP3   OH251118   0.640   2.437   0.199  0.4048  0.2985 -0.1506
 9876TIP3    H151119   0.572   2.395   0.252  0.1034 -0.2664 -0.9723
 9876TIP3    H251120   0.650   2.524   0.238 -1.0332  0.5272 -0.2333
 9877TIP3   OH251121   4.920   2.042  11.459 -0.0821 -0.5253 -0.0761
 9877TIP3    H151122   4.870   2.114  11.421  3.0588  3.1273  1.8823
 9877TIP3    H251123   5.000   2.038  11.406 -0.0165 -2.3878  0.1098
 9878TIP3   OH251124   4.886   4.892  12.114 -0.8281  0.0238 -0.2722
 9878TIP3    H151125   4.893   4.983  12.084  0.0455  0.4355  1.0603
 9878TIP3    H251126   4.970   4.874  12.156 -1.0251 -1.3834 -0.4206
 9879TIP3   OH251127   4.461   2.474   1.369 -0.1151 -0.0532  0.1532
 9879TIP3    H151128   4.387   2.443   1.316  0.0869  0.0707 -0.2060
 9879TIP3    H251129   4.497   2.394   1.407  0.0206 -0.1976 -0.2683
 9880TIP3   OH251130   0.202   0.305   2.734 -0.1946 -0.0741 -0.0597
 9880TIP3    H151131   0.130   0.290   2.673 -1.6709 -0.4079  1.6805
 9880TIP3    H251132   0.230   0.217   2.760  0.3159  0.0658 -0.1245
 9881TIP3   OH251133   0.574   6.110   2.292 -0.0880 -0.1449 -0.8310
 9881TIP3    H151134   0.545   6.201   2.297  2.3787  0.7399 -1.2095
 9881TIP3    H251135   0.516   6.062   2.351 -2.5133  1.3431 -1.8798
 9882TIP3   OH251136   2.338   3.927   0.198 -0.4211 -0.0915  0.3528
 9882TIP3    H151137   2.356   3.881   0.116  0.4609  1.3456 -0.2862
 9882TIP3    H251138   2.311   3.857   0.259 -0.7635 -1.2250 -1.0384
 9883TIP3   OH251139   2.479   5.494  17.068 -0.6672  0.0331 -0.2493
 9883TIP3    H151140   2.526   5.488  16.985 -1.7808 -0.2125 -0.8761
 9883TIP3    H251141   2.517   5.425  17.122  0.6906  0.7738 -0.2131
 9884TIP3   OH251142   2.134   0.996   1.501 -0.1802 -0.7685 -0.3571
 9884TIP3    H151143   2.200   0.943   1.545  1.7284  0.5589 -1.4676
 9884TIP3    H251144   2.180   1.034   1.426 -2.7872 -1.5054 -2.4738
 9885TIP3   OH251145   5.270   2.456   0.004 -0.1203  0.5079  0.4007
 9885TIP3    H151146   5.235   2.543  -0.014 -1.2913  0.0990  0.6530
 9885TIP3    H251147   5.271   2.449   0.099 -1.7634 -0.4164  0.3772
 9886TIP3   OH251148   3.851   4.849   2.583  0.2110 -0.3184  0.1154
 9886TIP3    H151149   3.914   4.785   2.550  1.3459  0.3965  0.8514
 9886TIP3    H251150   3.799   4.873   2.506  1.3100 -0.3751 -0.6607
 9887TIP3   OH251151   6.389   1.983  16.023 -0.4986 -1.0493 -0.1155
 9887TIP3    H151152   6.314   2.024  15.981 -0.1291  0.7349  0.8754
 9887TIP3    H251153   6.421   2.048  16.085  2.6582 -1.2099 -1.3619
 9888TIP3   OH251154   5.304   5.658  15.859  0.1301  0.0550  0.3257
 9888TIP3    H151155   5.319   5.751  15.877  1.4097 -0.3024  1.2523
 9888TIP3    H251156   5.388   5.627  15.824 -0.6814 -0.4800 -1.2688
 9889TIP3   OH251157   5.976   6.311  13.234  0.4205  1.2921 -0.6128
 9889TIP3    H151158   5.901   6.258  13.208  2.3568 -2.7895  1.1489
 9889TIP3    H251159   5.943   6.368  13.303 -1.4350  1.1445 -1.3209
 9890TIP3   OH251160   0.956   5.417   1.068 -0.2923  0.2542 -0.5349
 9890TIP3    H151161   1.038   5.368   1.060  0.0579  0.6272  0.6406
 9890TIP3    H251162   0.917   5.385   1.149 -0.9500  0.6263 -0.7013
 9891TIP3   OH251163   3.269   2.818   2.462 -0.3077  0.1519  0.4024
 9891TIP3    H151164   3.328   2.867   2.405 -1.3510  0.3952 -0.4963
 9891TIP3    H251165   3.199   2.788   2.404 -1.7621  0.9844  1.6508
 9892TIP3   OH251166   6.655   2.786   5.953 -0.0196  0.1388  0.3102
 9892TIP3    H151167   6.646   2.861   6.013 -0.0753  0.1675  0.2660
 9892TIP3    H251168   6.567   2.775   5.915 -0.5994 -1.2926  1.9222
 9893TIP3   OH251169   5.373   0.408   6.206  0.2145 -0.0934 -0.0631
 9893TIP3    H151170   5.301   0.466   6.184 -0.4390 -1.2714 -1.1944
 9893TIP3    H251171   5.344   0.321   6.176  1.4364 -0.8783  0.9253
 9894TIP3   OH251172   5.327   6.609  15.870  0.1668 -0.1233  0.2693
 9894TIP3    H151173   5.232   6.608  15.875 -0.0007  0.2698 -1.8913
 9894TIP3    H251174   5.354   6.679  15.929 -0.7929 -0.8902  1.6570
 9895TIP3   OH251175   1.378   4.957  15.587  0.4513 -0.5433  0.6527
 9895TIP3    H151176   1.349   4.992  15.502 -1.5180 -1.2576  0.9648
 9895TIP3    H251177   1.395   5.034  15.640 -0.8641 -0.0363  0.3902
 9896TIP3   OH251178   3.464   6.400  14.678  0.5727 -0.4619 -0.1460
 9896TIP3    H151179   3.544   6.358  14.647  0.9278  0.9467 -1.2671
 9896TIP3    H251180   3.489   6.445  14.758  1.0603  0.4014 -0.7685
 9897TIP3   OH251181   4.172   1.746   5.387  0.1185  0.0322 -0.4739
 9897TIP3    H151182   4.207   1.657   5.381  0.3991  0.0425  0.8368
 9897TIP3    H251183   4.101   1.740   5.451  1.8814  1.2354  1.7050
 9898TIP3   OH251184   4.375   5.267  11.993  0.0518 -0.6873 -0.1446
 9898TIP3    H151185   4.345   5.350  12.030 -2.0994 -0.4444 -2.2067
 9898TIP3    H251186   4.334   5.200  12.048 -1.3515 -0.3439 -0.7382
 9899TIP3   OH251187   0.534   2.824   3.171 -0.1162  0.2707  0.7610
 9899TIP3    H151188   0.622   2.793   3.148 -0.4509 -1.8606  2.0669
 9899TIP3    H251189   0.548   2.879   3.248  0.0663 -0.0970  0.9920
 9900TIP3   OH251190   6.070   4.878   0.030  0.0188 -0.4039  0.3250
 9900TIP3    H151191   5.976   4.864   0.046  0.1304 -0.4233  0.9736
 9900TIP3    H251192   6.093   4.812  -0.035 -0.6235  0.2127 -0.5640
 9901TIP3   OH251193   0.308   3.097  13.484 -0.1718  0.3256 -0.0810
 9901TIP3    H151194   0.219   3.092  13.518 -0.8942  2.5122 -1.4683
 9901TIP3    H251195   0.363   3.098  13.562 -1.5508  1.5721  0.9386
 9902TIP3   OH251196   4.342   0.547   3.996  0.6823 -0.6983 -0.0269
 9902TIP3    H151197   4.401   0.596   4.054  1.6091 -0.5331 -1.0831
 9902TIP3    H251198   4.346   0.594   3.913 -0.9604 -0.6825 -0.1404
 9903TIP3   OH251199   5.417   6.087   4.871 -0.5092 -0.1690 -0.3064
 9903TIP3    H151200   5.470   6.074   4.793  0.6546  0.1369  0.4076
 9903TIP3    H251201   5.442   6.016   4.930 -1.0727 -0.1621 -0.0466
 9904TIP3   OH251202   3.593   0.016  13.799  0.2149  0.5222 -0.3559
 9904TIP3    H151203   3.521   0.079  13.798  0.1106  0.4471  1.1748
 9904TIP3    H251204   3.578  -0.037  13.720 -1.9408 -0.0769  0.3829
 9905TIP3   OH251205   1.842   3.341   4.787 -0.8556 -0.2027  0.2923
 9905TIP3    H151206   1.838   3.254   4.749 -3.4339 -0.3525  0.7007
 9905TIP3    H251207   1.756   3.379   4.768  0.4295  2.5665 -0.5277
 9906TIP3   OH251208   0.582   6.026  11.586 -0.3536 -0.1106 -0.0083
 9906TIP3    H151209   0.551   6.064  11.668  1.2017  0.8684  0.1736
 9906TIP3    H251210   0.675   6.049  11.583  0.6561 -3.5964 -0.0910
 9907TIP3   OH251211   3.724   5.698   5.411 -0.0622 -0.2191  0.2712
 9907TIP3    H151212   3.713   5.664   5.500  0.6519 -0.6842  0.1838
 9907TIP3    H251213   3.660   5.649   5.359 -0.4117 -0.0170  0.5027
 9908TIP3   OH251214   1.941   3.931   2.456 -0.3120 -0.2950 -0.6522
 9908TIP3    H151215   1.897   3.985   2.391 -0.1951 -1.1280 -1.4442
 9908TIP3    H251216   1.933   3.980   2.538 -0.4152  0.7981 -1.2997
 9909TIP3   OH251217   4.451   5.432  12.887  0.2369 -0.5328  0.3602
 9909TIP3    H151218   4.424   5.384  12.965 -0.8551  1.0827  1.0369
 9909TIP3    H251219   4.373   5.432  12.831  0.3191  0.1182  0.2285
 9910TIP3   OH251220   3.064   2.583  14.180  0.4139 -0.2295  0.4691
 9910TIP3    H151221   3.130   2.521  14.147  1.6609  0.9815  0.5858
 9910TIP3    H251222   3.019   2.535  14.249 -0.3089 -1.8331 -1.0440
 9911TIP3   OH251223   6.803   3.276  13.407 -0.1738 -0.5788 -0.5286
 9911TIP3    H151224   6.729   3.249  13.353  0.3568  1.2673 -2.3246
 9911TIP3    H251225   6.871   3.300  13.344  1.4416 -0.8205  1.0397
 9912TIP3   OH251226   5.443   3.248   3.728 -0.8261 -0.1945 -0.4297
 9912TIP3    H151227   5.385   3.172   3.741 -2.7424  1.2599 -0.0040
 9912TIP3    H251228   5.396   3.303   3.666 -0.7463  1.8478  1.2362
 9913TIP3   OH251229   2.410   3.833   2.433  0.7823  0.0043  0.7202
 9913TIP3    H151230   2.315   3.826   2.425  0.7982 -2.2966  1.6106
 9913TIP3    H251231   2.441   3.833   2.342 -0.0254 -0.4391  0.4324
 9914TIP3   OH251232   5.694   5.434  12.670  0.2895  0.2131 -0.7127
 9914TIP3    H151233   5.634   5.381  12.618  1.5808  0.6895 -2.7957
 9914TIP3    H251234   5.649   5.444  12.755 -3.4730  2.0862 -2.6666
 9915TIP3   OH251235   3.595   5.962   1.455 -0.0243  0.2595 -0.5146
 9915TIP3    H151236   3.621   5.870   1.450 -1.6914 -0.2654 -0.0170
 9915TIP3    H251237   3.596   5.982   1.548 -1.1521  0.2751 -0.4915
 9916TIP3   OH251238   4.356   5.593   0.105 -0.2768  0.2859  0.5139
 9916TIP3    H151239   4.323   5.513   0.147  0.7265 -0.5796 -0.2919
 9916TIP3    H251240   4.451   5.586   0.110 -0.1725  1.6484  0.7995
 9917TIP3   OH251241   4.013   5.020   4.204 -0.0476 -0.2665  0.5266
 9917TIP3    H151242   4.085   5.072   4.167 -1.2739  0.6239 -0.6904
 9917TIP3    H251243   3.973   5.078   4.269 -1.5340  0.4453 -0.9629
 9918TIP3   OH251244   0.150   6.610   1.674  0.3442 -0.2498  0.1851
 9918TIP3    H151245   0.099   6.604   1.593  0.3278 -2.1557  0.2933
 9918TIP3    H251246   0.158   6.519   1.704 -0.0265  0.4358  2.5643
 9919TIP3   OH251247   5.215   4.779   5.173 -0.4992 -0.3223 -1.2230
 9919TIP3    H151248   5.237   4.735   5.090  2.9123 -0.5761 -0.3436
 9919TIP3    H251249   5.236   4.715   5.240 -2.4693  0.1676 -0.0544
 9920TIP3   OH251250   4.119   0.941  15.825  0.0291 -0.3212  0.0947
 9920TIP3    H151251   4.213   0.946  15.811 -0.0226 -0.3803 -0.2870
 9920TIP3    H251252   4.081   0.978  15.745 -0.2785 -0.9783 -0.0703
 9921TIP3   OH251253   5.773   2.915   4.478  0.0916 -0.3054  0.0460
 9921TIP3    H151254   5.800   2.919   4.569 -0.3494  3.4928  0.1552
 9921TIP3    H251255   5.835   2.972   4.431  0.7631 -2.7070 -2.2363
 9922TIP3   OH251256   0.458   1.780  14.899 -0.1880  0.0529  0.2868
 9922TIP3    H151257   0.509   1.860  14.889 -2.8615  2.2259  2.3400
 9922TIP3    H251258   0.523   1.711  14.911  2.2776  2.4448  1.9322
 9923TIP3   OH251259   1.883   1.193  15.471  0.5819 -0.3922 -0.0621
 9923TIP3    H151260   1.793   1.226  15.472 -0.1430 -2.1757  1.7499
 9923TIP3    H251261   1.919   1.219  15.556  1.9571  0.6637 -0.9303
 9924TIP3   OH251262   2.475   1.878  12.105  0.0959 -0.2334  0.6002
 9924TIP3    H151263   2.542   1.942  12.129 -1.6171  1.1717  1.9198
 9924TIP3    H251264   2.485   1.808  12.168 -0.7817  0.8176  1.9557
 9925TIP3   OH251265   0.851   4.753   3.773  0.1206 -0.1820 -0.6319
 9925TIP3    H151266   0.832   4.746   3.680 -1.5126 -1.0371 -0.2563
 9925TIP3    H251267   0.770   4.784   3.813 -0.2534 -2.7475  0.8722
 9926TIP3   OH251268   3.421   4.264   3.927 -0.4774  0.0233  0.5460
 9926TIP3    H151269   3.440   4.352   3.896 -1.5347 -0.0004 -0.2343
 9926TIP3    H251270   3.326   4.256   3.920 -0.4849 -0.8655  1.4624
 9927TIP3   OH251271   0.702   1.483   1.636  0.2694 -0.2485  0.8409
 9927TIP3    H151272   0.612   1.489   1.668 -0.5885  3.0706 -1.5696
 9927TIP3    H251273   0.749   1.551   1.684 -0.9193  4.4344 -3.7006
 9928TIP3   OH251274   4.946   4.779   6.300  0.0579  0.6698 -0.3288
 9928TIP3    H151275   4.963   4.798   6.393  2.2250 -0.2283 -0.4838
 9928TIP3    H251276   4.880   4.710   6.302  0.6902  0.0627  0.6070
 9929TIP3   OH251277   4.478   6.400   1.037 -0.2445  0.1141 -0.1438
 9929TIP3    H151278   4.547   6.456   1.002 -0.7714  0.7969 -0.1070
 9929TIP3    H251279   4.521   6.316   1.052  0.5147  0.4546 -0.3618
 9930TIP3   OH251280   5.504   2.197   5.825  0.5221  0.0990 -0.1087
 9930TIP3    H151281   5.573   2.179   5.888 -0.2287 -1.5405  0.3026
 9930TIP3    H251282   5.430   2.226   5.877  0.3640  0.2123 -0.3919
 9931TIP3   OH251283   4.938   2.048  17.231 -0.7193  0.2649 -0.5344
 9931TIP3    H151284   4.855   2.073  17.272 -0.3059 -0.0906  0.5588
 9931TIP3    H251285   4.979   2.131  17.208 -1.1578  0.4564 -0.6400
 9932TIP3   OH251286   2.776   0.509  15.322 -0.0120  0.7899  0.1995
 9932TIP3    H151287   2.768   0.422  15.362 -0.9600  0.4504 -0.6917
 9932TIP3    H251288   2.799   0.492  15.231  1.0039  1.5244  0.3032
 9933TIP3   OH251289   5.765   1.321   2.693 -0.4823 -0.2989 -0.2583
 9933TIP3    H151290   5.708   1.283   2.627  0.3533 -0.1685 -1.0788
 9933TIP3    H251291   5.708   1.377   2.746 -0.9597  0.5142 -1.5983
 9934TIP3   OH251292   2.855   1.162  14.322  0.3809  0.4452 -0.2264
 9934TIP3    H151293   2.919   1.103  14.284 -1.2511 -2.1597  0.8232
 9934TIP3    H251294   2.785   1.167  14.256 -0.2052 -0.1059  0.3402
 9935TIP3   OH251295   3.841   5.787   1.655 -0.4278 -0.3070 -0.3549
 9935TIP3    H151296   3.780   5.749   1.591 -2.0671 -0.1978  1.0726
 9935TIP3    H251297   3.790   5.793   1.736  0.5038  2.7029  0.1163
 9936TIP3   OH251298   5.116   6.043  11.818 -0.3595 -0.3406  0.3489
 9936TIP3    H151299   5.160   6.001  11.744  0.3350  0.4391  0.2994
 9936TIP3    H251300   5.185   6.095  11.860 -0.7307 -0.7706  1.5562
 9937TIP3   OH251301   0.977   4.719  11.617 -0.0038  0.5201 -0.1419
 9937TIP3    H151302   0.965   4.644  11.559  0.0412  0.6523 -0.3208
 9937TIP3    H251303   1.048   4.692  11.676  0.8505  0.8890 -0.9878
 9938TIP3   OH251304   0.342   5.369  15.031  0.0638  0.1274 -0.1197
 9938TIP3    H151305   0.411   5.348  15.093  1.4112  0.4553 -1.4466
 9938TIP3    H251306   0.281   5.295  15.036 -0.5513  0.7238  2.4502
 9939TIP3   OH251307   3.093   4.850   3.305 -0.2150 -0.2064 -0.3150
 9939TIP3    H151308   3.108   4.944   3.299  0.1837 -0.2042  0.5103
 9939TIP3    H251309   3.028   4.840   3.375 -0.0615 -0.5515 -0.2142
 9940TIP3   OH251310   4.347   6.430   2.772  0.5941  0.5245  0.4348
 9940TIP3    H151311   4.253   6.426   2.755  0.3991 -0.7812  1.6594
 9940TIP3    H251312   4.387   6.391   2.694  0.0669  0.4070  0.2194
 9941TIP3   OH251313   6.387   6.337   2.768 -0.2174 -0.1153  1.0423
 9941TIP3    H151314   6.473   6.333   2.725 -0.1989  1.5171  0.8586
 9941TIP3    H251315   6.335   6.269   2.725  1.4776 -2.4434  2.4134
 9942TIP3   OH251316   6.235   0.978   6.133 -0.3303  0.1282 -0.5560
 9942TIP3    H151317   6.151   0.937   6.152 -0.3143  0.3000 -0.0839
 9942TIP3    H251318   6.212   1.065   6.099 -0.3375  0.7543  0.9795
 9943TIP3   OH251319   2.222   4.418   3.966  0.2008 -0.0258  0.1124
 9943TIP3    H151320   2.251   4.493   3.914  1.1087 -0.1868  0.3624
 9943TIP3    H251321   2.300   4.391   4.015 -0.1657 -0.9858  0.1990
 9944TIP3   OH251322   2.060   1.314  10.890  0.0773 -0.6123  0.5523
 9944TIP3    H151323   2.153   1.337  10.885  0.0305 -0.5627 -0.1668
 9944TIP3    H251324   2.019   1.363  10.818 -0.3030 -1.5806  0.0923
 9945TIP3   OH251325   0.403   1.578   4.212  0.4819  0.1677  0.4294
 9945TIP3    H151326   0.475   1.541   4.160  0.7584  0.2538  0.7393
 9945TIP3    H251327   0.326   1.526   4.188  0.6325  0.1271  0.0320
 9946TIP3   OH251328   3.771   0.743   2.175  0.2881  0.3557  0.1275
 9946TIP3    H151329   3.765   0.818   2.116  0.7840  0.1635 -0.1747
 9946TIP3    H251330   3.739   0.669   2.123 -0.1480  0.3413  0.4064
 9947TIP3   OH251331   6.120   4.946   1.193 -0.5520 -0.1928  0.0071
 9947TIP3    H151332   6.211   4.918   1.192 -0.7254 -0.8769 -1.8358
 9947TIP3    H251333   6.114   5.012   1.123 -1.1006  1.2457  1.3491
 9948TIP3   OH251334   4.613   0.772  14.818  0.0358  0.8007 -0.1860
 9948TIP3    H151335   4.652   0.767  14.905  0.7983  0.2824 -0.5471
 9948TIP3    H251336   4.686   0.761  14.758 -0.5959  0.2742 -0.8872
 9949TIP3   OH251337   6.418   4.265  14.607  0.3943  0.0297  0.2997
 9949TIP3    H151338   6.412   4.229  14.519 -0.7631  0.7329  0.0678
 9949TIP3    H251339   6.497   4.319  14.606 -0.6753  1.6776 -0.9648
 9950TIP3   OH251340   0.373   5.441  11.717 -0.0071  0.1613 -0.2988
 9950TIP3    H151341   0.412   5.365  11.760 -1.1618 -0.3696 -0.1519
 9950TIP3    H251342   0.383   5.513  11.780 -1.6709 -0.6000  0.9255
 9951TIP3   OH251343   6.299   6.677  16.503 -0.0993 -0.2789  0.3835
 9951TIP3    H151344   6.260   6.592  16.480  0.3105 -0.4689  0.3612
 9951TIP3    H251345   6.376   6.653  16.555 -0.1581  0.0938  0.6384
 9952TIP3   OH251346   6.401   1.834   1.364  0.1090 -0.1775 -0.3049
 9952TIP3    H151347   6.458   1.847   1.439  1.4879  0.1278 -1.3579
 9952TIP3    H251348   6.376   1.923   1.337 -1.3882 -0.3212  0.4955
 9953TIP3   OH251349   2.708   0.685  16.084 -0.0769 -0.2535 -0.1525
 9953TIP3    H151350   2.782   0.720  16.134  0.3868 -2.4840  0.8808
 9953TIP3    H251351   2.702   0.593  16.112 -1.3804 -0.9439 -2.4133
 9954TIP3   OH251352   2.549   3.003   6.270  0.2726 -0.1047 -1.2367
 9954TIP3    H151353   2.542   2.908   6.275  2.2216 -0.2260  2.5635
 9954TIP3    H251354   2.462   3.035   6.293 -0.2835 -0.9214 -2.1320
 9955TIP3   OH251355   5.468   5.033   5.664 -0.2804 -0.0708 -0.1714
 9955TIP3    H151356   5.549   4.986   5.645 -0.2624  0.4679 -1.5861
 9955TIP3    H251357   5.495   5.124   5.676 -0.5118 -0.1222  0.8823
 9956TIP3   OH251358   0.840   4.434   1.880 -0.5191 -0.8099 -0.5208
 9956TIP3    H151359   0.916   4.472   1.838 -0.0145 -1.6275 -0.3773
 9956TIP3    H251360   0.826   4.488   1.958  0.2898 -1.0196 -0.2211
 9957TIP3   OH251361   3.382   0.527  13.619 -0.1204 -0.0674  0.3041
 9957TIP3    H151362   3.321   0.514  13.693  0.2399 -1.1217  0.4273
 9957TIP3    H251363   3.438   0.600  13.647 -0.4065 -0.0268  0.7900
 9958TIP3   OH251364   1.245   1.672   6.465 -0.7263  0.0977 -0.4088
 9958TIP3    H151365   1.231   1.673   6.370  0.5950  3.2034 -0.6995
 9958TIP3    H251366   1.187   1.741   6.498 -1.2390 -1.0075  1.0949
 9959TIP3   OH251367   2.281   2.521  16.253 -0.6813  0.1511  0.1831
 9959TIP3    H151368   2.254   2.487  16.168  2.3872  0.2528 -0.9643
 9959TIP3    H251369   2.333   2.450  16.291 -0.2958  0.8686  1.0313
 9960TIP3   OH251370   4.769   5.002   3.170  0.1234  0.0046 -0.7057
 9960TIP3    H151371   4.801   5.092   3.181 -0.8577  0.3957 -0.9579
 9960TIP3    H251372   4.720   4.984   3.250 -0.3399 -0.0216 -0.9928
 9961TIP3   OH251373   5.497   4.425   5.876 -0.4833  0.4993  0.1820
 9961TIP3    H151374   5.518   4.500   5.931 -0.4126  0.3622  0.3417
 9961TIP3    H251375   5.418   4.388   5.914  0.3063 -0.3955  1.0024
 9962TIP3   OH251376   3.471   1.079  17.249  0.1101 -0.3811  0.1305
 9962TIP3    H151377   3.431   1.134  17.181  0.6931 -0.4120 -0.2442
 9962TIP3    H251378   3.454   1.125  17.331 -1.3817 -0.7808  0.0707
 9963TIP3   OH251379   0.138   3.018   2.156  0.0848  0.2948 -0.3030
 9963TIP3    H151380   0.166   2.956   2.089 -0.4557  0.8057 -1.0180
 9963TIP3    H251381   0.046   3.035   2.136 -0.7589 -1.2855  1.9519
 9964TIP3   OH251382   4.612   1.772   0.834  0.3083  0.0119 -1.1509
 9964TIP3    H151383   4.573   1.803   0.916  1.7320 -1.1229  0.0210
 9964TIP3    H251384   4.538   1.738   0.784 -0.4536 -0.4641  0.2362
 9965TIP3   OH251385   5.618   0.039  12.136  0.3343 -0.0701 -0.1277
 9965TIP3    H151386   5.714   0.039  12.141  0.3348 -0.2468 -0.1182
 9965TIP3    H251387   5.598   0.073  12.049  0.4299 -0.9325 -0.4966
 9966TIP3   OH251388   6.192   4.789   5.550 -0.2674  0.5281  0.1920
 9966TIP3    H151389   6.228   4.713   5.597  0.8717 -0.3174 -1.9181
 9966TIP3    H251390   6.261   4.854   5.554  0.3097  0.0288 -1.2479
 9967TIP3   OH251391   6.392   0.417   3.577  0.2104  0.1501  0.1127
 9967TIP3    H151392   6.476   0.442   3.537  0.8369 -0.7280  0.8157
 9967TIP3    H251393   6.351   0.360   3.512  0.3941  0.1809 -0.0334
 9968TIP3   OH251394   5.128   3.157  11.912 -0.4086  0.4421 -0.8073
 9968TIP3    H151395   5.102   3.237  11.958  1.3131 -0.5602  2.1436
 9968TIP3    H251396   5.082   3.087  11.957  0.6462 -0.5208 -1.1939
 9969TIP3   OH251397   4.938   0.162   1.691  0.4079 -0.4128  0.3282
 9969TIP3    H151398   4.950   0.175   1.785  0.0913  3.3364  0.0025
 9969TIP3    H251399   4.881   0.234   1.664  0.4760 -1.3772 -2.7530
 9970TIP3   OH251400   5.742   2.853  12.919 -0.9143  0.0551 -0.0783
 9970TIP3    H151401   5.756   2.810  13.004  0.0115  2.3716  1.0368
 9970TIP3    H251402   5.795   2.933  12.924 -0.4217  0.0181 -3.0700
 9971TIP3   OH251403   4.996   0.043  14.353 -0.4979  0.6557 -0.5724
 9971TIP3    H151404   4.931  -0.021  14.381  2.2418 -1.5195  1.3828
 9971TIP3    H251405   5.071   0.029  14.411  1.0684  4.3064 -1.4023
 9972TIP3   OH251406   3.303   6.269   2.808 -0.3818 -0.2562  0.5317
 9972TIP3    H151407   3.351   6.327   2.748 -2.8254  1.6803  0.2673
 9972TIP3    H251408   3.367   6.246   2.875  1.0100  1.9771  0.0931
 9973TIP3   OH251409   0.003   3.588  15.609  0.0331 -0.0933 -0.3912
 9973TIP3    H151410  -0.067   3.546  15.659 -1.2762  1.6597 -0.6310
 9973TIP3    H251411   0.081   3.537  15.628 -1.0041 -1.1770  1.1622
 9974TIP3   OH251412   2.176   1.577  12.458 -0.1987  0.2433  0.2056
 9974TIP3    H151413   2.152   1.635  12.530  0.0400  1.7003 -0.8487
 9974TIP3    H251414   2.257   1.614  12.423 -0.5504 -0.1612 -1.0929
 9975TIP3   OH251415   4.919   2.109   0.608  0.1816 -0.0312 -0.3067
 9975TIP3    H151416   4.883   2.033   0.653 -0.4988 -0.0925 -0.9279
 9975TIP3    H251417   5.003   2.125   0.650  0.1699 -0.9130  0.0658
 9976TIP3   OH251418   6.590   4.633  17.004  0.1226 -0.1290 -0.2637
 9976TIP3    H151419   6.519   4.644  16.941  0.4403 -0.7683 -0.7525
 9976TIP3    H251420   6.550   4.652  17.089 -0.1026  1.5849 -0.7166
 9977TIP3   OH251421   5.553   4.876   0.346 -0.2337  1.0127 -0.2342
 9977TIP3    H151422   5.646   4.898   0.352  0.1169  0.2279 -2.1524
 9977TIP3    H251423   5.528   4.856   0.436  1.3925  1.4327  0.3585
 9978TIP3   OH251424   0.379   1.080  16.181 -0.4171 -0.0130  0.0283
 9978TIP3    H151425   0.362   1.002  16.234  1.1568  0.7221  1.7055
 9978TIP3    H251426   0.299   1.132  16.190  0.1613  0.5315  2.5468
 9979TIP3   OH251427   4.380   6.770   1.318  0.4520 -0.2961 -0.1369
 9979TIP3    H151428   4.384   6.771   1.413  0.1819  0.5687 -0.1310
 9979TIP3    H251429   4.420   6.853   1.291  1.5403 -1.0097 -0.8209
 9980TIP3   OH251430   4.087   2.041   4.487 -0.0335 -0.0988  0.2548
 9980TIP3    H151431   4.107   2.053   4.395 -0.5114  0.1159  0.1777
 9980TIP3    H251432   4.117   2.122   4.529 -1.5351  0.6293  0.0059
 9981TIP3   OH251433   5.920   4.525   5.729 -0.0786  0.0126 -0.5071
 9981TIP3    H151434   5.911   4.582   5.805 -0.8542  0.6004 -1.0357
 9981TIP3    H251435   5.847   4.463   5.737 -1.0180  0.9675 -1.5272
 9982TIP3   OH251436   4.575   2.675   3.637  0.1931 -0.3623  0.0242
 9982TIP3    H151437   4.640   2.640   3.698 -0.0646 -0.9883 -0.0518
 9982TIP3    H251438   4.492   2.666   3.683  0.1131  0.0846 -0.0300
 9983TIP3   OH251439   4.571   5.820  14.812 -0.4570 -0.2218  0.5305
 9983TIP3    H151440   4.540   5.793  14.725 -0.6892 -0.4756  0.6898
 9983TIP3    H251441   4.579   5.738  14.861 -1.2012 -0.0034  1.0306
 9984TIP3   OH251442   4.061   5.089  16.653 -0.0482  0.2405  0.0100
 9984TIP3    H151443   4.006   5.035  16.595  0.6980 -0.3532 -0.1680
 9984TIP3    H251444   4.068   5.173  16.607 -1.2353  0.5203  0.2952
 9985TIP3   OH251445   4.628   6.687  11.110  0.1585 -1.2866 -0.4756
 9985TIP3    H151446   4.569   6.651  11.044  0.1436 -2.2175  0.0201
 9985TIP3    H251447   4.689   6.615  11.128  0.2553 -0.9931  0.4090
 9986TIP3   OH251448   2.981   3.657  14.524 -0.3948 -0.7428 -0.3616
 9986TIP3    H151449   2.941   3.668  14.437  0.1351 -3.2252 -1.0014
 9986TIP3    H251450   2.920   3.600  14.571  0.1520 -0.8124  0.2769
 9987TIP3   OH251451   6.717   2.445  15.660 -0.5734 -0.9880  0.6098
 9987TIP3    H151452   6.636   2.474  15.703 -1.1724 -1.5237 -0.1176
 9987TIP3    H251453   6.687   2.382  15.595  0.5514 -2.1493  1.1747
 9988TIP3   OH251454   1.762   6.262   5.453  0.0835 -0.5167  0.3900
 9988TIP3    H151455   1.673   6.230   5.465 -0.1885 -0.2745 -0.7983
 9988TIP3    H251456   1.810   6.232   5.530 -0.6934 -1.8453  0.3813
 9989TIP3   OH251457   2.619   1.874  14.892  0.2083 -0.2186 -0.3916
 9989TIP3    H151458   2.590   1.917  14.972  2.4893  0.3632  0.1992
 9989TIP3    H251459   2.626   1.781  14.916  0.5047 -0.1035 -0.0271
 9990TIP3   OH251460   0.831   6.297  13.555  0.3936  0.2193  0.0387
 9990TIP3    H151461   0.778   6.328  13.481 -0.0458  1.0989  0.7058
 9990TIP3    H251462   0.847   6.376  13.607 -0.8169 -0.6735  1.8364
 9991TIP3   OH251463   3.279   1.188  14.220 -0.5253  0.2237  0.2401
 9991TIP3    H151464   3.334   1.257  14.184  2.2914 -2.3973 -1.0006
 9991TIP3    H251465   3.215   1.171  14.151 -0.5111  0.8419  0.0707
 9992TIP3   OH251466   2.295   4.950  15.747 -0.6027 -0.0220 -0.2110
 9992TIP3    H151467   2.308   4.908  15.662 -0.2354 -1.7510  0.6652
 9992TIP3    H251468   2.201   4.941  15.765 -0.2376 -2.3996  0.8775
 9993TIP3   OH251469   4.315   0.378   0.639  0.0028 -0.3824  0.5629
 9993TIP3    H151470   4.376   0.315   0.601  0.0348  0.2488 -0.4621
 9993TIP3    H251471   4.232   0.362   0.594  0.1336  0.6174 -0.0620
 9994TIP3   OH251472   2.598   0.492  16.746 -0.4443 -0.0328  0.0729
 9994TIP3    H151473   2.646   0.416  16.780  3.2712  2.4061  0.9355
 9994TIP3    H251474   2.658   0.566  16.759 -3.6590  3.0624 -0.9960
 9995TIP3   OH251475   4.378   4.331  12.219  0.6185  0.3952  0.1529
 9995TIP3    H151476   4.373   4.288  12.134  0.6450  1.3739 -0.3614
 9995TIP3    H251477   4.465   4.310  12.252  0.9730  0.7991 -0.5049
 9996TIP3   OH251478   1.741   1.494   3.622 -0.5949  0.1086  0.3965
 9996TIP3    H151479   1.712   1.553   3.692 -0.0986 -0.0106  0.7108
 9996TIP3    H251480   1.673   1.501   3.555 -0.8849  0.5175  0.7252
 9997TIP3   OH251481   0.805   0.468   1.311  0.7318  0.1994 -0.2329
 9997TIP3    H151482   0.809   0.372   1.317  3.1463  0.2086 -0.7871
 9997TIP3    H251483   0.770   0.485   1.223  1.3935 -0.1984 -0.5804
 9998TIP3   OH251484   2.552   1.090   2.781 -0.5497  0.1266  0.5958
 9998TIP3    H151485   2.619   1.038   2.824  1.6827  1.5509 -0.9199
 9998TIP3    H251486   2.472   1.072   2.830  1.0970 -0.9700  3.0847
 9999TIP3   OH251487   4.031   6.216   2.117  0.2541  0.4730 -0.1170
 9999TIP3    H151488   4.118   6.224   2.078 -0.3297 -1.0479 -1.8905
 9999TIP3    H251489   3.985   6.296   2.091 -0.8177 -1.3268 -4.7465
10000TIP3   OH251490   1.846   0.120  16.329 -0.3619 -0.8001  0.0264
10000TIP3    H151491   1.791   0.117  16.251 -1.6211 -0.1093  0.8459
10000TIP3    H251492   1.892   0.204  16.323 -0.1898 -0.9071 -0.1473
10001TIP3   OH251493   2.411   2.296  12.918 -0.0092 -0.0128  0.1363
10001TIP3    H151494   2.382   2.356  12.849  0.6998  0.5120  0.2855
10001TIP3    H251495   2.501   2.273  12.895 -0.2674 -1.0125  0.0947
10002TIP3   OH251496   4.995   1.780   2.182  0.4426  0.0087 -0.4484
10002TIP3    H151497   4.927   1.847   2.172 -0.0083 -0.3093  0.4244
10002TIP3    H251498   4.949   1.702   2.213  1.0880 -0.4546 -0.6216
10003TIP3   OH251499   3.335   0.155  13.804  0.1466  0.6556 -0.8831
10003TIP3    H151500   3.297   0.214  13.738 -2.6634 -0.5965 -0.5513
10003TIP3    H251501   3.345   0.210  13.882 -2.7740  0.7527 -0.4613
10004TIP3   OH251502   3.323   1.554  16.616 -0.0749  0.7102 -0.2037
10004TIP3    H151503   3.254   1.515  16.563  0.2567  0.7354 -0.6693
10004TIP3    H251504   3.283   1.630  16.657 -0.9457 -0.5130  1.3151
10005TIP3   OH251505   0.145   5.901  15.128  0.3921  0.4668  0.0510
10005TIP3    H151506   0.127   5.986  15.167  1.6347  0.8619 -0.1798
10005TIP3    H251507   0.086   5.895  15.053 -0.6570  0.5317  0.8537
10006TIP3   OH251508   6.202   6.640   5.562 -1.0158  0.0759 -0.0893
10006TIP3    H151509   6.157   6.626   5.479  1.8983  1.0466 -1.9975
10006TIP3    H251510   6.295   6.638   5.540 -0.0341 -0.6391  3.3577
10007TIP3   OH251511   5.326   1.906   3.619  0.1975 -0.3153 -0.2467
10007TIP3    H151512   5.409   1.903   3.665 -0.0813 -0.5610  0.2505
10007TIP3    H251513   5.347   1.882   3.529  0.7174 -0.0125 -0.2039
10008TIP3   OH251514   4.311   0.878  15.331  0.0555  0.2308 -0.3503
10008TIP3    H151515   4.294   0.970  15.352 -2.0224 -0.0763 -0.5290
10008TIP3    H251516   4.308   0.834  15.416  0.4072  0.2314 -0.3368
10009TIP3   OH251517   5.656   5.052  11.910 -0.5619  0.0757 -0.3997
10009TIP3    H151518   5.614   5.054  11.996 -1.3888 -0.0888 -0.7857
10009TIP3    H251519   5.635   5.137  11.870 -0.3582  0.0718 -0.5187
10010TIP3   OH251520   3.338   0.696   3.456  0.3872  0.0137 -0.4493
10010TIP3    H151521   3.389   0.768   3.493  0.0523  0.2723 -0.4908
10010TIP3    H251522   3.375   0.618   3.497 -0.3946  0.3338  0.9606
10011TIP3   OH251523   0.403   0.674   3.107  0.0123  0.2729  0.3614
10011TIP3    H151524   0.311   0.695   3.092  0.3654  2.5072  0.9613
10011TIP3    H251525   0.405   0.579   3.112 -2.5621  0.2079  2.2264
10012TIP3   OH251526   4.887   5.373   0.848  0.2964 -0.1101 -0.0326
10012TIP3    H151527   4.870   5.445   0.908  0.7984 -0.6410  0.7538
10012TIP3    H251528   4.800   5.343   0.821  0.0728  0.1436  0.4062
10013TIP3   OH251529   0.968   2.651  15.268 -0.6567  0.0652  0.0635
10013TIP3    H151530   1.025   2.626  15.196  0.5704 -0.2824  1.1346
10013TIP3    H251531   1.008   2.613  15.346 -2.1272  0.1592  0.9107
10014TIP3   OH251532   0.392   3.877  14.778  0.5205 -0.0066  0.1838
10014TIP3    H151533   0.388   3.966  14.814  0.1263 -0.4800  1.3417
10014TIP3    H251534   0.438   3.888  14.694  0.1624  1.3354  0.1277
10015TIP3   OH251535   1.211   3.191   4.488 -0.4660 -0.4657 -0.3285
10015TIP3    H151536   1.274   3.144   4.543 -1.0817 -0.8165  0.0920
10015TIP3    H251537   1.265   3.248   4.434  0.1121  0.6096  1.3032
10016TIP3   OH251538   4.189   5.349   2.168 -1.0460 -0.5327  0.0851
10016TIP3    H151539   4.181   5.425   2.226  2.7730  1.3388 -1.4693
10016TIP3    H251540   4.265   5.301   2.202 -1.5503 -2.0067 -0.7477
10017TIP3   OH251541   5.468   3.009  16.416 -0.1721  0.0889 -0.3509
10017TIP3    H151542   5.498   3.098  16.428  3.6875 -1.3760  2.7371
10017TIP3    H251543   5.398   2.998  16.481  1.1408  0.2030  1.1256
10018TIP3   OH251544   3.992   0.328   0.911 -0.0014 -0.0861 -0.2320
10018TIP3    H151545   3.946   0.277   0.978  0.8148 -1.0167 -0.3678
10018TIP3    H251546   4.061   0.270   0.879  0.2350  0.7007 -1.1966
10019TIP3   OH251547   1.136   0.718   5.503 -0.2156  0.2777 -0.4401
10019TIP3    H151548   1.112   0.807   5.529 -3.5411 -0.6996  0.3360
10019TIP3    H251549   1.092   0.704   5.419  3.3813  0.4881 -2.5624
10020TIP3   OH251550   2.584   2.685   4.656  0.4226  0.2302  0.0947
10020TIP3    H151551   2.506   2.674   4.601 -2.1587  1.0702  3.2489
10020TIP3    H251552   2.630   2.759   4.617 -2.3526  2.0850 -0.0283
10021TIP3   OH251553   4.980   5.901  15.705  0.1757 -0.2076 -0.2410
10021TIP3    H151554   4.932   5.828  15.664  0.5809 -0.2279 -0.6868
10021TIP3    H251555   5.050   5.921  15.643  0.2666  0.3464  0.0368
10022TIP3   OH251556   4.560   5.564  17.121  0.1188  0.5435 -0.8187
10022TIP3    H151557   4.543   5.612  17.040 -0.8149 -1.7806 -2.1000
10022TIP3    H251558   4.638   5.511  17.102 -0.6526 -0.7240 -0.5852
10023TIP3   OH251559   1.660   6.009  15.650 -0.6643 -0.5767 -0.2766
10023TIP3    H151560   1.718   6.075  15.610  0.2801 -1.1653  0.0937
10023TIP3    H251561   1.572   6.041  15.631 -0.2297  0.0434 -1.3612
10024TIP3   OH251562   3.053   1.674  14.528  0.6088  0.0891  0.0059
10024TIP3    H151563   2.960   1.694  14.530  0.5425  0.2713 -2.1019
10024TIP3    H251564   3.061   1.602  14.464  1.8435 -0.3671  0.6255
10025TIP3   OH251565   5.755   2.745  16.699  0.3844 -0.8828 -0.1203
10025TIP3    H151566   5.842   2.786  16.696  0.2556 -0.6405 -1.4401
10025TIP3    H251567   5.771   2.654  16.674  0.1227 -0.5055 -1.8279
10026TIP3   OH251568   6.747   3.279   3.780  0.0240  0.3015  0.0947
10026TIP3    H151569   6.731   3.373   3.774  0.7034  0.4127 -0.0829
10026TIP3    H251570   6.836   3.272   3.815  0.0378 -0.2690 -0.0433
10027TIP3   OH251571   0.324   4.394   2.383 -0.3318 -0.0437 -0.0699
10027TIP3    H151572   0.395   4.336   2.357 -0.7485 -0.6004  0.0127
10027TIP3    H251573   0.283   4.350   2.458  0.0543  0.9129  0.7203
10028TIP3   OH251574   3.151   3.528  11.439 -0.3620 -0.6265 -0.1491
10028TIP3    H151575   3.061   3.560  11.446 -0.2797 -0.6679  1.7721
10028TIP3    H251576   3.187   3.573  11.363 -2.2541 -1.2821 -1.5014
10029TIP3   OH251577   0.162   2.197  12.887 -0.2735  0.1462  0.7608
10029TIP3    H151578   0.220   2.206  12.812 -0.4175  0.0020  0.6300
10029TIP3    H251579   0.161   2.284  12.928 -1.5324  0.7240 -0.3972
10030TIP3   OH251580   4.081   4.186  14.047  0.0453  0.2348  0.4849
10030TIP3    H151581   4.010   4.167  13.986 -0.0944 -0.6972  0.9120
10030TIP3    H251582   4.051   4.149  14.130  0.0988  1.7411  1.2115
10031TIP3   OH251583   3.597   2.297  11.401  0.1360  0.0739 -0.0515
10031TIP3    H151584   3.557   2.362  11.460  1.0395  0.1279  0.5258
10031TIP3    H251585   3.620   2.347  11.323 -1.5542 -0.1073 -0.6902
10032TIP3   OH251586   4.448   6.650   1.692 -0.0035 -0.0487 -0.3800
10032TIP3    H151587   4.506   6.673   1.619 -0.4602  1.0249 -0.4172
10032TIP3    H251588   4.373   6.708   1.682 -0.1456 -0.0003  0.8540
10033TIP3   OH251589   5.626   5.851  15.810 -0.3926  0.1749 -0.0188
10033TIP3    H151590   5.545   5.895  15.834 -0.1513  0.7943 -0.2938
10033TIP3    H251591   5.600   5.762  15.787 -0.6524 -0.4077  2.3041
10034TIP3   OH251592   1.340   0.508   5.018  0.2016  0.0656  0.5388
10034TIP3    H151593   1.277   0.565   4.974  0.7657  0.6149  0.4361
10034TIP3    H251594   1.286   0.450   5.072 -0.3234  1.5402  1.6634
10035TIP3   OH251595   5.937   0.611   6.003 -0.1274  0.0407  0.4931
10035TIP3    H151596   5.962   0.528   5.963 -0.3268  0.8981 -1.5374
10035TIP3    H251597   6.012   0.636   6.056  0.9106 -0.3228 -0.7511
10036TIP3   OH251598   1.186   5.953  14.988  0.2980 -0.2597 -0.4151
10036TIP3    H151599   1.184   6.020  14.920 -1.5054 -1.6697 -1.8496
10036TIP3    H251600   1.250   5.889  14.956  0.2549 -0.3828 -0.2552
10037TIP3   OH251601   4.682   4.045  15.073  0.1717  0.2961  0.2823
10037TIP3    H151602   4.677   3.975  15.007  0.0729  0.0552  0.5413
10037TIP3    H251603   4.770   4.081  15.062  0.1676  0.2400  0.0366
10038TIP3   OH251604   1.506   4.962   5.827  0.1427 -0.2544  0.4524
10038TIP3    H151605   1.561   4.887   5.804  0.3523 -0.0924  0.4252
10038TIP3    H251606   1.430   4.953   5.770 -0.4439 -1.1588  1.3296
10039TIP3   OH251607   2.348   2.606   4.527 -0.0793  0.2401 -0.0522
10039TIP3    H151608   2.254   2.593   4.538  0.0194 -0.6899 -0.2367
10039TIP3    H251609   2.386   2.520   4.541  0.7519  0.6078  0.0132
10040TIP3   OH251610   4.569   4.212   3.127 -0.1394 -0.5597  0.6788
10040TIP3    H151611   4.631   4.282   3.148 -1.0030 -0.1256  1.8707
10040TIP3    H251612   4.613   4.132   3.157  0.3019 -0.3906  0.4991
10041TIP3   OH251613   1.454   2.753  17.038  0.3259  0.9138 -1.2349
10041TIP3    H151614   1.372   2.792  17.068  0.5261 -1.6524  3.5350
10041TIP3    H251615   1.428   2.674  16.991 -0.0471  0.1179  0.2498
10042TIP3   OH251616   0.724   0.631   4.392  0.0546 -0.0508 -0.1047
10042TIP3    H151617   0.779   0.687   4.447  1.6408 -2.4929  0.9672
10042TIP3    H251618   0.776   0.614   4.314 -1.4869  1.9605 -1.6993
10043TIP3   OH251619   1.558   3.731  14.928  0.2630  0.4481  0.4634
10043TIP3    H151620   1.543   3.671  14.855  0.2050  1.6360 -0.5330
10043TIP3    H251621   1.493   3.799  14.916  1.3107  1.5154  0.6758
10044TIP3   OH251622   0.659   2.220   4.587  0.2764  0.4818 -0.1710
10044TIP3    H151623   0.653   2.284   4.516 -1.0547  0.6836  0.0916
10044TIP3    H251624   0.591   2.247   4.649 -0.5372 -1.3517 -0.2000
10045TIP3   OH251625   1.732   3.387   0.190  0.6534 -0.4737  0.0010
10045TIP3    H151626   1.669   3.317   0.207 -0.5681  0.3688 -0.8769
10045TIP3    H251627   1.818   3.348   0.209  0.1215 -2.5799 -1.5834
10046TIP3   OH251628   1.773   5.249  16.716  0.2366 -0.1413 -0.2458
10046TIP3    H151629   1.832   5.186  16.674  2.4711  1.4393  0.3266
10046TIP3    H251630   1.798   5.333  16.678 -0.0623  0.8797  1.7047
10047TIP3   OH251631   5.621   4.219  16.804 -0.4197  0.3180 -1.0372
10047TIP3    H151632   5.639   4.139  16.754 -0.1754 -0.9242  0.8958
10047TIP3    H251633   5.707   4.247  16.835 -0.8023 -0.7864  1.2410
10048TIP3   OH251634   3.297   3.588  14.466  0.2651 -0.1279 -0.2043
10048TIP3    H151635   3.323   3.519  14.406 -1.9083 -0.7252 -0.5364
10048TIP3    H251636   3.217   3.555  14.507  0.5551  1.1487  1.4938
10049TIP3   OH251637   2.663   2.337  12.411 -0.2164  0.1244 -0.0153
10049TIP3    H151638   2.696   2.426  12.409  2.1186 -0.5981 -3.4566
10049TIP3    H251639   2.599   2.334  12.340 -0.2894 -0.9098  0.0777
10050TIP3   OH251640   0.048   4.508   2.634 -0.0905 -0.4102  0.6532
10050TIP3    H151641   0.128   4.477   2.676 -1.5206 -1.3830  2.8673
10050TIP3    H251642   0.016   4.432   2.584 -0.4877 -0.5614  1.1363
10051TIP3   OH251643   4.930   3.513  11.754  0.2445  0.2088 -0.1408
10051TIP3    H151644   4.872   3.553  11.689  1.8997  1.9443 -0.6443
10051TIP3    H251645   4.983   3.450  11.704  0.2048  0.1273 -0.0811
10052TIP3   OH251646   2.095   1.253   6.529  0.0125  0.4936 -0.3551
10052TIP3    H151647   2.170   1.312   6.522 -0.0897  0.9389  1.6246
10052TIP3    H251648   2.028   1.293   6.474  0.7479  0.8636 -1.0076
10053TIP3   OH251649   0.209   3.714   0.389 -0.6265  0.2430  0.4685
10053TIP3    H151650   0.146   3.643   0.387 -0.7865  0.3279  1.7509
10053TIP3    H251651   0.281   3.681   0.443  0.4548  0.1450 -0.9791
10054TIP3   OH251652   2.961   6.035   2.513 -0.5212 -0.7648  0.6008
10054TIP3    H151653   2.930   5.993   2.593 -0.6408  0.7066  1.3701
10054TIP3    H251654   2.954   6.129   2.531  0.6418 -0.3902 -0.6708
10055TIP3   OH251655   1.227   0.872  14.756  0.0168  0.1982 -0.4292
10055TIP3    H151656   1.244   0.782  14.728 -0.8635 -0.0275 -0.2537
10055TIP3    H251657   1.208   0.919  14.674  3.5642  1.0054 -0.9672
10056TIP3   OH251658   5.230   6.323   4.502  0.0664 -0.0729 -0.0218
10056TIP3    H151659   5.287   6.390   4.464  1.3299 -1.2028 -0.1733
10056TIP3    H251660   5.216   6.260   4.431  1.0291 -1.3041  0.8423
10057TIP3   OH251661   5.218   3.845   0.329  0.2611 -0.0934 -0.3308
10057TIP3    H151662   5.255   3.828   0.242 -1.7797  0.9009 -1.4754
10057TIP3    H251663   5.293   3.848   0.388  1.6315 -1.6908 -1.8983
10058TIP3   OH251664   5.692   3.282   4.500  0.4729  0.0370  0.0627
10058TIP3    H151665   5.724   3.212   4.557 -0.5538 -0.9039 -0.4938
10058TIP3    H251666   5.770   3.336   4.483  0.6848  0.8701  3.0044
10059TIP3   OH251667   2.645   4.407  12.076  0.5823 -0.0955  0.3648
10059TIP3    H151668   2.555   4.374  12.077  0.9872 -1.4082 -1.5720
10059TIP3    H251669   2.681   4.380  12.161  0.4543 -3.6589 -0.5550
10060TIP3   OH251670   3.692   4.511  15.833  0.5110  0.0355 -0.6877
10060TIP3    H151671   3.698   4.424  15.871 -1.0967  0.3873  0.4719
10060TIP3    H251672   3.727   4.501  15.744  0.6189 -1.7056 -0.4757
10061TIP3   OH251673   1.636   6.502  15.653 -0.2604  0.2552  0.0812
10061TIP3    H151674   1.707   6.473  15.710  0.0895  1.8827  0.5442
10061TIP3    H251675   1.680   6.529  15.572 -0.4938  0.1055 -0.0980
10062TIP3   OH251676   0.934   4.263  12.534 -0.5052 -0.3108 -0.4102
10062TIP3    H151677   0.953   4.355  12.552 -0.4624 -0.4569  0.2883
10062TIP3    H251678   0.867   4.265  12.466 -0.4678  0.2361 -0.4309
10063TIP3   OH251679   6.622   2.240  15.527 -0.0684 -0.4177  0.0858
10063TIP3    H151680   6.585   2.251  15.439 -1.8688 -2.6662  0.4614
10063TIP3    H251681   6.658   2.152  15.527 -0.5756 -0.6584  1.7409
10064TIP3   OH251682   1.176   4.451  11.170  0.2060  0.1570 -0.0232
10064TIP3    H151683   1.150   4.541  11.189 -0.8908  0.0375 -0.9211
10064TIP3    H251684   1.140   4.433  11.084  0.5450 -1.0971  0.0842
10065TIP3   OH251685   0.807   5.770   0.349  0.2132  0.6703  0.5100
10065TIP3    H151686   0.857   5.701   0.392 -0.8998 -0.9259 -0.6310
10065TIP3    H251687   0.822   5.755   0.255 -1.4882  0.8212  0.1841
10066TIP3   OH251688   1.487   5.192  16.996  0.2378  0.0880  0.6875
10066TIP3    H151689   1.580   5.213  16.995  0.2009  0.5813  2.7287
10066TIP3    H251690   1.484   5.097  16.992  0.7975  0.0786  0.2931
10067TIP3   OH251691   3.347   1.812  13.344 -0.3060  0.0701  0.2352
10067TIP3    H151692   3.318   1.882  13.403 -0.2304 -1.6987  2.5092
10067TIP3    H251693   3.436   1.792  13.371 -0.9902 -2.2362  1.0747
10068TIP3   OH251694   2.266   2.831  17.072  0.7898  0.2193 -0.2689
10068TIP3    H151695   2.274   2.808  16.979 -0.6578 -1.5160 -0.0180
10068TIP3    H251696   2.209   2.908  17.072 -1.5324 -1.3715 -0.7669
10069TIP3   OH251697   1.165   6.526   2.310 -0.3695 -0.5978  0.1211
10069TIP3    H151698   1.232   6.594   2.302 -0.0424 -0.9975 -0.7477
10069TIP3    H251699   1.213   6.448   2.335 -0.7320 -0.5351  1.0196
10070TIP3   OH251700   4.065   5.854  15.161 -0.1871 -0.2135 -0.2484
10070TIP3    H151701   4.044   5.937  15.203 -2.9392 -0.5729 -0.7274
10070TIP3    H251702   4.065   5.791  15.233 -0.3109 -0.1328 -0.1773
10071TIP3   OH251703   2.666   5.756   0.661  0.0181 -0.2437  0.5992
10071TIP3    H151704   2.607   5.711   0.722  1.7240 -3.0124  0.3827
10071TIP3    H251705   2.746   5.770   0.712 -0.3279  2.4844  0.5612
10072TIP3   OH251706   2.627   2.114  16.659  0.1988  0.1300 -0.4381
10072TIP3    H151707   2.655   2.144  16.746 -0.5326 -0.4800  0.0293
10072TIP3    H251708   2.679   2.165  16.598 -0.4022  1.7494  0.3322
10073TIP3   OH251709   3.607   5.889  15.441  0.1600 -0.0568  0.3416
10073TIP3    H151710   3.529   5.834  15.441  0.5253 -0.5935 -0.5531
10073TIP3    H251711   3.679   5.828  15.423  0.6588  0.5866  0.1329
10074TIP3   OH251712   1.073   6.265   3.860 -0.2013  0.2672  0.1611
10074TIP3    H151713   1.099   6.336   3.918  1.4331  0.1818 -0.4051
10074TIP3    H251714   1.123   6.189   3.891 -0.3702 -0.1190 -0.4915
10075TIP3   OH251715   5.200   3.369   5.631 -0.1101  0.3673 -0.3850
10075TIP3    H151716   5.186   3.355   5.724  2.3405 -0.0475 -0.0222
10075TIP3    H251717   5.115   3.350   5.591 -0.8423 -0.8548  1.6015
10076TIP3   OH251718   0.439   4.334  13.904  0.3191  0.6504 -0.0698
10076TIP3    H151719   0.408   4.258  13.954  0.1053 -0.9017 -2.4149
10076TIP3    H251720   0.422   4.408  13.962  0.1717 -1.0081  2.1730
10077TIP3   OH251721   2.295   4.943  16.235  0.1672  0.1376 -0.2930
10077TIP3    H151722   2.229   4.938  16.166  0.4379  1.9444 -0.7362
10077TIP3    H251723   2.378   4.938  16.188  0.4003 -1.5676  0.2124
10078TIP3   OH251724   6.264   2.315   5.304  0.2686 -0.0324 -0.2717
10078TIP3    H151725   6.338   2.280   5.354 -1.7274 -0.6808  2.4360
10078TIP3    H251726   6.217   2.370   5.367 -1.5489  0.3740 -1.9175
10079TIP3   OH251727   3.558   6.240  12.327 -0.3065 -0.4758 -0.3973
10079TIP3    H151728   3.491   6.172  12.328 -2.7883  1.7851  1.0958
10079TIP3    H251729   3.604   6.228  12.411 -0.8716 -0.2063 -0.0444
10080TIP3   OH251730   1.873   5.911  16.830 -0.0099 -0.1239  0.1965
10080TIP3    H151731   1.930   5.943  16.761 -0.1582 -2.9106 -1.3633
10080TIP3    H251732   1.922   5.928  16.911  1.8130  0.0196 -0.8770
10081TIP3   OH251733   3.093   3.723  17.015  0.0229  0.0714 -0.5615
10081TIP3    H151734   3.059   3.812  17.019 -1.3007 -0.4677  1.2390
10081TIP3    H251735   3.100   3.704  16.921 -1.7938  1.2890 -0.9887
10082TIP3   OH251736   5.751   5.359  15.916  0.0433  0.7579  0.0602
10082TIP3    H151737   5.809   5.310  15.974 -0.1496  0.3278 -0.1040
10082TIP3    H251738   5.663   5.326  15.936  0.0864 -0.2245 -1.2551
10083TIP3   OH251739   2.311   4.684  11.950 -0.8209  0.1273 -0.6150
10083TIP3    H151740   2.242   4.703  11.886 -1.5085 -0.6285 -0.1112
10083TIP3    H251741   2.278   4.609  12.000 -1.0010  1.5926  1.6299
10084TIP3   OH251742   5.158   3.959  14.031 -0.6574 -0.1190 -0.1342
10084TIP3    H151743   5.189   3.941  14.119 -0.9145 -4.5070 -0.7388
10084TIP3    H251744   5.063   3.949  14.036 -0.9581  2.0234 -0.5190
10085TIP3   OH251745   6.626   2.353   5.485  0.2161 -0.0732 -0.2774
10085TIP3    H151746   6.689   2.282   5.501  0.0324 -0.6037 -1.7434
10085TIP3    H251747   6.639   2.376   5.393 -1.4871  0.0390 -0.5234
10086TIP3   OH251748   3.742   1.785   0.446 -0.0298 -0.2865 -0.2669
10086TIP3    H151749   3.741   1.849   0.518 -0.9869  1.3915 -1.7019
10086TIP3    H251750   3.673   1.815   0.387  1.2833 -1.1144 -2.3016
10087TIP3   OH251751   0.601   6.623  13.744  0.0104  0.2454 -0.2595
10087TIP3    H151752   0.628   6.711  13.768 -1.4961  0.5854  0.2265
10087TIP3    H251753   0.674   6.590  13.690  0.6199  1.7369 -0.3934
10088TIP3   OH251754   1.546   5.154  12.456 -0.1487 -0.5297 -0.2371
10088TIP3    H151755   1.617   5.217  12.447 -0.2246 -0.4292 -0.1397
10088TIP3    H251756   1.562   5.089  12.388  1.5687 -1.9972  1.4578
10089TIP3   OH251757   3.178   2.426   3.509  0.2473  0.2335 -0.1252
10089TIP3    H151758   3.223   2.403   3.590 -0.3110 -0.1576  0.0817
10089TIP3    H251759   3.184   2.522   3.504 -1.2337  0.4460  1.2976
10090TIP3   OH251760   3.708   5.584   2.313  0.9286  0.5425  0.2217
10090TIP3    H151761   3.772   5.622   2.254 -1.7888  1.7949 -2.1844
10090TIP3    H251762   3.659   5.522   2.260  0.3204 -0.6220  2.0432
10091TIP3   OH251763   0.177   1.721  10.489 -0.4539  0.0547 -0.1581
10091TIP3    H151764   0.083   1.719  10.505 -0.2474 -1.3026  1.1080
10091TIP3    H251765   0.204   1.629  10.489  1.1354  0.4466  1.5088
10092TIP3   OH251766   1.580   3.821  13.593  0.7085  0.2472  0.0832
10092TIP3    H151767   1.592   3.773  13.674 -1.8412  0.8443  0.8868
10092TIP3    H251768   1.490   3.804  13.567  0.5951  2.2671 -1.1267
10093TIP3   OH251769   4.921   0.665  13.475 -0.5759  0.5457 -0.0698
10093TIP3    H151770   4.912   0.726  13.548 -0.0310 -1.5130  1.8291
10093TIP3    H251771   5.015   0.650  13.468 -0.7017 -0.1321 -0.4287
10094TIP3   OH251772   1.877   5.132  15.292  0.0838  0.1578 -0.8189
10094TIP3    H151773   1.823   5.055  15.314  0.1025  0.1342 -0.8563
10094TIP3    H251774   1.859   5.194  15.363  1.7781 -0.7215  0.4568
10095TIP3   OH251775   3.729   3.654  13.692  0.4360  0.1606  0.0974
10095TIP3    H151776   3.753   3.708  13.767  1.1637 -1.7452  1.3177
10095TIP3    H251777   3.798   3.588  13.686  0.6006  0.4347 -2.5117
10096TIP3   OH251778   1.879   4.846   4.760  0.2596  0.1896 -0.0569
10096TIP3    H151779   1.944   4.848   4.689 -0.3161  0.6691 -0.5774
10096TIP3    H251780   1.880   4.935   4.796  0.2451  0.0614  0.2652
10097TIP3   OH251781   4.915   0.140  11.800 -0.0007  0.6192  0.0207
10097TIP3    H151782   4.834   0.096  11.826 -1.0461  1.1555 -2.1054
10097TIP3    H251783   4.980   0.069  11.797 -1.0605 -0.3674 -0.9110
10098TIP3   OH251784   3.641   4.676  11.895 -0.6942 -0.0219  0.1449
10098TIP3    H151785   3.572   4.692  11.830 -0.8984  1.1866  0.6325
10098TIP3    H251786   3.612   4.723  11.973 -0.7331 -1.9304  1.3287
10099TIP3   OH251787   6.035   4.646  14.301 -0.4976  0.1694  0.6526
10099TIP3    H151788   5.992   4.657  14.386  0.1714 -1.7305  1.2921
10099TIP3    H251789   6.129   4.647  14.322 -0.3127  0.2549 -0.1480
10100TIP3   OH251790   2.285   6.138   5.251  0.7128 -0.1378  0.5665
10100TIP3    H151791   2.320   6.187   5.325  3.6734 -2.3899  0.8511
10100TIP3    H251792   2.321   6.182   5.174 -1.1307  1.2853  0.4388
10101TIP3   OH251793   1.441   4.270   1.113  0.2085 -0.4353 -0.3122
10101TIP3    H151794   1.412   4.192   1.067  0.2205  0.6546 -2.2802
10101TIP3    H251795   1.522   4.295   1.068  0.0262  0.8892  0.0608
10102TIP3   OH251796   2.739   3.615   6.564  0.1867  0.1001  0.2203
10102TIP3    H151797   2.690   3.559   6.624  0.3730  1.2372  1.4744
10102TIP3    H251798   2.705   3.703   6.578 -0.8031  0.2554 -2.4417
10103TIP3   OH251799   5.018   5.357  16.605 -0.2540  0.2302  0.4051
10103TIP3    H151800   4.964   5.282  16.583 -1.9404  1.3408  0.5489
10103TIP3    H251801   4.966   5.433  16.579  0.5433  1.4063  2.0074
10104TIP3   OH251802   4.136   1.507   0.372  0.6679  0.1106  0.0247
10104TIP3    H151803   4.055   1.457   0.367  1.0422 -0.6043  0.8539
10104TIP3    H251804   4.182   1.486   0.291  0.2096  0.1867 -0.2556
10105TIP3   OH251805   3.487   4.712   5.103  0.2386  0.1054  0.3698
10105TIP3    H151806   3.565   4.669   5.070  0.2279 -0.6056  1.2343
10105TIP3    H251807   3.472   4.785   5.042  0.4149 -0.9315 -0.9650
10106TIP3   OH251808   4.546   4.347  13.402 -0.4247 -0.1315  0.1741
10106TIP3    H151809   4.523   4.376  13.313 -0.8585 -2.1768 -0.4277
10106TIP3    H251810   4.635   4.314  13.394  0.1963  1.2692  0.9312
10107TIP3   OH251811   6.690   4.929   3.406  0.0927 -0.5314 -0.4905
10107TIP3    H151812   6.745   4.853   3.427 -1.0012 -1.3598 -0.5315
10107TIP3    H251813   6.714   4.995   3.472  0.1800 -1.3634  0.3294
10108TIP3   OH251814   4.473   3.721   3.183 -0.1967  0.3144 -0.1886
10108TIP3    H151815   4.536   3.743   3.251 -0.3251 -1.1316  0.4308
10108TIP3    H251816   4.392   3.703   3.229 -0.7561  0.9764 -0.8820
10109TIP3   OH251817   1.948   1.841  16.455  0.3914 -0.3374 -0.1297
10109TIP3    H151818   1.924   1.791  16.377 -1.0403  1.0611 -0.6384
10109TIP3    H251819   2.006   1.909  16.422 -2.3416  1.9555 -0.5643
10110TIP3   OH251820   6.425   4.350  13.574 -0.0983 -0.4475  0.2222
10110TIP3    H151821   6.370   4.409  13.627 -0.4542  0.1190 -0.7474
10110TIP3    H251822   6.473   4.409  13.516  0.1187 -1.0766 -0.2409
10111TIP3   OH251823   5.730   6.661  16.663  0.1549  0.4212  0.3729
10111TIP3    H151824   5.687   6.590  16.711  0.8609  0.4690  1.0989
10111TIP3    H251825   5.823   6.637  16.665  0.1500  0.0861 -1.5337
10112TIP3   OH251826   3.556   4.351  13.338  0.0793  0.6640  0.2674
10112TIP3    H151827   3.624   4.328  13.275  0.4305 -0.8363  1.1335
10112TIP3    H251828   3.594   4.422  13.389  0.2525  1.0935 -0.4524
10113TIP3   OH251829   2.682   4.852  13.108  0.0090  0.5551  0.2647
10113TIP3    H151830   2.656   4.936  13.069 -0.5237 -0.4030 -1.5674
10113TIP3    H251831   2.600   4.809  13.131  0.2662  0.3951  0.9233
10114TIP3   OH251832   0.539   4.849   1.410 -0.1055 -0.0518  0.5888
10114TIP3    H151833   0.512   4.797   1.485 -0.5032  0.1429  0.5846
10114TIP3    H251834   0.585   4.924   1.447 -0.2651  0.0225  0.6379
10115TIP3   OH251835   2.373   0.313   6.171  0.4072  0.1231 -0.3645
10115TIP3    H151836   2.352   0.234   6.220 -1.9532  0.5751 -0.4838
10115TIP3    H251837   2.427   0.365   6.230  3.0208 -2.0188 -0.7358
10116TIP3   OH251838   6.129   4.618  16.272  0.4755  0.3926  0.1103
10116TIP3    H151839   6.045   4.604  16.228 -0.3940  1.3306  1.3798
10116TIP3    H251840   6.108   4.611  16.365  1.9507  0.0177  0.4388
10117TIP3   OH251841   5.705   1.548   4.307 -0.5509 -0.2843  0.5368
10117TIP3    H151842   5.676   1.634   4.278  1.9413  0.4304 -0.1356
10117TIP3    H251843   5.797   1.561   4.330 -0.1401 -2.7489  0.5631
10118TIP3   OH251844   0.117   1.027  16.330  0.6815 -0.2485  0.1572
10118TIP3    H151845   0.055   1.076  16.277  1.3788  0.1610 -0.2946
10118TIP3    H251846   0.072   1.013  16.413 -0.1431 -0.2603 -0.2804
10119TIP3   OH251847   2.140   0.932   2.839  0.1971  0.0073  0.4644
10119TIP3    H151848   2.079   0.889   2.779  0.9459 -0.0923 -0.2351
10119TIP3    H251849   2.180   0.861   2.888  1.6639 -0.1590 -0.9083
10120TIP3   OH251850   1.306   0.287  14.189 -0.4413 -0.4400 -0.4169
10120TIP3    H151851   1.216   0.254  14.186 -0.2229 -1.0071 -0.9210
10120TIP3    H251852   1.318   0.330  14.104 -0.8907  1.4348  0.4055
10121TIP3   OH251853   5.937   6.409  13.502  0.6579  0.5152 -0.0915
10121TIP3    H151854   5.924   6.314  13.508 -0.7453  0.7570  1.0854
10121TIP3    H251855   5.937   6.439  13.592 -0.1116  1.7791 -0.4928
10122TIP3   OH251856   3.648   2.200   2.896  0.1114 -0.7816 -0.1756
10122TIP3    H151857   3.577   2.252   2.858  0.1039  0.4868  1.5005
10122TIP3    H251858   3.660   2.236   2.984  4.1891  0.4509 -1.0348
10123TIP3   OH251859   6.719   4.742   1.290 -0.2805 -0.0334 -0.4870
10123TIP3    H151860   6.741   4.787   1.371 -0.5994  1.5385 -1.2370
10123TIP3    H251861   6.741   4.804   1.221  0.6006 -1.5842 -1.6667
10124TIP3   OH251862   5.949   5.146   4.330 -0.6236 -0.5291 -0.1514
10124TIP3    H151863   5.996   5.097   4.263 -0.0500  1.7830 -1.5660
10124TIP3    H251864   5.867   5.098   4.342  0.0962 -2.0524 -1.0937
10125TIP3   OH251865   2.471   3.193  16.159  0.2238  0.2581  0.0848
10125TIP3    H151866   2.427   3.272  16.128  1.9615  1.3710  0.3459
10125TIP3    H251867   2.563   3.206  16.138  0.7360 -1.1546  1.2667
10126TIP3   OH251868   4.241   5.781   0.314  0.3270  0.6723 -0.3947
10126TIP3    H151869   4.161   5.752   0.269  0.2218 -0.2096  0.3251
10126TIP3    H251870   4.255   5.715   0.382  2.8332 -0.3544 -1.8023
10127TIP3   OH251871   4.092   2.295  11.669  0.2098  0.6869  0.2683
10127TIP3    H151872   4.010   2.295  11.620  0.3656  0.1753 -0.0016
10127TIP3    H251873   4.066   2.317  11.759 -0.3090 -0.1035  0.3220
10128TIP3   OH251874   2.961   2.862  14.049  0.0009 -0.0617 -0.7816
10128TIP3    H151875   2.925   2.794  14.105  1.9574  1.4146  2.5829
10128TIP3    H251876   3.040   2.823  14.012  1.1593  0.2932  1.1967
10129TIP3   OH251877   4.147   0.212   5.145  0.4010  0.1828  0.5482
10129TIP3    H151878   4.090   0.286   5.124 -0.3707 -0.2664  0.9981
10129TIP3    H251879   4.088   0.146   5.180  1.3218  0.0325  1.8787
10130TIP3   OH251880   0.884   0.072   6.464  0.0210  0.4536 -0.1034
10130TIP3    H151881   0.853   0.057   6.375  1.4320  0.8952 -0.6906
10130TIP3    H251882   0.907  -0.015   6.496  1.1492  0.4777 -0.8106
10131TIP3   OH251883   5.925   3.392   4.929 -0.1732  0.0434  0.6156
10131TIP3    H151884   5.863   3.453   4.889  2.0099  0.4796 -2.5825
10131TIP3    H251885   5.987   3.448   4.975 -0.6786 -0.1696  1.5651
10132TIP3   OH251886   5.017   3.325   3.941  0.1840  0.4925 -0.2820
10132TIP3    H151887   5.064   3.329   4.024  0.8070 -1.0992 -0.5066
10132TIP3    H251888   5.026   3.233   3.914 -0.7214  0.7955 -1.6918
10133TIP3   OH251889   5.937   0.840   6.209  0.3815 -0.5323 -0.1635
10133TIP3    H151890   5.942   0.865   6.301  2.0138 -3.1213  0.5546
10133TIP3    H251891   5.843   0.837   6.190 -0.0438 -1.0815  1.7949
10134TIP3   OH251892   2.183   5.189  16.287  0.6065  0.1985 -0.2376
10134TIP3    H151893   2.221   5.101  16.285  0.7479  0.2605 -1.7180
10134TIP3    H251894   2.187   5.219  16.196 -1.2865  0.9400 -0.1369
10135TIP3   OH251895   3.074   0.637   0.751  0.0668 -0.1648 -1.1420
10135TIP3    H151896   3.031   0.655   0.667  1.6245 -1.8080 -2.3614
10135TIP3    H251897   3.042   0.550   0.776 -0.9155  0.5946  0.3599
10136TIP3   OH251898   5.349   3.111  15.701  0.3122 -0.7102  0.5189
10136TIP3    H151899   5.322   3.131  15.611  0.1876 -0.1018  0.6882
10136TIP3    H251900   5.443   3.132  15.703 -0.0205  0.8512  0.9629
10137TIP3   OH251901   4.315   4.832  13.600  0.1733  0.4100  0.5216
10137TIP3    H151902   4.321   4.738  13.618 -1.6502  0.0726 -0.4514
10137TIP3    H251903   4.360   4.843  13.516 -1.0972  0.0851 -0.2279
10138TIP3   OH251904   1.060   1.575   3.227 -0.1976  0.3367 -0.7340
10138TIP3    H151905   0.965   1.590   3.226 -0.4338 -1.0447 -1.1148
10138TIP3    H251906   1.075   1.524   3.306  0.3897  1.3789 -0.1521
10139TIP3   OH251907   2.101   5.238  13.934 -0.5235 -0.1187 -0.2710
10139TIP3    H151908   2.057   5.318  13.964  1.4126  1.1755 -0.7491
10139TIP3    H251909   2.053   5.212  13.856 -0.6476  1.0823 -0.6058
10140TIP3   OH251910   3.687   1.289   3.465 -0.1509  0.0574 -0.2409
10140TIP3    H151911   3.598   1.254   3.475  0.6265 -1.5804  1.6733
10140TIP3    H251912   3.723   1.290   3.553  1.3930  1.7694 -0.8111
10141TIP3   OH251913   2.961   3.682   6.410  0.2769  0.5627 -0.0621
10141TIP3    H151914   2.884   3.651   6.458  0.8619 -1.0421 -0.0980
10141TIP3    H251915   3.021   3.713   6.478 -0.2917  1.6362 -0.0219
10142TIP3   OH251916   3.659   3.581  12.294 -0.0571 -0.3635 -0.2750
10142TIP3    H151917   3.709   3.547  12.369  0.4989 -0.9055 -0.8831
10142TIP3    H251918   3.637   3.504  12.243 -0.7487 -0.0289 -0.4933
10143TIP3   OH251919   5.838   3.222   0.490  0.1092  0.2828 -0.1432
10143TIP3    H151920   5.787   3.298   0.516 -0.1196 -0.4655  1.7736
10143TIP3    H251921   5.777   3.169   0.438 -0.2725  0.5769 -0.0003
10144TIP3   OH251922   4.955   5.992   0.740 -0.1068 -0.0208 -0.0083
10144TIP3    H151923   4.860   6.001   0.731 -0.0145  1.0961 -0.0644
10144TIP3    H251924   4.976   6.042   0.819  0.4693  0.0419 -0.1953
10145TIP3   OH251925   5.802   6.310   3.427  0.6268 -0.9098  0.2941
10145TIP3    H151926   5.825   6.219   3.410 -0.1890 -0.9080 -0.9194
10145TIP3    H251927   5.815   6.354   3.343  1.6830  0.2538  1.0282
10146TIP3   OH251928   5.076   3.623  14.746  0.0425  0.4589 -1.0008
10146TIP3    H151929   5.034   3.540  14.720  1.5702 -0.4421 -0.6899
10146TIP3    H251930   5.002   3.681  14.767 -1.0802 -1.4094  0.5996
10147TIP3   OH251931   1.010   5.943  13.665  0.0362  0.3301  0.1434
10147TIP3    H151932   0.996   5.927  13.759 -0.2468 -0.5335 -0.0329
10147TIP3    H251933   0.926   5.976  13.634 -0.8303 -2.0726 -0.3340
10148TIP3   OH251934   6.596   6.713   3.982  0.2846 -0.0408  0.5831
10148TIP3    H151935   6.545   6.741   4.058 -1.6995 -1.9472  0.0709
10148TIP3    H251936   6.650   6.788   3.960 -0.0644  1.0289  3.0456
10149TIP3   OH251937   2.713   4.697   4.900  0.3695 -0.6904 -0.6315
10149TIP3    H151938   2.634   4.666   4.944  0.8195 -0.9858 -0.0125
10149TIP3    H251939   2.694   4.686   4.806 -0.8095  0.4789 -0.5485
10150TIP3   OH251940   5.886   1.341  14.341 -0.1002 -0.7736 -0.3621
10150TIP3    H151941   5.909   1.299  14.424 -1.6309 -0.9354  0.0178
10150TIP3    H251942   5.877   1.434  14.363 -1.0116 -0.8884 -0.2160
10151TIP3   OH251943   0.344   0.512  12.738 -0.2713 -0.1519  0.0314
10151TIP3    H151944   0.411   0.451  12.708  1.2811  2.1791 -1.6249
10151TIP3    H251945   0.279   0.513  12.668  1.0432  1.8909 -1.2904
10152TIP3   OH251946   3.214   3.581  14.168  0.2681 -0.1012 -0.1293
10152TIP3    H151947   3.249   3.664  14.199 -2.5228  0.6812  1.2361
10152TIP3    H251948   3.223   3.522  14.243 -1.0714  0.0723  0.1923
10153TIP3   OH251949   0.061   2.331   6.031 -0.5541 -0.0284  0.5686
10153TIP3    H151950  -0.017   2.384   6.013 -0.2889  0.5080  0.9672
10153TIP3    H251951   0.119   2.349   5.957 -1.3184 -1.4748 -0.4432
10154TIP3   OH251952   3.047   1.370   0.705  0.0498  0.2941  0.1268
10154TIP3    H151953   2.953   1.384   0.702 -0.1962 -1.1628  0.2884
10154TIP3    H251954   3.072   1.395   0.794 -0.2635  0.2167  0.2378
10155TIP3   OH251955   2.199   5.723   2.768  0.0627  0.2386 -0.0113
10155TIP3    H151956   2.213   5.643   2.717  0.4024 -0.0151  0.4712
10155TIP3    H251957   2.255   5.788   2.727  0.4497 -0.0054  0.1258
10156TIP3   OH251958   6.704   2.061  16.474 -0.8994 -0.1644  0.5869
10156TIP3    H151959   6.740   2.142  16.437 -0.4237 -0.8643 -0.5195
10156TIP3    H251960   6.777   2.022  16.522 -0.2044 -1.3837 -1.3283
10157TIP3   OH251961   0.360   6.548   2.140 -0.4910 -0.0327  0.3170
10157TIP3    H151962   0.360   6.634   2.183 -1.0853 -0.0717  0.4107
10157TIP3    H251963   0.274   6.511   2.161 -0.2565 -0.6377  0.2470
10158TIP3   OH251964   3.761   3.671  15.493 -0.4325 -0.3430  0.1129
10158TIP3    H151965   3.822   3.598  15.489  0.5671  0.4745  0.1065
10158TIP3    H251966   3.677   3.633  15.467 -0.4821 -2.0193  2.4728
10159TIP3   OH251967   4.551   1.350  12.152  0.4620  0.0557 -0.1212
10159TIP3    H151968   4.490   1.289  12.110 -0.6057  0.8471  0.2148
10159TIP3    H251969   4.637   1.312  12.138  0.0611 -0.2500 -2.1083
10160TIP3   OH251970   3.914   6.252  11.603  0.9177 -0.0698  0.2319
10160TIP3    H151971   3.999   6.256  11.559  0.9795  1.8493  0.4337
10160TIP3    H251972   3.880   6.341  11.598 -1.2496 -0.8295 -0.1128
10161TIP3   OH251973   4.488   5.139  16.544 -0.6475 -0.0204 -0.4870
10161TIP3    H151974   4.419   5.103  16.488 -0.8725 -1.3862  0.6211
10161TIP3    H251975   4.442   5.170  16.622  0.0621 -2.8193  1.2081
10162TIP3   OH251976   2.923   2.330   5.493 -0.1788  0.9175 -0.0259
10162TIP3    H151977   2.876   2.382   5.557 -0.1827 -0.6406  1.3010
10162TIP3    H251978   2.859   2.267   5.461 -0.1683  1.6514 -1.5804
10163TIP3   OH251979   2.395   4.285  12.128 -0.2636 -0.7616  0.8240
10163TIP3    H151980   2.324   4.246  12.077  0.2761 -0.6591 -0.0292
10163TIP3    H251981   2.356   4.307  12.212 -1.4142 -0.0753  0.1260
10164TIP3   OH251982   0.231   1.578  11.453 -0.0403  0.1291  0.2787
10164TIP3    H151983   0.157   1.529  11.488 -0.0932 -0.5152 -0.6945
10164TIP3    H251984   0.306   1.548  11.505 -0.4572  0.8691  1.3425
10165TIP3   OH251985   1.362   4.918  13.316 -0.2613 -0.4198 -0.5289
10165TIP3    H151986   1.323   4.848  13.368  1.9548 -1.2377  0.1338
10165TIP3    H251987   1.425   4.874  13.259 -0.7257  0.7729 -2.0276
10166TIP3   OH251988   4.421   3.055  12.316  0.4072  0.1268  0.6196
10166TIP3    H151989   4.357   3.029  12.250 -0.4073  1.4961  0.8364
10166TIP3    H251990   4.370   3.067  12.396  1.4200 -1.8299  1.6424
10167TIP3   OH251991   1.404   3.358   2.793 -0.1554  0.1087 -0.1028
10167TIP3    H151992   1.424   3.293   2.725  0.0482 -0.1688  0.2151
10167TIP3    H251993   1.479   3.354   2.852 -0.7895 -0.4083  0.7031
10168TIP3   OH251994   0.344   2.198   6.451  0.0606  0.0245 -0.0451
10168TIP3    H151995   0.304   2.205   6.537  0.3347  2.2119 -0.0405
10168TIP3    H251996   0.427   2.244   6.459  0.0338  0.3858 -1.4836
10169TIP3   OH251997   4.713   1.070   4.127 -0.2990 -0.3027 -0.3052
10169TIP3    H151998   4.733   1.065   4.033  1.1101 -0.4225 -0.0183
10169TIP3    H251999   4.754   0.992   4.164 -1.6965 -0.7914  0.2879
10170TIP3   OH252000   5.685   6.340  12.791 -0.2538 -0.7293 -0.8329
10170TIP3    H152001   5.622   6.411  12.774  1.5081  1.8779  2.2767
10170TIP3    H252002   5.635   6.276  12.841 -0.8068  0.8071  0.7031
10171TIP3   OH252003   4.594   6.427  14.313 -0.0459 -0.4654  0.7256
10171TIP3    H152004   4.541   6.502  14.284  0.9268  1.1458  2.7964
10171TIP3    H252005   4.546   6.350  14.284 -1.8375  0.9522 -0.2505
10172TIP3   OH252006   3.145   1.166  15.581 -0.1126  0.3851  0.1114
10172TIP3    H152007   3.180   1.252  15.602 -1.4292  0.5816  1.7537
10172TIP3    H252008   3.161   1.155  15.487  0.4680  2.2179 -0.0406
10173TIP3   OH252009   2.970   3.869   6.222 -0.5890  0.6111  0.0540
10173TIP3    H152010   2.878   3.857   6.199 -1.4944  2.4568  2.2788
10173TIP3    H252011   2.980   3.822   6.305 -0.0144  1.7610  0.6717
10174TIP3   OH252012   1.512   1.470  15.195 -0.2768 -0.1302 -0.4944
10174TIP3    H152013   1.484   1.379  15.182 -0.6056 -0.0172 -0.5721
10174TIP3    H252014   1.581   1.482  15.129 -0.6895 -0.1202 -0.9255
10175TIP3   OH252015   1.758   1.763   3.868  0.2858 -0.0940  0.1160
10175TIP3    H152016   1.829   1.709   3.902 -0.7944 -1.5117  0.2156
10175TIP3    H252017   1.697   1.773   3.942 -0.2493 -0.0185 -0.3261
10176TIP3   OH252018   3.648   3.365  17.052  0.0583 -0.5536  0.1997
10176TIP3    H152019   3.639   3.343  17.144  0.6976 -2.5903 -0.1690
10176TIP3    H252020   3.743   3.374  17.039  0.0140 -0.8869 -0.3778
10177TIP3   OH252021   6.096   2.568   3.726 -0.5322 -0.0304  0.0956
10177TIP3    H152022   6.165   2.634   3.724 -2.3743  2.0618  0.3627
10177TIP3    H252023   6.064   2.562   3.636 -1.8315  1.1864  0.4356
10178TIP3   OH252024   4.420   0.661   4.422 -0.4083  0.6332  0.2917
10178TIP3    H152025   4.350   0.605   4.455  0.9479 -1.1997  0.2131
10178TIP3    H252026   4.418   0.738   4.479 -1.5942  0.0196  1.1303
10179TIP3   OH252027   2.651   6.532   2.988 -0.0106 -0.0057 -0.1005
10179TIP3    H152028   2.598   6.581   2.925  0.7622  0.5029 -0.3665
10179TIP3    H252029   2.614   6.555   3.074  0.7711  1.6085 -0.1663
10180TIP3   OH252030   6.311   4.429  15.444  0.0382  0.1337 -0.1075
10180TIP3    H152031   6.354   4.505  15.405  1.2876  0.1698  1.2604
10180TIP3    H252032   6.262   4.390  15.371 -0.2189  1.9255 -0.9602
10181TIP3   OH252033   6.327   4.266  13.913 -0.3926  0.1404 -0.0598
10181TIP3    H152034   6.310   4.296  13.823  0.7113  1.2953  0.0717
10181TIP3    H252035   6.421   4.280  13.925  0.1607 -3.0651  0.2087
10182TIP3   OH252036   1.234   3.574   2.992 -0.1719  0.0817 -0.2873
10182TIP3    H152037   1.193   3.489   2.973  0.1149  0.0373 -0.7111
10182TIP3    H252038   1.186   3.607   3.068 -0.1705 -0.5465 -0.0040
10183TIP3   OH252039   4.963   6.345  13.447 -0.0307  0.0446  0.4303
10183TIP3    H152040   4.872   6.344  13.416 -0.2938  0.1769  1.1585
10183TIP3    H252041   4.980   6.254  13.471  0.1166 -0.0274  0.0534
10184TIP3   OH252042   5.058   3.196  12.576 -0.2219 -0.1130 -0.1607
10184TIP3    H152043   5.141   3.239  12.556 -0.3364  0.1834  0.0050
10184TIP3    H252044   5.049   3.128  12.509 -0.6104  0.8690 -1.1253
10185TIP3   OH252045   5.174   0.738  16.088 -0.1672 -0.1377 -0.2816
10185TIP3    H152046   5.229   0.816  16.093  1.0772 -0.8908 -1.4064
10185TIP3    H252047   5.115   0.756  16.015  1.2632 -0.8803 -1.6857
10186TIP3   OH252048   4.585   6.348   2.086  0.4113 -0.0344  0.0964
10186TIP3    H152049   4.541   6.430   2.064 -1.7744 -1.4278 -1.1872
10186TIP3    H252050   4.638   6.328   2.010  1.2749  0.3633  0.5810
10187TIP3   OH252051   3.877   4.112  14.557 -0.4014 -0.4722 -0.5297
10187TIP3    H152052   3.918   4.082  14.638  0.8527 -1.8807 -1.6201
10187TIP3    H252053   3.815   4.180  14.585  1.3358  0.4302  1.3955
10188TIP3   OH252054   6.642   3.929   6.150 -0.3553 -0.0989  0.3844
10188TIP3    H152055   6.642   3.872   6.227  0.8137  1.1053  1.3226
10188TIP3    H252056   6.665   4.015   6.184  1.4560  0.2278 -1.4664
10189TIP3   OH252057   3.370   3.964  11.350  0.3107  0.2818  0.3701
10189TIP3    H152058   3.309   4.037  11.346 -0.3661 -0.2788  0.1444
10189TIP3    H252059   3.333   3.906  11.417  0.5211 -0.1267  0.1368
10190TIP3   OH252060   6.630   2.977   3.507  0.4032  0.0911  0.1413
10190TIP3    H152061   6.592   2.913   3.447 -0.3834  0.1823  0.5412
10190TIP3    H252062   6.556   3.013   3.555  0.8846  0.9857  0.2383
10191TIP3   OH252063   2.999   1.543   1.432 -0.0153  0.4205 -0.1266
10191TIP3    H152064   3.040   1.505   1.354  1.3038  0.7176  0.3977
10191TIP3    H252065   3.024   1.636   1.430 -1.0412  0.7159 -0.0158
10192TIP3   OH252066   4.280   5.843  10.768  0.0864 -0.7177 -0.5441
10192TIP3    H152067   4.295   5.819  10.677  0.9285 -0.6978 -0.4153
10192TIP3    H252068   4.226   5.772  10.803  2.0993 -2.2222 -0.3108
10193TIP3   OH252069   2.793   0.427   0.860  0.2207  0.0652 -0.7608
10193TIP3    H152070   2.858   0.375   0.812 -1.4889 -1.5134 -1.5100
10193TIP3    H252071   2.711   0.411   0.813 -1.0020  0.7730  1.0234
10194TIP3   OH252072   3.143   1.367  14.888 -0.1047  0.4688  0.6533
10194TIP3    H152073   3.088   1.289  14.879  0.0250  0.5556 -1.4290
10194TIP3    H252074   3.091   1.437  14.847  1.9474  0.2770 -2.6743
10195TIP3   OH252075   6.614   1.089   5.970  0.7030  0.1292 -0.3615
10195TIP3    H152076   6.630   1.086   5.876 -1.8829 -0.4363 -0.8565
10195TIP3    H252077   6.594   1.181   5.988 -0.0631  0.0253 -0.6377
10196TIP3   OH252078   1.468   3.177   2.589 -0.6572 -0.1458 -0.0374
10196TIP3    H152079   1.479   3.088   2.623 -1.9832 -0.2230  0.2046
10196TIP3    H252080   1.533   3.183   2.518 -1.2490 -1.6541 -0.7400
10197TIP3   OH252081   6.426   4.361  12.208 -0.0772 -0.3373 -0.2250
10197TIP3    H152082   6.515   4.325  12.207 -0.0009 -0.4749  2.7870
10197TIP3    H252083   6.438   4.453  12.231 -0.7050 -0.1466 -0.6231
10198TIP3   OH252084   4.521   2.018   0.366  0.3760  0.5709  0.1523
10198TIP3    H152085   4.516   1.982   0.455  0.4548  0.1681 -0.0048
10198TIP3    H252086   4.429   2.028   0.339  0.3583  0.0665  0.0273
10199TIP3   OH252087   0.376   5.988  13.147  0.6199  0.3289  0.0677
10199TIP3    H152088   0.427   5.979  13.066 -0.5659  0.1774 -0.6958
10199TIP3    H252089   0.304   6.047  13.122 -0.0381 -0.1227  0.8812
10200TIP3   OH252090   2.502   3.817  15.635  0.5389  0.0935 -0.9744
10200TIP3    H152091   2.408   3.835  15.622  0.9185  2.0824 -1.2607
10200TIP3    H252092   2.523   3.857  15.719  0.8088 -1.8455 -0.0681
10201TIP3   OH252093   6.520   1.680   5.333 -0.4343 -0.2590 -0.2319
10201TIP3    H152094   6.498   1.588   5.318  1.0613 -0.8522  0.9836
10201TIP3    H252095   6.540   1.685   5.426 -0.6427  1.3495 -0.2451
10202TIP3   OH252096   3.639   0.337  16.641  0.3548  0.2975  0.4494
10202TIP3    H152097   3.585   0.401  16.594  0.0876 -0.7206 -0.6540
10202TIP3    H252098   3.579   0.299  16.706 -0.6642 -1.6023 -1.4709
10203TIP3   OH252099   6.176   6.007  13.732 -0.2659  0.0587  0.2706
10203TIP3    H152100   6.191   6.102  13.725 -1.1468  0.3794  2.0461
10203TIP3    H252101   6.101   6.000  13.790  0.0949 -1.7666  0.5569
10204TIP3   OH252102   3.689   2.157   6.338 -0.5707  0.0008 -0.1852
10204TIP3    H152103   3.733   2.101   6.274  0.1958 -0.1536  0.4593
10204TIP3    H252104   3.702   2.112   6.422  0.1495  1.1854  0.3648
10205TIP3   OH252105   1.385   5.031   2.101 -1.1959  0.7945  0.2623
10205TIP3    H152106   1.299   5.017   2.141 -1.1376  0.5040  0.2816
10205TIP3    H252107   1.445   4.975   2.150 -0.9319  1.2439  0.4662
10206TIP3   OH252108   5.556   4.203  15.249  0.0648  0.6506 -0.0459
10206TIP3    H152109   5.572   4.241  15.162 -1.3563 -0.9343 -1.0565
10206TIP3    H252110   5.528   4.114  15.231 -3.3497  1.1956  1.8423
10207TIP3   OH252111   2.969   1.372   1.662 -0.2015  0.2611  0.3533
10207TIP3    H152112   3.009   1.393   1.578 -0.0437  1.5796  0.7378
10207TIP3    H252113   2.982   1.278   1.672 -0.3331  0.0678 -1.1460
10208TIP3   OH252114   3.299   3.889  15.415  0.4235 -0.2171  0.4158
10208TIP3    H152115   3.227   3.950  15.403 -1.2417 -1.9118  1.1717
10208TIP3    H252116   3.375   3.944  15.434 -0.5421  1.6502 -0.8322
10209TIP3   OH252117   5.593   5.667   3.976 -0.1699 -0.2232 -0.3132
10209TIP3    H152118   5.537   5.744   3.966 -1.0206 -0.8594 -0.5873
10209TIP3    H252119   5.576   5.614   3.898  0.0515 -0.9094  0.0889
10210TIP3   OH252120   1.792   3.317   2.838  0.0390 -0.4490 -0.1075
10210TIP3    H152121   1.855   3.287   2.772 -0.2992 -1.1529 -0.1207
10210TIP3    H252122   1.826   3.401   2.868 -0.8810  0.9251 -2.6663
10211TIP3   OH252123   3.983   2.545   4.076  0.0426 -0.3736  0.6583
10211TIP3    H152124   3.913   2.608   4.059 -0.9603 -2.1205 -2.4603
10211TIP3    H252125   4.062   2.599   4.081 -0.5233  1.1938 -3.4633
10212TIP3   OH252126   4.800   4.577   0.243 -0.2376  0.1508 -0.7098
10212TIP3    H152127   4.873   4.575   0.306 -1.9634 -2.0169  1.4173
10212TIP3    H252128   4.738   4.639   0.282 -0.7266 -0.1350 -1.0370
10213TIP3   OH252129   0.324   5.539  11.107  0.0347  0.2093  0.0364
10213TIP3    H152130   0.371   5.613  11.145  0.7736  0.2693 -0.9363
10213TIP3    H252131   0.267   5.579  11.040  0.1216 -0.0597 -0.2002
10214TIP3   OH252132   6.255   2.274  16.633 -0.0468  0.1197  0.0357
10214TIP3    H152133   6.340   2.316  16.645 -0.5715  1.6908 -1.2871
10214TIP3    H252134   6.254   2.249  16.540 -0.8551 -0.3152  0.1522
10215TIP3   OH252135   3.730   5.148  15.146  0.1291  0.9909  0.2373
10215TIP3    H152136   3.648   5.099  15.155  0.5800  0.2629  0.4848
10215TIP3    H252137   3.777   5.131  15.227  1.1094  0.2871 -0.4573
10216TIP3   OH252138   2.159   4.974   5.926  0.2107 -0.0094  0.4982
10216TIP3    H152139   2.232   4.942   5.873  1.0962 -0.6147  2.0194
10216TIP3    H252140   2.193   5.051   5.971 -0.3240  0.1108  0.7081
10217TIP3   OH252141   1.199   1.780  12.905 -0.0246 -0.8220  0.8534
10217TIP3    H152142   1.212   1.864  12.862 -1.6229 -0.0628  1.7463
10217TIP3    H252143   1.238   1.716  12.846  0.1138  0.4178 -0.4490
10218TIP3   OH252144   2.466   4.013  12.265 -0.0936  0.7704  0.6505
10218TIP3    H152145   2.432   4.085  12.213 -0.3548  0.4098  0.3157
10218TIP3    H252146   2.561   4.014  12.248 -0.4498 -1.0501 -2.0860
10219TIP3   OH252147   6.803   3.247  15.664 -0.5859 -0.2946 -0.0575
10219TIP3    H152148   6.865   3.242  15.737 -1.5136 -1.2573  0.6939
10219TIP3    H252149   6.741   3.316  15.691  0.1917  0.7649 -0.8688
10220TIP3   OH252150   6.426   5.759  13.335 -0.1858 -0.3803  0.4475
10220TIP3    H152151   6.491   5.826  13.314 -1.4345  0.8329  0.2849
10220TIP3    H252152   6.476   5.691  13.380  1.2036  0.4656  0.2616
10221TIP3   OH252153   4.356   1.214  14.894 -0.1175 -0.1917  0.4578
10221TIP3    H152154   4.413   1.145  14.859 -1.9045 -0.7910 -1.4641
10221TIP3    H252155   4.272   1.171  14.907 -0.9653  1.3648  0.3384
10222TIP3   OH252156   1.358   5.033   1.100 -0.0552  0.3088 -0.4056
10222TIP3    H152157   1.301   4.976   1.151  1.8253 -2.5256 -1.2460
10222TIP3    H252158   1.347   5.120   1.139 -1.7693 -0.9227  2.0699
10223TIP3   OH252159   0.681   6.170  12.903  0.4054  0.4181 -0.2418
10223TIP3    H152160   0.731   6.205  12.829 -0.1285  1.2407 -0.2218
10223TIP3    H252161   0.726   6.088  12.926  0.4114  0.0090 -1.6456
10224TIP3   OH252162   4.654   2.514   2.069  0.1001  0.0563  0.5611
10224TIP3    H152163   4.607   2.517   1.986  0.4657 -1.7380  0.2503
10224TIP3    H252164   4.738   2.556   2.050  0.3923 -0.8003 -0.1616
10225TIP3   OH252165   0.858   0.345  11.879 -0.2437  0.3107 -0.5572
10225TIP3    H152166   0.931   0.306  11.927  0.1818 -0.5528 -1.8426
10225TIP3    H252167   0.895   0.366  11.793 -1.2104  0.9587 -0.8271
10226TIP3   OH252168   6.614   5.561   2.665 -0.0270  0.0386  0.7778
10226TIP3    H152169   6.526   5.549   2.700 -0.0538  0.5567  0.8973
10226TIP3    H252170   6.605   5.632   2.601  0.0998 -0.6219 -0.0008
10227TIP3   OH252171   2.539   4.710  11.624  0.7600 -0.2256  0.3772
10227TIP3    H152172   2.467   4.720  11.562 -0.5291  2.5131  2.1057
10227TIP3    H252173   2.517   4.631  11.674  1.3804 -1.9703 -1.8885
10228TIP3   OH252174   5.705   0.747   2.370 -0.1997 -0.3091  0.1711
10228TIP3    H152175   5.638   0.755   2.302  0.1711  0.1445 -0.1489
10228TIP3    H252176   5.656   0.758   2.452 -0.5522 -0.2189 -0.0469
10229TIP3   OH252177   1.665   4.943   2.867  0.0800 -0.0087 -0.1148
10229TIP3    H152178   1.648   5.024   2.819 -0.2060  1.3101  2.0963
10229TIP3    H252179   1.726   4.894   2.811 -0.0712  1.5200 -1.6869
10230TIP3   OH252180   3.629   6.519  15.168  0.0882  0.3730 -0.3352
10230TIP3    H152181   3.617   6.594  15.110  0.2719  1.7603  1.3483
10230TIP3    H252182   3.692   6.549  15.233  0.8429 -1.5608 -0.1059
10231TIP3   OH252183   1.194   0.950   0.000  0.4617  0.9657 -0.2931
10231TIP3    H152184   1.206   0.950  -0.095 -1.1083 -0.0437 -0.5177
10231TIP3    H252185   1.125   0.886   0.016  1.6148  0.1048  1.6619
10232TIP3   OH252186   2.617   2.098  11.587 -0.5640 -0.6845 -0.2071
10232TIP3    H152187   2.641   2.063  11.501  2.8435 -0.6888  0.6077
10232TIP3    H252188   2.602   2.021  11.641 -0.1584 -0.7398 -0.1723
10233TIP3   OH252189   3.770   6.493  13.583 -0.5644  0.0424 -0.2375
10233TIP3    H152190   3.776   6.519  13.491  1.3257  1.8239  0.2908
10233TIP3    H252191   3.858   6.509  13.617 -1.5268  0.6261  2.1540
10234TIP3   OH252192   3.099   0.675  14.776  0.7249 -0.0619  0.2231
10234TIP3    H152193   3.143   0.726  14.707 -0.2440 -0.1254 -0.4693
10234TIP3    H252194   3.142   0.590  14.774  1.6949  0.3977  0.7150
10235TIP3   OH252195   6.175   6.260   2.126  0.8348  0.0767 -0.1710
10235TIP3    H152196   6.265   6.277   2.153  0.2533  2.3955  0.5335
10235TIP3    H252197   6.134   6.220   2.202  0.6507  1.4288  0.4819
10236TIP3   OH252198   0.770   4.072   4.644  0.4916 -0.5040  0.3386
10236TIP3    H152199   0.767   3.976   4.639  0.2213 -0.4376 -1.2834
10236TIP3    H252200   0.834   4.098   4.578  0.6395  0.4383  0.8354
10237TIP3   OH252201   5.251   5.096   3.927 -0.1133 -0.4833  0.0347
10237TIP3    H152202   5.237   5.080   3.834 -1.5848 -0.2256  0.1899
10237TIP3    H252203   5.346   5.085   3.939  0.1992  0.0882 -1.5974
10238TIP3   OH252204   4.631   2.740   0.902 -0.0898 -1.1373  0.1966
10238TIP3    H152205   4.614   2.801   0.830  0.7091 -0.0934  0.8575
10238TIP3    H252206   4.671   2.664   0.860 -0.2343 -0.8199 -0.5371
10239TIP3   OH252207   6.623   3.317   5.755 -0.5743 -0.2947 -0.3209
10239TIP3    H152208   6.693   3.326   5.690  0.9963 -0.7344  1.2391
10239TIP3    H252209   6.638   3.231   5.794  0.4140  1.0753  2.6433
10240TIP3   OH252210   1.283   4.339   1.748 -0.4756  0.4708  0.0022
10240TIP3    H152211   1.247   4.322   1.835  1.0249 -0.3301  0.4989
10240TIP3    H252212   1.274   4.255   1.702  0.3799  0.3742  0.0047
10241TIP3   OH252213   6.288   1.112  13.551  0.2949  0.2933  0.3050
10241TIP3    H152214   6.256   1.066  13.473 -1.2682  0.3016  0.8911
10241TIP3    H252215   6.317   1.197  13.518  0.7039 -0.1134 -0.4172
10242TIP3   OH252216   4.342   1.134  12.063 -0.2255  0.3943 -0.0454
10242TIP3    H152217   4.355   1.118  11.970 -1.7258 -0.8283 -0.0892
10242TIP3    H252218   4.358   1.049  12.104 -0.0876  0.7988  0.7659
10243TIP3   OH252219   4.745   0.332   1.100  0.5308  0.2243 -0.3207
10243TIP3    H152220   4.730   0.418   1.139 -1.4188  0.3873 -1.3378
10243TIP3    H252221   4.682   0.326   1.028 -1.1081 -2.9612  1.1616
10244TIP3   OH252222   3.238   1.556  11.331 -0.7355 -0.1268 -0.2383
10244TIP3    H152223   3.278   1.643  11.324 -1.7957  0.3201 -1.0759
10244TIP3    H252224   3.156   1.564  11.283 -1.0812 -1.4648  0.0963
10245TIP3   OH252225   2.295   0.915   4.387  0.0288  0.6313 -0.0928
10245TIP3    H152226   2.234   0.969   4.336  0.4444  0.6077 -0.6205
10245TIP3    H252227   2.348   0.869   4.322  0.5874  0.6199  0.3547
10246TIP3   OH252228   0.821   2.764   2.312  0.2549  0.0863  0.0596
10246TIP3    H152229   0.818   2.811   2.395 -0.3022 -0.6999  0.4928
10246TIP3    H252230   0.904   2.717   2.314  0.0028 -0.3549  0.4171
10247TIP3   OH252231   5.083   1.779  13.803  0.5270  0.3023 -0.1608
10247TIP3    H152232   5.089   1.702  13.860 -2.1949  0.4371  0.4434
10247TIP3    H252233   5.077   1.743  13.714 -0.0969 -0.1837  0.0671
10248TIP3   OH252234   2.167   3.505  16.291 -0.2030 -0.3404  0.5277
10248TIP3    H152235   2.158   3.491  16.196  0.9532  0.9711  0.1961
10248TIP3    H252236   2.078   3.493  16.325 -0.6169 -0.9590 -0.6944
10249TIP3   OH252237   4.919   3.046  13.239 -0.0707  0.3711  0.0373
10249TIP3    H152238   4.835   3.072  13.277 -0.2513 -0.4079  0.1950
10249TIP3    H252239   4.977   3.036  13.314 -0.2520 -0.5370  0.0716
10250TIP3   OH252240   2.107   6.649  15.963 -0.1907 -0.1394  0.3550
10250TIP3    H152241   2.158   6.677  15.888 -1.3333 -2.7920 -1.5929
10250TIP3    H252242   2.048   6.722  15.981  0.2349  0.6270 -1.2193
10251TIP3   OH252243   3.107   3.613   0.186  0.3003  0.0939  0.0714
10251TIP3    H152244   3.075   3.690   0.139 -0.1097  0.0432  0.2641
10251TIP3    H252245   3.171   3.574   0.126 -1.2443 -0.7824 -1.1147
10252TIP3   OH252246   1.068   1.225  11.786  0.1540  0.0713 -0.2956
10252TIP3    H152247   1.085   1.306  11.835  0.9354 -0.2964  0.0496
10252TIP3    H252248   0.990   1.245  11.734 -0.8563  0.4121  1.2586
10253TIP3   OH252249   3.801   3.950  15.960 -0.8531 -0.2133  0.4189
10253TIP3    H152250   3.812   3.855  15.961 -1.4495 -0.2853  1.3436
10253TIP3    H252251   3.803   3.973  15.867  0.6055 -0.9476  0.2382
10254TIP3   OH252252   5.057   0.571  13.226 -0.8164  0.1985  0.0924
10254TIP3    H152253   5.001   0.547  13.152  1.7237 -1.1167 -1.5509
10254TIP3    H252254   5.068   0.490  13.276  1.8888 -0.4314 -1.3211
10255TIP3   OH252255   2.817   0.270  14.129 -0.5071  0.2178 -0.1363
10255TIP3    H152256   2.732   0.226  14.123 -0.5727  0.1277  1.1790
10255TIP3    H252257   2.842   0.262  14.221  0.1214  1.7440 -0.1347
10256TIP3   OH252258   6.294   0.829  16.483  0.1003  0.2078 -0.0072
10256TIP3    H152259   6.283   0.741  16.519  0.5457 -0.0081 -0.3831
10256TIP3    H252260   6.206   0.867  16.486 -0.2214 -0.4740 -0.3898
10257TIP3   OH252261   5.702   3.525   0.372  0.0789  0.5091 -0.0736
10257TIP3    H152262   5.607   3.513   0.375  0.0222  0.9012 -0.2532
10257TIP3    H252263   5.727   3.499   0.283  0.3400 -0.9849  0.4169
10258TIP3   OH252264   3.165   0.382   0.997  0.2647 -0.0074 -0.2833
10258TIP3    H152265   3.212   0.358   1.077  1.0610  0.6007 -0.5569
10258TIP3    H252266   3.097   0.443   1.026  0.5170  0.1702 -0.0674
10259TIP3   OH252267   5.191   5.482  12.841 -0.1488  0.1085 -0.1295
10259TIP3    H152268   5.251   5.408  12.853  1.9799  1.7216 -0.2064
10259TIP3    H252269   5.186   5.494  12.746  2.3650  2.1101 -0.1331
10260TIP3   OH252270   1.993   6.114   4.314 -0.1064  0.0439 -0.7081
10260TIP3    H152271   1.975   6.036   4.261  0.4989 -0.7013  0.1385
10260TIP3    H252272   1.982   6.187   4.254 -1.5742 -0.6279 -1.3071
10261TIP3   OH252273   6.597   0.173   3.423 -0.0499  0.4718  0.5516
10261TIP3    H152274   6.584   0.093   3.475 -0.6254 -0.4769 -0.9738
10261TIP3    H252275   6.560   0.243   3.477 -0.2449 -0.4008  1.5923
10262TIP3   OH252276   6.305   4.347  11.529  0.4525  0.3618 -0.6556
10262TIP3    H152277   6.298   4.264  11.575 -1.5871  1.2435  0.7901
10262TIP3    H252278   6.271   4.330  11.441  0.4278 -0.4076 -0.4994
10263TIP3   OH252279   5.893   2.602  13.977 -0.0726 -0.1894  0.4327
10263TIP3    H152280   5.914   2.582  14.068  1.0482 -2.3255 -0.2410
10263TIP3    H252281   5.975   2.637  13.941  0.0744 -1.1759 -0.2226
10264TIP3   OH252282   5.269   3.070   3.632 -0.3228 -0.5693  0.2862
10264TIP3    H152283   5.261   3.000   3.697  3.0785 -0.2818  1.1846
10264TIP3    H252284   5.315   3.030   3.558  0.4764  0.3713  0.2529
10265TIP3   OH252285   5.319   1.572  16.013 -0.6537  0.1496 -0.4898
10265TIP3    H152286   5.412   1.571  16.037 -0.9944  0.5988  0.9761
10265TIP3    H252287   5.318   1.555  15.919  0.8046 -1.7469 -0.2354
10266TIP3   OH252288   1.017   3.020  15.523 -0.1722  0.5137  0.0015
10266TIP3    H152289   1.072   3.096  15.545  3.3715 -1.7260 -0.2851
10266TIP3    H252290   1.033   3.006  15.430  2.3541 -2.6005  0.7196
10267TIP3   OH252291   3.599   1.507   4.265  0.4049  0.3837 -0.6342
10267TIP3    H152292   3.638   1.593   4.279 -1.1669  1.2271 -1.2877
10267TIP3    H252293   3.519   1.524   4.216 -0.9100 -1.2576  0.8251
10268TIP3   OH252294   1.668   2.979   5.830  0.5248  0.1957  0.7630
10268TIP3    H152295   1.628   3.021   5.906 -1.9786 -1.3360  0.4251
10268TIP3    H252296   1.597   2.974   5.766  1.3487 -2.3135 -0.0738
10269TIP3   OH252297   4.850   6.648   3.925  0.3118 -0.6557 -0.6416
10269TIP3    H152298   4.764   6.655   3.967  0.8599  0.0130  0.4442
10269TIP3    H252299   4.888   6.736   3.934  2.0016 -1.4615  0.9983
10270TIP3   OH252300   5.757   4.107  13.290 -0.2307 -0.3925  0.2789
10270TIP3    H152301   5.756   4.057  13.208 -0.5763  0.5227 -0.3011
10270TIP3    H252302   5.666   4.106  13.320 -0.8157  1.9952 -1.1188
10271TIP3   OH252303   4.687   4.810  16.826 -0.2538  0.1812  0.5962
10271TIP3    H152304   4.684   4.897  16.784 -0.4159  0.5552  1.3765
10271TIP3    H252305   4.609   4.807  16.881 -1.4785 -1.3433 -1.1126
10272TIP3   OH252306   2.739   5.438   6.425 -0.1482  0.0034 -0.6659
10272TIP3    H152307   2.717   5.469   6.337  2.2858  1.0592 -0.9797
10272TIP3    H252308   2.774   5.350   6.411 -0.2262 -0.0252 -0.6838
10273TIP3   OH252309   4.743   5.596  15.964  0.3035  0.0822 -0.7569
10273TIP3    H152310   4.683   5.553  15.903 -3.5434  1.3958  1.7495
10273TIP3    H252311   4.750   5.686  15.930 -0.5801  0.3889 -0.1554
10274TIP3   OH252312   1.371   2.879   4.034  0.3880 -0.6363  0.0874
10274TIP3    H152313   1.316   2.821   3.981  1.0293 -1.4861  0.3211
10274TIP3    H252314   1.315   2.905   4.107 -0.7998  1.2760 -1.4306
10275TIP3   OH252315   0.374   1.397  16.543 -0.1231  0.4973  0.1384
10275TIP3    H152316   0.353   1.490  16.545  0.9494  0.7476  0.4565
10275TIP3    H252317   0.447   1.390  16.481 -0.5631 -0.2147 -0.3182
10276TIP3   OH252318   0.369   2.885   5.011  0.6736 -0.0712 -0.2796
10276TIP3    H152319   0.372   2.903   4.916 -1.4437 -1.0801 -0.5956
10276TIP3    H252320   0.394   2.968   5.051 -0.7603  1.1635 -1.7399
10277TIP3   OH252321   6.301   4.671  16.073  0.6039 -1.0392 -0.1271
10277TIP3    H152322   6.260   4.691  16.157  1.9075  2.0927 -0.0627
10277TIP3    H252323   6.365   4.603  16.093 -1.1403 -2.5234  0.7118
10278TIP3   OH252324   2.705   2.790  16.654  0.0813  0.6568  0.5117
10278TIP3    H152325   2.658   2.808  16.573  1.8767  0.6238 -0.5887
10278TIP3    H252326   2.759   2.868  16.668  3.8565 -1.3887 -1.3474
10279TIP3   OH252327   4.247   6.090  16.485  0.0517 -0.0273  0.6376
10279TIP3    H152328   4.328   6.118  16.527  1.7465  0.8011 -2.8378
10279TIP3    H252329   4.235   6.152  16.412 -2.3402 -1.6340 -0.4505
10280TIP3   OH252330   3.566   3.213   1.814 -0.7022 -0.5537 -0.2288
10280TIP3    H152331   3.522   3.139   1.773  0.7716 -1.3256 -0.5004
10280TIP3    H252332   3.611   3.258   1.743 -0.3864 -0.2754  0.1363
10281TIP3   OH252333   5.298   3.581  11.626 -0.0285  0.2094  0.2633
10281TIP3    H152334   5.284   3.490  11.599 -0.0786  0.1486  0.4986
10281TIP3    H252335   5.226   3.629  11.584  0.0395  0.1534  0.0792
10282TIP3   OH252336   1.585   2.755  13.399  0.2470 -0.7167  0.1752
10282TIP3    H152337   1.589   2.727  13.308 -0.3397  0.3198 -0.1869
10282TIP3    H252338   1.652   2.704  13.443  0.6972 -1.0620 -0.8846
10283TIP3   OH252339   1.056   1.839  16.272 -0.0724 -0.1711  0.5940
10283TIP3    H152340   1.001   1.881  16.338  0.0496 -0.0164  0.5985
10283TIP3    H252341   1.106   1.911  16.233 -0.1610 -0.2590  0.3164
10284TIP3   OH252342   3.220   0.441  16.989  0.1286 -0.3266  0.1412
10284TIP3    H152343   3.142   0.474  17.035  0.5322  0.9652 -0.0605
10284TIP3    H252344   3.215   0.346  16.999 -0.8834 -0.1980  1.0820
10285TIP3   OH252345   4.594   5.552   5.725 -0.2954  0.2021  0.3367
10285TIP3    H152346   4.535   5.477   5.726 -0.1243  0.0037 -1.5460
10285TIP3    H252347   4.648   5.542   5.803 -3.7171  1.2299  3.0958
10286TIP3   OH252348   0.772   5.120   0.118 -0.5479 -0.6124  0.1421
10286TIP3    H152349   0.696   5.093   0.066 -2.3923  0.3587  2.1785
10286TIP3    H252350   0.838   5.143   0.053 -2.4035 -0.3680 -1.7693
10287TIP3   OH252351   0.229   3.929  13.321 -0.0542  0.3997  0.0031
10287TIP3    H152352   0.208   3.837  13.308 -0.2689  0.2662  1.1766
10287TIP3    H252353   0.186   3.975  13.249 -3.1808 -0.0129  1.4609
10288TIP3   OH252354   1.000   6.376  11.071  1.0442  0.1811 -0.2386
10288TIP3    H152355   1.092   6.401  11.067  0.7509  1.3361 -0.1896
10288TIP3    H252356   0.955   6.444  11.020  0.1314  0.0781  0.4134
10289TIP3   OH252357   6.548   5.540  13.538 -0.4403  0.2489 -0.0655
10289TIP3    H152358   6.455   5.558  13.556 -0.2149  0.9487  0.4512
10289TIP3    H252359   6.577   5.487  13.612 -0.4927 -0.1937 -0.3614
10290TIP3   OH252360   2.911   1.909  13.800  0.2807  0.1846  0.5628
10290TIP3    H152361   2.957   1.993  13.799 -0.9318  0.9725  3.1006
10290TIP3    H252362   2.934   1.869  13.716  2.3512  2.2288  0.0271
10291TIP3   OH252363   4.601   4.206   5.482  0.2393  0.4014  0.2194
10291TIP3    H152364   4.653   4.276   5.443  1.2470 -1.0794 -1.2337
10291TIP3    H252365   4.525   4.197   5.424  0.8768 -0.6669 -0.4899
10292TIP3   OH252366   0.129   0.933   3.900 -0.3585 -0.0526 -0.3241
10292TIP3    H152367   0.067   1.003   3.879 -0.7011 -0.1695  0.2764
10292TIP3    H252368   0.143   0.941   3.995 -0.7992 -1.1097 -0.1525
10293TIP3   OH252369   1.877   6.507  15.804  0.1088  0.3522 -0.0793
10293TIP3    H152370   1.951   6.567  15.810  0.2836  0.0230  1.4933
10293TIP3    H252371   1.820   6.533  15.877 -0.7824 -0.1349 -0.5783
10294TIP3   OH252372   5.027   4.216   0.352 -0.7146 -0.2311 -0.7282
10294TIP3    H152373   5.085   4.288   0.326  0.3237 -1.1510 -1.0566
10294TIP3    H252374   4.970   4.254   0.419  1.3820  0.3201  0.8721
10295TIP3   OH252375   4.744   0.413   5.555 -0.1235  0.2974  0.3890
10295TIP3    H152376   4.722   0.376   5.641 -1.5800  0.2353  0.0206
10295TIP3    H252377   4.815   0.474   5.572 -2.2045  2.4148  2.1481
10296TIP3   OH252378   3.828   0.549   1.608 -0.0474  0.5612 -0.2523
10296TIP3    H152379   3.825   0.608   1.684  2.8012 -0.2043  0.5573
10296TIP3    H252380   3.803   0.464   1.643 -2.5779  0.8533 -1.1000
10297TIP3   OH252381   3.251   6.477   0.677 -0.0613  0.1104  0.1343
10297TIP3    H152382   3.248   6.399   0.621  0.7240 -0.4399  0.8332
10297TIP3    H252383   3.213   6.546   0.623  2.3991  0.0686 -1.8248
10298TIP3   OH252384   6.329   1.812   0.867 -0.1293 -0.2305  0.4708
10298TIP3    H152385   6.413   1.785   0.904  0.5860  0.9295 -0.2462
10298TIP3    H252386   6.332   1.907   0.867 -0.7851 -0.1759 -1.0154
10299TIP3   OH252387   0.784   3.919  14.630  0.1055 -0.0998  0.5330
10299TIP3    H152388   0.875   3.926  14.600 -0.3612  0.3572 -0.8852
10299TIP3    H252389   0.774   3.827  14.656  0.5272 -0.5890 -0.9271
10300TIP3   OH252390   4.789   0.236   0.826 -0.2504 -0.9842 -0.3791
10300TIP3    H152391   4.718   0.294   0.798 -1.1670 -1.0209  1.6811
10300TIP3    H252392   4.867   0.291   0.823 -0.9628  0.1525  0.7204
10301TIP3   OH252393   0.064   3.012   5.364  0.2789 -0.7976  0.1972
10301TIP3    H152394   0.023   3.031   5.280  0.4044  0.2969  0.3695
10301TIP3    H252395  -0.007   3.015   5.427  0.5240  0.8005  0.4525
10302TIP3   OH252396   5.514   3.331  13.987 -0.0727  0.0689 -0.4018
10302TIP3    H152397   5.526   3.303  13.897  1.0380 -0.5603 -0.0757
10302TIP3    H252398   5.503   3.250  14.037 -0.5095  0.4002  0.0515
10303TIP3   OH252399   5.563   5.803  13.636 -0.1753  0.0203  0.4348
10303TIP3    H152400   5.599   5.889  13.655  0.7193 -0.3487  0.4488
10303TIP3    H252401   5.636   5.742  13.649 -0.7756 -0.7392  0.3829
10304TIP3   OH252402   4.516   4.915   2.558 -0.2167  0.6519  0.2045
10304TIP3    H152403   4.507   4.984   2.492 -0.4254  2.3401  1.9192
10304TIP3    H252404   4.425   4.892   2.580 -0.1895 -1.2409 -1.3178
10305TIP3   OH252405   2.885   2.340   1.683 -0.0668 -0.0935  0.0507
10305TIP3    H152406   2.806   2.326   1.631 -0.2089 -1.2027  0.5427
10305TIP3    H252407   2.853   2.365   1.769  0.1178 -0.3862  0.2062
10306TIP3   OH252408   4.130   1.027   4.751  0.2984  0.4744 -0.5038
10306TIP3    H152409   4.197   1.093   4.771  0.7830 -0.2918  0.5143
10306TIP3    H252410   4.059   1.076   4.709  1.3222  1.3745 -1.2516
10307TIP3   OH252411   2.141   0.073   3.434  0.4998 -0.3513  0.2497
10307TIP3    H152412   2.057   0.116   3.419  0.5126 -0.3113  0.2921
10307TIP3    H252413   2.188   0.131   3.494  2.3420  1.9331 -3.0983
10308TIP3   OH252414   1.893   0.206   3.380  0.0248  0.2320  0.3610
10308TIP3    H152415   1.838   0.145   3.430  0.1287 -0.5966 -0.5071
10308TIP3    H252416   1.891   0.172   3.291  1.3172  0.6387  0.1603
10309TIP3   OH252417   4.516   1.824   1.087 -0.1220 -0.1631  0.4432
10309TIP3    H152418   4.585   1.791   1.144  0.0478  0.5303  0.6478
10309TIP3    H252419   4.505   1.916   1.112 -0.9604 -0.1996  0.2582
10310TIP3   OH252420   1.754   4.314  13.786 -0.5651 -0.2938 -0.5232
10310TIP3    H152421   1.782   4.397  13.824 -0.1329 -1.0043  0.7917
10310TIP3    H252422   1.681   4.337  13.729 -2.1304  0.7575  1.7167
10311TIP3   OH252423   1.386   2.398   1.938 -0.4450 -0.2868  0.1028
10311TIP3    H152424   1.413   2.307   1.924 -0.0719 -0.2877  0.8261
10311TIP3    H252425   1.291   2.392   1.950 -0.3883 -0.6147  0.4245
10312TIP3   OH252426   4.887   1.329   5.811 -0.1279  0.0221 -0.5344
10312TIP3    H152427   4.941   1.390   5.863 -1.9132  0.8218  0.4780
10312TIP3    H252428   4.933   1.321   5.728  1.7934  0.2781  0.4438
10313TIP3   OH252429   0.619   2.616   4.155  0.0376  0.4559  0.0307
10313TIP3    H152430   0.610   2.596   4.062 -0.2014 -1.1234  0.3585
10313TIP3    H252431   0.539   2.663   4.178 -1.3107 -1.6857  0.0155
10314TIP3   OH252432   5.691   1.390  13.573 -0.4917  0.0578 -0.4263
10314TIP3    H152433   5.714   1.322  13.510 -0.4603 -0.7396  0.4271
10314TIP3    H252434   5.773   1.438  13.587  0.1492 -1.3490  0.8917
10315TIP3   OH252435   0.108   2.680   6.004  0.0010 -0.8887 -0.0665
10315TIP3    H152436   0.018   2.706   6.024  0.7601  1.0557  1.1764
10315TIP3    H252437   0.135   2.742   5.936  0.1332 -2.0600 -1.1066
10316TIP3   OH252438   4.632   4.474   3.501  0.0490  0.0281 -0.1648
10316TIP3    H152439   4.663   4.562   3.479 -0.0222 -0.3754 -2.0501
10316TIP3    H252440   4.542   4.473   3.469 -0.0517 -0.6455  0.1376
10317TIP3   OH252441   3.618   5.153  14.126 -0.5607 -0.0320 -0.1883
10317TIP3    H152442   3.696   5.123  14.080  1.6529  1.7861  2.0420
10317TIP3    H252443   3.616   5.101  14.206 -0.9654  0.7027  0.2932
10318TIP3   OH252444   0.631   1.458   2.387  0.0924  0.0615 -0.3653
10318TIP3    H152445   0.613   1.454   2.293 -0.2048 -0.5328 -0.2896
10318TIP3    H252446   0.626   1.367   2.416 -1.7159  0.4122  0.5763
10319TIP3   OH252447   5.482   3.601   4.421  0.1734  0.0067  0.1281
10319TIP3    H152448   5.456   3.521   4.467  0.8302 -0.3634 -0.1289
10319TIP3    H252449   5.471   3.671   4.485  0.3880 -0.4062  0.6167
10320TIP3   OH252450   0.682   1.550   2.786 -0.6820 -0.0387  0.0626
10320TIP3    H152451   0.695   1.620   2.850 -1.2013 -2.0443  2.5691
10320TIP3    H252452   0.625   1.588   2.719  1.0846  2.6184 -0.0748
10321TIP3   OH252453   0.024   1.954   5.279  0.3800 -0.0031 -0.7687
10321TIP3    H152454   0.051   2.046   5.286 -2.0067  0.6367  1.9505
10321TIP3    H252455   0.084   1.907   5.338  0.0914  0.2508 -0.2603
10322TIP3   OH252456   3.576   1.374  16.339 -0.0666 -0.0136 -0.3031
10322TIP3    H152457   3.609   1.284  16.336 -0.7858 -0.2904  0.0282
10322TIP3    H252458   3.525   1.379  16.419 -2.8044 -0.2954 -1.9054
10323TIP3   OH252459   2.179   5.262  14.664  0.2147 -0.0512  0.6451
10323TIP3    H152460   2.109   5.288  14.605  0.9526 -0.7567 -0.5681
10323TIP3    H252461   2.141   5.270  14.752 -1.1224  0.3230  0.0467
10324TIP3   OH252462   1.868   2.830  12.566  0.2931  0.5355  0.3465
10324TIP3    H152463   1.946   2.778  12.547 -0.0023  0.0822  0.3603
10324TIP3    H252464   1.797   2.786  12.519  0.0591  0.9893  0.2691
10325TIP3   OH252465   2.321   5.188  17.122 -0.2108 -0.2618  0.0261
10325TIP3    H152466   2.289   5.098  17.130 -0.9845  0.0765  1.0269
10325TIP3    H252467   2.416   5.180  17.123 -0.2690 -1.0225  0.9623
10326TIP3   OH252468   2.830   5.906  11.036 -0.3107  0.1686 -0.3673
10326TIP3    H152469   2.924   5.908  11.056 -0.4978 -2.4507  1.2783
10326TIP3    H252470   2.827   5.887  10.942  0.7813  0.8304 -0.5613
10327TIP3   OH252471   0.963   1.193   5.086 -0.1832 -0.6127 -0.0329
10327TIP3    H152472   0.915   1.273   5.065  0.1072  0.1157  1.9048
10327TIP3    H252473   1.039   1.195   5.029 -0.2580  0.4118 -0.1146
10328TIP3   OH252474   2.368   1.716  11.512  0.7920  0.6726 -0.0840
10328TIP3    H152475   2.332   1.734  11.598  1.4079  1.2853  0.0490
10328TIP3    H252476   2.370   1.801  11.468  4.0958  1.1225  0.6879
10329TIP3   OH252477   6.243   0.653   5.752  0.1158 -0.0629  0.4770
10329TIP3    H152478   6.307   0.651   5.681  0.2342  0.7720  0.5555
10329TIP3    H252479   6.295   0.663   5.832 -0.1271  1.2498  0.4946
10330TIP3   OH252480   6.686   3.236   1.337  0.9696 -0.5777 -0.3080
10330TIP3    H152481   6.727   3.230   1.423  1.8056  0.2491 -0.6312
10330TIP3    H252482   6.606   3.183   1.344  1.8556 -1.8661  0.4757
10331TIP3   OH252483   0.224   6.544  13.155  0.4890  0.0850  0.1310
10331TIP3    H152484   0.179   6.629  13.158  1.9342  1.0464 -2.5599
10331TIP3    H252485   0.157   6.482  13.128 -0.8381  0.0472  3.0755
10332TIP3   OH252486   2.872   1.551   3.203  0.1089 -0.0519  0.2093
10332TIP3    H152487   2.964   1.574   3.216 -0.4251  0.8795  3.0906
10332TIP3    H252488   2.829   1.634   3.184 -0.1024 -0.5898 -1.9504
10333TIP3   OH252489   5.495   3.859   5.268 -0.1412 -0.1432  0.0587
10333TIP3    H152490   5.413   3.905   5.250  0.7331  0.6804 -2.2572
10333TIP3    H252491   5.552   3.926   5.305  0.3880  0.1029 -1.1338
10334TIP3   OH252492   2.924   5.476  13.352  0.5323  0.7510 -0.4269
10334TIP3    H152493   2.884   5.478  13.265  1.5334  0.0365 -0.9111
10334TIP3    H252494   2.882   5.402  13.396  1.3480 -0.0371 -0.9565
10335TIP3   OH252495   1.025   0.327  15.310  0.3285  0.4940 -0.3289
10335TIP3    H152496   0.998   0.280  15.231  1.4452 -0.0596 -0.4103
10335TIP3    H252497   1.025   0.261  15.379  1.5429  0.4343 -0.3625
10336TIP3   OH252498   3.142   3.617  14.739  0.2449  0.0007  0.3834
10336TIP3    H152499   3.079   3.620  14.667 -0.4383 -0.0342  0.9654
10336TIP3    H252500   3.088   3.605  14.818  0.7460  2.7222  1.2347
10337TIP3   OH252501   2.046   1.599   3.726 -0.1678  0.4070 -0.5282
10337TIP3    H152502   2.123   1.542   3.724  0.0038  0.6464 -1.0905
10337TIP3    H252503   1.989   1.564   3.658  0.2899  1.3696 -1.4400
10338TIP3   OH252504   4.640   4.957   4.956 -0.1872 -0.2293 -0.0136
10338TIP3    H152505   4.630   5.051   4.971  1.1690  0.1447 -1.1223
10338TIP3    H252506   4.620   4.917   5.040 -0.8159  1.0477  0.4801
10339TIP3   OH252507   6.554   6.018   4.585  0.1572 -0.6274 -0.4377
10339TIP3    H152508   6.520   6.045   4.670  1.4520  1.5169 -0.5202
10339TIP3    H252509   6.506   5.938   4.564 -0.9281 -0.6495  1.8190
10340TIP3   OH252510   3.571   1.019   1.018  0.0904 -0.3011 -0.1427
10340TIP3    H152511   3.520   1.090   1.057  1.6311  1.9541 -1.9454
10340TIP3    H252512   3.550   1.023   0.924  0.7099 -1.8081 -0.3700
10341TIP3   OH252513   3.294   1.896  14.780 -0.2161 -0.1754 -0.2572
10341TIP3    H152514   3.246   1.815  14.798  0.0994 -0.6828 -1.5791
10341TIP3    H252515   3.259   1.927  14.697  0.3623  0.5121 -0.2580
10342TIP3   OH252516   4.005   0.840   4.913 -0.1739  0.4985  0.2984
10342TIP3    H152517   4.068   0.768   4.921  0.4604  0.7892 -1.5864
10342TIP3    H252518   4.047   0.902   4.854 -1.5962  1.4552  0.2438
10343TIP3   OH252519   1.237   3.064   1.982 -0.2166 -0.0285 -0.0449
10343TIP3    H152520   1.204   3.009   2.053 -1.5334 -0.1378 -0.7156
10343TIP3    H252521   1.264   3.145   2.026  0.7387 -0.7727  0.8026
10344TIP3   OH252522   3.846   3.044   1.913 -0.6338 -0.3369 -0.0387
10344TIP3    H152523   3.782   3.072   1.978  1.5798  0.3841  1.9923
10344TIP3    H252524   3.860   3.120   1.858 -1.0956 -0.3252 -0.1440
10345TIP3   OH252525   0.838   3.405   6.363 -0.4217 -0.2954  0.2112
10345TIP3    H152526   0.788   3.487   6.366  0.4597  0.3035 -0.8886
10345TIP3    H252527   0.903   3.415   6.433 -0.2170  0.0129 -0.0210
10346TIP3   OH252528   1.616   5.484  17.001 -0.0654 -0.2084  0.8359
10346TIP3    H152529   1.663   5.402  16.991 -1.4036 -0.8674 -0.3394
10346TIP3    H252530   1.657   5.543  16.937  0.4773 -0.1475  1.2334
10347TIP3   OH252531   2.440   5.328   5.055  0.0744  0.3070  0.0018
10347TIP3    H152532   2.376   5.371   4.998 -0.3237 -0.2274  0.0364
10347TIP3    H252533   2.441   5.382   5.134 -1.3915 -0.4335  0.5750
10348TIP3   OH252534   1.518   5.277  15.492 -0.3033  0.3474  0.5180
10348TIP3    H152535   1.449   5.220  15.456 -0.3465  0.1468  0.9128
10348TIP3    H252536   1.503   5.275  15.586  1.5036 -1.3496  0.8226
10349TIP3   OH252537   1.683   3.942   0.475  0.0923 -0.3877 -0.5170
10349TIP3    H152538   1.647   3.905   0.395 -2.9716  0.5596  0.3066
10349TIP3    H252539   1.672   3.873   0.541  0.5680 -0.3870 -0.4341
10350TIP3   OH252540   4.503   4.240  12.651 -0.0087  0.3174  0.9518
10350TIP3    H152541   4.525   4.321  12.697  1.1437  0.9874 -0.6977
10350TIP3    H252542   4.554   4.172  12.696  0.8236  0.8943  0.8929
10351TIP3   OH252543   4.694   5.667   1.482  0.6362  0.0976  0.1381
10351TIP3    H152544   4.782   5.682   1.516  0.9956  2.4516 -1.5873
10351TIP3    H252545   4.643   5.741   1.513 -0.6144 -0.9397  0.6327
10352TIP3   OH252546   2.272   4.748  11.022 -0.0721  0.0363  0.1681
10352TIP3    H152547   2.205   4.816  11.024 -0.3745 -0.1972 -1.1614
10352TIP3    H252548   2.329   4.773  10.949  0.3419 -0.6470  0.2487
10353TIP3   OH252549   5.031   6.344   0.032 -0.2707  0.0276 -0.5037
10353TIP3    H152550   5.116   6.326   0.074 -0.6411 -1.1867 -0.2508
10353TIP3    H252551   4.982   6.392   0.098 -0.1548 -0.1888 -0.2575
10354TIP3   OH252552   4.662   0.215  13.291  0.4306 -0.5645 -0.1418
10354TIP3    H152553   4.696   0.235  13.204  4.3444  0.0319  1.3256
10354TIP3    H252554   4.713   0.139  13.320 -1.4393 -1.3491  1.3576
10355TIP3   OH252555   1.691   2.210   3.613  0.0704 -0.9737  0.9354
10355TIP3    H152556   1.724   2.120   3.617  0.2100 -0.9104  1.2270
10355TIP3    H252557   1.603   2.202   3.575  0.8538 -1.0305 -0.9783
10356TIP3   OH252558   0.927   3.489  15.954 -0.3908 -0.1670 -0.0875
10356TIP3    H152559   0.910   3.482  16.048 -0.8614  2.3581  0.0905
10356TIP3    H252560   0.923   3.399  15.922 -1.3635 -0.9775  2.1117
10357TIP3   OH252561   2.573   3.825  13.712 -0.3908 -0.4153  0.1401
10357TIP3    H152562   2.559   3.907  13.758  0.0396 -0.4129  0.2627
10357TIP3    H252563   2.524   3.760  13.763 -1.1027 -0.1627 -0.2048
10358TIP3   OH252564   3.710   6.683   1.905 -0.0534  0.5150 -0.1215
10358TIP3    H152565   3.643   6.664   1.840  0.4718  1.1801 -0.8755
10358TIP3    H252566   3.789   6.701   1.854  0.1792  1.8528  0.6613
10359TIP3   OH252567   5.221   3.288   4.418 -0.0034 -0.4265  0.1278
10359TIP3    H152568   5.309   3.270   4.384  1.5183  1.0830  2.9353
10359TIP3    H252569   5.206   3.380   4.399 -0.2368 -0.2374  1.2035
10360TIP3   OH252570   0.012   2.028   5.934  0.5095  0.5461 -0.4157
10360TIP3    H152571  -0.000   1.935   5.917  0.5630  0.4442  0.0852
10360TIP3    H252572   0.027   2.033   6.028  1.1674  0.9917 -0.5385
10361TIP3   OH252573   2.164   5.731  14.270  0.2866 -0.5288 -0.0897
10361TIP3    H152574   2.112   5.810  14.255 -0.8077 -1.1663  0.2483
10361TIP3    H252575   2.138   5.701  14.357 -0.5781 -2.1888 -0.8841
10362TIP3   OH252576   5.936   5.768  15.740  0.1714 -0.0270  0.0727
10362TIP3    H152577   5.966   5.686  15.780  2.5377  0.9330  0.4503
10362TIP3    H252578   5.971   5.836  15.797  1.6120  1.3260 -2.3037
10363TIP3   OH252579   4.243   0.354  14.829 -0.0474 -0.4825 -0.4673
10363TIP3    H152580   4.321   0.307  14.858  0.4063  0.6603  0.2607
10363TIP3    H252581   4.248   0.354  14.734  2.2894  1.7785 -0.4815
10364TIP3   OH252582   2.773   2.131   5.811  0.1191 -0.5613  0.3225
10364TIP3    H152583   2.833   2.059   5.830 -0.4998 -0.9196  0.9547
10364TIP3    H252584   2.762   2.177   5.894  1.9284  1.4170 -0.4261
10365TIP3   OH252585   2.852   2.559  15.624  0.0115  0.0000  0.4549
10365TIP3    H152586   2.899   2.600  15.697  2.4887 -1.8218  0.0154
10365TIP3    H252587   2.868   2.465  15.635  0.6638 -0.3202 -2.5210
10366TIP3   OH252588   1.888   6.756   5.623 -1.0021 -0.1775  0.2066
10366TIP3    H152589   1.918   6.715   5.705  0.1265 -0.5231 -0.3587
10366TIP3    H252590   1.812   6.704   5.597 -0.4340 -1.0592  0.2404
10367TIP3   OH252591   5.835   4.833   3.833  0.0950 -0.2423 -0.5097
10367TIP3    H152592   5.846   4.927   3.818 -0.0055 -0.4681 -2.1034
10367TIP3    H252593   5.905   4.811   3.895 -2.1532  1.5629  3.0445
10368TIP3   OH252594   5.330   1.568  11.989 -0.0474 -0.0664 -0.3163
10368TIP3    H152595   5.282   1.504  12.043  0.4183  0.4662  0.7697
10368TIP3    H252596   5.318   1.651  12.035  1.9038  0.0738  0.0029
10369TIP3   OH252597   4.327   2.666  17.015  0.2684 -0.5912 -0.0758
10369TIP3    H152598   4.244   2.648  16.971 -0.2251 -0.4028  0.7635
10369TIP3    H252599   4.316   2.633  17.104  0.7519  0.2678  0.3231
10370TIP3   OH252600   6.485   1.828  13.149  0.1050  0.0709 -0.6227
10370TIP3    H152601   6.518   1.847  13.237 -0.2750 -0.3939 -0.3769
10370TIP3    H252602   6.391   1.812  13.161  0.0221  0.1410 -1.1340
10371TIP3   OH252603   4.014   2.057  12.138  0.0213  0.1419  0.1663
10371TIP3    H152604   4.028   2.080  12.046 -1.6263  0.6838  0.0223
10371TIP3    H252605   4.013   2.141  12.184  1.3876 -0.1564  0.7916
10372TIP3   OH252606   5.085   1.562   2.442  0.3575 -0.2124  0.2801
10372TIP3    H152607   5.172   1.522   2.439  1.2461  1.5228  1.5398
10372TIP3    H252608   5.055   1.562   2.351  0.8974 -2.4112  0.0510
10373TIP3   OH252609   3.904   2.011   1.267 -0.1494 -0.2067 -0.4256
10373TIP3    H152610   3.980   1.954   1.252  0.5923  0.3706  0.9051
10373TIP3    H252611   3.934   2.097   1.237 -0.1048  0.1102  0.4965
10374TIP3   OH252612   2.836   0.044  15.336 -0.2535  0.0887  0.0869
10374TIP3    H152613   2.829  -0.032  15.394 -0.5811  1.9433  2.6365
10374TIP3    H252614   2.865   0.007  15.252 -0.0989 -2.7783  1.2766
10375TIP3   OH252615   1.523   0.483   3.849 -0.3429  0.6055  0.0507
10375TIP3    H152616   1.617   0.474   3.862 -0.1280  2.5538  0.2426
10375TIP3    H252617   1.485   0.469   3.936 -0.4738 -2.0319 -0.3477
10376TIP3   OH252618   3.952   0.057  13.981  0.0140  0.1875 -0.1444
10376TIP3    H152619   3.963   0.016  13.895 -1.0813  0.4436 -0.4122
10376TIP3    H252620   4.041   0.057  14.018  0.3447 -0.7779 -0.8762
10377TIP3   OH252621   5.330   4.654   0.936 -0.3739  0.2937 -0.8268
10377TIP3    H152622   5.397   4.587   0.921 -0.5277  0.3944 -2.0599
10377TIP3    H252623   5.352   4.691   1.022 -0.4938 -1.5658  0.0635
10378TIP3   OH252624   0.739   5.148   1.896 -0.0350  0.0138 -0.4065
10378TIP3    H152625   0.783   5.158   1.812 -0.9211  0.4729 -0.8299
10378TIP3    H252626   0.797   5.091   1.947  0.4798 -0.3258 -1.3469
10379TIP3   OH252627   6.405   2.986   4.009  0.2372  0.0584 -0.3076
10379TIP3    H152628   6.338   3.048   4.038  1.0788  1.1440 -0.5904
10379TIP3    H252629   6.457   2.969   4.087  0.2170 -0.0107 -0.3094
10380TIP3   OH252630   1.067   1.566  17.204 -0.0695 -0.0950 -0.3841
10380TIP3    H152631   1.124   1.518  17.144 -0.2608  0.5459 -1.1086
10380TIP3    H252632   1.087   1.658  17.187 -0.5483  0.1098  0.1234
10381TIP3   OH252633   0.302   1.150   3.534 -0.2529  0.1469  0.1930
10381TIP3    H152634   0.211   1.123   3.544 -0.4730  1.5295  2.4544
10381TIP3    H252635   0.299   1.225   3.474 -0.4595 -0.3640 -0.4516
10382TIP3   OH252636   4.376   5.821  11.520  0.1720  0.0621  0.4741
10382TIP3    H152637   4.320   5.749  11.492 -0.1255 -0.2631  1.8637
10382TIP3    H252638   4.315   5.888  11.552  0.4857  0.6288 -0.0690
10383TIP3   OH252639   1.445   0.722   0.176  0.1676  0.0644  0.2547
10383TIP3    H152640   1.513   0.657   0.191  1.2553  0.9931 -0.4449
10383TIP3    H252641   1.382   0.679   0.118  1.0460 -0.2653 -0.4719
10384TIP3   OH252642   2.561   6.536  13.751  0.2336 -0.0141 -0.2655
10384TIP3    H152643   2.615   6.459  13.734  1.9739  0.5742  2.0350
10384TIP3    H252644   2.610   6.585  13.817 -2.2312  1.5808  0.5052
10385TIP3   OH252645   1.531   3.131  13.834 -0.3075 -0.4817  0.0870
10385TIP3    H152646   1.483   3.107  13.754  0.9022 -2.2738 -0.1418
10385TIP3    H252647   1.566   3.218  13.814  0.3794 -1.0854 -1.5631
10386TIP3   OH252648   3.488   1.315   6.245  0.0680 -0.0551  0.4789
10386TIP3    H152649   3.512   1.389   6.300  0.8125  0.1720 -0.1308
10386TIP3    H252650   3.437   1.258   6.302 -0.7471  1.0446  0.8977
10387TIP3   OH252651   0.549   1.899  13.046 -0.1465  0.1812 -0.0142
10387TIP3    H152652   0.641   1.881  13.024 -0.3125  0.4952 -1.0427
10387TIP3    H252653   0.526   1.974  12.991 -0.7479  0.7053  0.9400
10388TIP3   OH252654   1.280   3.382   4.305 -0.3059  0.5339  0.0634
10388TIP3    H152655   1.361   3.417   4.342  0.1452 -1.0436  0.6054
10388TIP3    H252656   1.239   3.458   4.263 -0.0637  2.0445  2.3826
10389TIP3   OH252657   1.129   3.513   0.030 -0.0342  0.1462 -0.3917
10389TIP3    H152658   1.220   3.527   0.055 -0.3905  0.8150  0.5759
10389TIP3    H252659   1.129   3.517  -0.066  1.3168 -2.1585 -0.5676
10390TIP3   OH252660   1.178   1.462  14.431  0.7587 -0.1516  0.4046
10390TIP3    H152661   1.083   1.453  14.430  0.8561 -1.2522 -0.5540
10390TIP3    H252662   1.196   1.539  14.377  0.3189  1.5775  2.5781
10391TIP3   OH252663   0.309   4.524  13.378 -0.0350  0.0641  0.4981
10391TIP3    H152664   0.329   4.442  13.423 -2.1850 -0.1554  1.1704
10391TIP3    H252665   0.217   4.516  13.353 -1.3335  3.4319  3.3698
10392TIP3   OH252666   5.967   2.404  10.345  0.4947  0.1701 -0.2722
10392TIP3    H152667   5.979   2.393  10.439 -5.1456  1.3038  0.9894
10392TIP3    H252668   5.974   2.499  10.331 -0.3571  0.2060 -0.5449
10393TIP3   OH252669   5.901   2.756   1.725  0.3723 -0.1089 -0.7934
10393TIP3    H152670   5.940   2.680   1.769  0.1586  0.9744  1.4239
10393TIP3    H252671   5.807   2.746   1.739  0.4189  1.2778  0.9018
10394TIP3   OH252672   3.761   2.610   1.856 -0.1106  0.7669 -0.2532
10394TIP3    H152673   3.798   2.530   1.818  0.1382  0.8637 -0.2093
10394TIP3    H252674   3.815   2.628   1.933  0.8387  1.8762 -1.1450
10395TIP3   OH252675   5.104   4.806   3.713  0.7951  0.3005  0.4423
10395TIP3    H152676   5.032   4.747   3.690  0.9959  0.3731 -0.4069
10395TIP3    H252677   5.062   4.891   3.727  0.9061  0.8047 -1.9777
10396TIP3   OH252678   5.409   4.722  12.691  0.4611  0.3194  0.4128
10396TIP3    H152679   5.351   4.650  12.667 -0.2665  1.3231 -1.0369
10396TIP3    H252680   5.353   4.783  12.738  0.9988  0.0933  1.3564
10397TIP3   OH252681   6.082   3.599  11.456 -0.2141  0.5058 -0.1339
10397TIP3    H152682   6.003   3.653  11.459 -0.7531 -0.1740 -1.2489
10397TIP3    H252683   6.109   3.590  11.548 -1.9642  0.0104  0.3665
10398TIP3   OH252684   0.729   4.086   1.549  0.2266  0.0874 -0.0709
10398TIP3    H152685   0.796   4.020   1.529  1.4494  0.2748  2.8058
10398TIP3    H252686   0.753   4.161   1.496  2.1561  0.0138  0.5979
10399TIP3   OH252687   4.924   5.634  15.598 -0.3378  0.5951 -0.5053
10399TIP3    H152688   4.928   5.553  15.649  1.4307 -1.3768 -3.4159
10399TIP3    H252689   4.832   5.642  15.572 -0.4016 -1.0539 -0.8856
10400TIP3   OH252690   2.418   4.585   0.956  0.3804  0.4431 -0.3417
10400TIP3    H152691   2.420   4.495   0.925 -0.3177  0.7349 -1.2382
10400TIP3    H252692   2.507   4.618   0.940  1.0426 -0.4591  1.1995
10401TIP3   OH252693   1.053   4.586  14.385 -0.1785  0.3305  0.3953
10401TIP3    H152694   1.093   4.559  14.303  2.3967  0.7518  1.4193
10401TIP3    H252695   1.060   4.509  14.442  0.0291  0.6818  0.8582
10402TIP3   OH252696   6.573   1.233   0.574  0.0034 -0.0585  0.1278
10402TIP3    H152697   6.515   1.304   0.602 -0.6645 -0.9243  0.9858
10402TIP3    H252698   6.602   1.259   0.486 -0.7898  0.9272  0.1459
10403TIP3   OH252699   5.723   4.721  14.038  0.1521  0.5201  0.4520
10403TIP3    H152700   5.714   4.702  13.945  0.5967  1.6342  0.1638
10403TIP3    H252701   5.723   4.635  14.081  1.5023 -0.0784 -0.7015
10404TIP3   OH252702   0.710   3.474  15.281  0.3033 -0.0905 -0.4770
10404TIP3    H152703   0.773   3.413  15.320  1.3382  0.3343 -1.4618
10404TIP3    H252704   0.763   3.547  15.250 -0.8348  0.9505 -0.0625
10405TIP3   OH252705   6.514   2.756   4.388  0.0721  0.0500  0.4548
10405TIP3    H152706   6.539   2.778   4.299 -2.8358  2.6505  0.1041
10405TIP3    H252707   6.474   2.669   4.381  3.3120 -1.5506  0.0815
10406TIP3   OH252708   6.631   0.946   0.608 -0.1939  0.2797  0.4144
10406TIP3    H152709   6.589   0.927   0.524  1.9140 -0.7392 -0.4930
10406TIP3    H252710   6.598   1.033   0.632 -0.2777  0.9626 -1.8792
10407TIP3   OH252711   5.713   3.097  17.036  0.0719  0.8769  0.4171
10407TIP3    H152712   5.750   3.025  17.088  1.8396 -0.3047 -2.2818
10407TIP3    H252713   5.739   3.176  17.083  1.2973 -0.1281  1.5025
10408TIP3   OH252714   4.147   0.661   3.017 -0.5130 -0.3320  0.1022
10408TIP3    H152715   4.077   0.605   3.050 -2.2853  0.9527 -1.2695
10408TIP3    H252716   4.115   0.750   3.030  1.4897  0.3781  0.6475
10409TIP3   OH252717   3.687   0.045   5.335  0.4169  0.0902  0.0471
10409TIP3    H152718   3.608   0.079   5.292 -0.4641 -0.7601  0.9321
10409TIP3    H252719   3.654  -0.019   5.399  1.8087 -0.0743  0.6433
10410TIP3   OH252720   6.015   0.812  14.763  0.2183 -0.2938 -0.1039
10410TIP3    H152721   6.007   0.906  14.746  0.1239  0.2612  2.5606
10410TIP3    H252722   6.110   0.797  14.770  0.3076 -0.7089 -1.8469
10411TIP3   OH252723   1.157   0.544  12.636 -0.2740 -0.1383  0.1990
10411TIP3    H152724   1.140   0.450  12.632 -0.8172 -0.0855  1.1632
10411TIP3    H252725   1.081   0.584  12.594  0.1207 -0.1343 -0.5286
10412TIP3   OH252726   3.140   4.950  10.507 -0.3069 -0.2649  0.2130
10412TIP3    H152727   3.231   4.977  10.519 -0.1027 -1.5210  1.9698
10412TIP3    H252728   3.144   4.856  10.494 -1.2087 -0.0151 -2.7012
10413TIP3   OH252729   2.137   4.955  14.057  0.4135 -0.3859  0.1976
10413TIP3    H152730   2.228   4.967  14.085  0.4295 -1.7147  0.7698
10413TIP3    H252731   2.113   5.039  14.018  1.9617 -0.0947 -0.1912
10414TIP3   OH252732   3.258   5.382  12.635 -0.5729  0.1829  0.3715
10414TIP3    H152733   3.168   5.405  12.612 -0.9474 -2.2874 -1.0752
10414TIP3    H252734   3.259   5.376  12.730 -2.7143 -2.1699  0.3566
10415TIP3   OH252735   5.375   1.883   4.727 -0.3218  0.0020  0.3188
10415TIP3    H152736   5.409   1.798   4.755 -0.6994 -0.4945 -0.6872
10415TIP3    H252737   5.315   1.909   4.798  1.1358  0.2959  1.4866
10416TIP3   OH252738   5.416   4.847   6.227  0.8123 -0.7077  0.2021
10416TIP3    H152739   5.480   4.908   6.190  0.7332 -1.1656 -0.7017
10416TIP3    H252740   5.449   4.829   6.315  1.8285 -0.7914 -0.1824
10417TIP3   OH252741   3.111   6.721  11.619  0.6800 -0.7164 -0.4170
10417TIP3    H152742   3.126   6.659  11.692 -1.3114  0.0894  0.7614
10417TIP3    H252743   3.108   6.665  11.541  2.4009 -1.6652  0.1336
10418TIP3   OH252744   4.469   3.483   5.521  0.1864  0.1911  0.1562
10418TIP3    H152745   4.469   3.575   5.549 -0.0787  0.1443  0.3063
10418TIP3    H252746   4.395   3.475   5.462 -0.1345 -0.0604  0.5859
10419TIP3   OH252747   4.206   6.225  12.197 -0.1601  0.2045 -0.4935
10419TIP3    H152748   4.283   6.173  12.175 -0.7958 -0.7257 -0.5610
10419TIP3    H252749   4.132   6.165  12.187 -0.6189 -0.0731  3.2616
10420TIP3   OH252750   0.732   5.326  15.643 -0.9733  0.5245  0.0269
10420TIP3    H152751   0.771   5.263  15.703  2.4374  1.7498 -0.7134
10420TIP3    H252752   0.746   5.289  15.556 -1.5804  0.9812 -0.2784
10421TIP3   OH252753   2.065   2.973  17.163  0.3983  0.2896 -0.0179
10421TIP3    H152754   2.082   2.987  17.257 -0.1828 -0.0497  0.1372
10421TIP3    H252755   2.037   2.882  17.157 -1.0471  0.7314 -0.3148
10422TIP3   OH252756   4.422   2.007   1.368  0.2859  0.0535 -0.4661
10422TIP3    H152757   4.364   2.004   1.444 -0.9843 -1.3958 -1.4448
10422TIP3    H252758   4.510   2.017   1.405 -0.5065  1.9013  1.0659
10423TIP3   OH252759   0.665   6.775   1.401 -0.2263 -0.0340  0.8238
10423TIP3    H152760   0.718   6.713   1.352 -0.4354 -0.3289  0.9671
10423TIP3    H252761   0.598   6.721   1.444 -1.2654  0.4303 -0.1496
10424TIP3   OH252762   1.763   6.224   4.699 -0.2639 -0.4626 -0.1501
10424TIP3    H152763   1.750   6.260   4.787  1.1143 -2.7176  1.0724
10424TIP3    H252764   1.857   6.207   4.694  0.0056  1.2466 -2.8054
10425TIP3   OH252765   2.706   6.290  13.715  0.4117 -0.0334 -0.0356
10425TIP3    H152766   2.799   6.283  13.697  0.5071  2.1215 -0.6452
10425TIP3    H252767   2.664   6.278  13.630  0.1780 -0.3335  0.1216
10426TIP3   OH252768   3.118   2.722   0.465  0.1250 -0.1112  0.6223
10426TIP3    H152769   3.143   2.686   0.550  1.3656 -0.0336  0.3096
10426TIP3    H252770   3.064   2.798   0.487 -3.1554 -2.4173  1.2883
10427TIP3   OH252771   2.901   3.423  11.684 -0.5351 -0.1044  0.3085
10427TIP3    H152772   2.931   3.448  11.597 -0.8606 -0.4206  0.0977
10427TIP3    H252773   2.812   3.459  11.690 -0.2041  0.6473  0.8430
10428TIP3   OH252774   0.645   0.141  11.851 -0.4825  0.3860 -0.3591
10428TIP3    H152775   0.713   0.117  11.913 -0.7612  0.2051 -0.1174
10428TIP3    H252776   0.691   0.152  11.768  0.0999  1.9819  0.1432
10429TIP3   OH252777   5.744   1.648   3.983  0.4951 -0.9622 -0.3690
10429TIP3    H152778   5.810   1.662   3.916  1.3586  0.0760  0.6526
10429TIP3    H252779   5.758   1.558   4.014  0.0764 -1.4493 -1.5541
10430TIP3   OH252780   6.564   5.003  11.673  0.8590 -0.3441 -0.1022
10430TIP3    H152781   6.658   4.998  11.690  1.1959  0.0056 -1.7036
10430TIP3    H252782   6.523   4.986  11.758  2.3534 -0.9599  0.5233
10431TIP3   OH252783   5.188   6.408   5.971  0.9617 -0.1810  0.0021
10431TIP3    H152784   5.175   6.492   5.927  1.3959 -0.7443 -1.2487
10431TIP3    H252785   5.101   6.367   5.972  0.4016  0.9324  2.0787
10432TIP3   OH252786   4.877   6.523  16.454  0.4914 -0.2098  0.0457
10432TIP3    H152787   4.969   6.501  16.445  0.0182 -2.4718  0.1855
10432TIP3    H252788   4.860   6.517  16.548 -0.1366 -1.5063 -0.1237
10433TIP3   OH252789   0.586   4.149   4.822 -0.5781  0.6784  0.1929
10433TIP3    H152790   0.659   4.110   4.773  0.1126  1.2110  0.7636
10433TIP3    H252791   0.509   4.103   4.791  0.0358 -0.0932 -0.2393
10434TIP3   OH252792   6.327   4.492   1.842 -0.1312  0.2588  0.0370
10434TIP3    H152793   6.367   4.407   1.824  0.6934  0.8700 -1.1755
10434TIP3    H252794   6.368   4.551   1.779 -2.6350  1.0346 -0.9745
10435TIP3   OH252795   1.883   1.844   4.996 -0.2469  0.4580 -0.0100
10435TIP3    H152796   1.949   1.863   4.930  1.3963 -0.4586  1.3137
10435TIP3    H252797   1.880   1.923   5.051 -1.2678  1.0279 -0.8352
10436TIP3   OH252798   4.987   0.408   2.302  0.1228 -0.0521  0.3865
10436TIP3    H152799   5.052   0.448   2.244 -0.4468 -1.2355 -1.1175
10436TIP3    H252800   5.038   0.351   2.359  0.6265  0.7119  0.7236
10437TIP3   OH252801   5.584   2.777   4.692 -0.0966 -0.3323  0.4052
10437TIP3    H152802   5.616   2.839   4.627 -0.8830 -0.9981 -0.6457
10437TIP3    H252803   5.535   2.712   4.642 -1.1050 -0.6234  1.7069
10438TIP3   OH252804   4.584   2.061  12.259  0.7368 -0.4801  0.2817
10438TIP3    H152805   4.506   2.100  12.219  0.0769 -0.3681  1.6257
10438TIP3    H252806   4.557   2.040  12.348  1.9277 -1.4650  0.4275
10439TIP3   OH252807   1.902   2.143   4.041  1.1475  0.2730 -0.2662
10439TIP3    H152808   1.956   2.109   3.969 -0.7679 -2.0350 -0.7557
10439TIP3    H252809   1.948   2.115   4.120 -0.0959 -3.4210 -0.6544
10440TIP3   OH252810   3.058   2.569  15.088 -0.4459  0.2522  0.6965
10440TIP3    H152811   3.069   2.478  15.059  1.7100 -0.7079  3.9743
10440TIP3    H252812   2.967   2.590  15.068 -0.8292 -2.3613 -0.7697
10441TIP3   OH252813   5.724   4.528   2.302  0.2965 -0.1015  0.4313
10441TIP3    H152814   5.738   4.540   2.396 -0.3022  2.2947  0.2886
10441TIP3    H252815   5.804   4.560   2.261 -0.0908  0.4306  0.0762
10442TIP3   OH252816   5.767   0.478   4.180  0.3199  0.2353  0.3174
10442TIP3    H152817   5.779   0.548   4.116  0.8737  0.0366  0.1974
10442TIP3    H252818   5.738   0.523   4.260 -1.1292  0.4029 -0.2772
10443TIP3   OH252819   2.720   0.375  13.172  0.5891 -0.2389  0.1890
10443TIP3    H152820   2.637   0.355  13.127  0.7721 -0.9155  0.1329
10443TIP3    H252821   2.714   0.468  13.193 -0.2275 -0.3019  0.2709
10444TIP3   OH252822   5.357   0.201   0.716  0.2251  0.4855  0.1167
10444TIP3    H152823   5.398   0.170   0.635 -1.6527  2.4517 -1.7030
10444TIP3    H252824   5.284   0.140   0.729  0.6957 -0.0035  0.5374
10445TIP3   OH252825   0.571   3.498   2.263  0.3420 -0.1872 -0.0460
10445TIP3    H152826   0.475   3.495   2.257  0.3966 -1.0243 -0.7602
10445TIP3    H252827   0.601   3.438   2.194  1.3596 -0.7445  0.8450
10446TIP3   OH252828   2.423   3.457  14.697  0.0504 -0.0021  0.0040
10446TIP3    H152829   2.446   3.364  14.687 -1.5144 -0.2371 -2.2280
10446TIP3    H252830   2.497   3.504  14.659  0.1822 -0.4042 -0.2420
10447TIP3   OH252831   2.403   0.640   2.144 -0.5033  0.2519 -0.3127
10447TIP3    H152832   2.410   0.733   2.166 -0.5831  0.1147  0.3158
10447TIP3    H252833   2.318   0.614   2.178 -1.5620  0.4852 -2.5727
10448TIP3   OH252834   1.475   3.800   1.220  0.1617 -0.4782 -0.2720
10448TIP3    H152835   1.542   3.733   1.233 -0.2301 -0.4142  2.6897
10448TIP3    H252836   1.524   3.883   1.215  0.4299 -0.6393 -0.3305
10449TIP3   OH252837   0.155   5.163  15.089 -0.0840  0.1272  0.3027
10449TIP3    H152838   0.168   5.138  14.998 -0.0308  0.6613  0.1637
10449TIP3    H252839   0.104   5.243  15.085  2.3893  1.8262  0.6248
10450TIP3   OH252840   3.153   3.322   5.957  0.5667  0.4930  0.1639
10450TIP3    H152841   3.088   3.283   5.898  1.4325  0.4255 -0.7769
10450TIP3    H252842   3.123   3.299   6.045 -0.0682 -0.4807 -0.2937
10451TIP3   OH252843   1.556   6.025  16.672  0.7705 -0.3239 -0.1782
10451TIP3    H152844   1.508   6.080  16.609  0.6763 -0.8818 -0.5967
10451TIP3    H252845   1.618   6.085  16.713 -0.9002  0.6583  1.0592
10452TIP3   OH252846   1.560   6.271  12.823 -0.2122 -0.4370 -0.1868
10452TIP3    H152847   1.538   6.260  12.915  0.6456 -0.7829 -0.0161
10452TIP3    H252848   1.567   6.182  12.789  0.4108 -0.3324 -0.3478
10453TIP3   OH252849   6.465   1.047   2.389 -0.1645  0.1348  0.2372
10453TIP3    H152850   6.468   1.024   2.482 -0.7586 -1.2817 -0.0749
10453TIP3    H252851   6.376   1.082   2.377 -0.7232 -1.3729 -0.1561
10454TIP3   OH252852   2.922   2.784  14.362  0.3700 -0.1692  0.3796
10454TIP3    H152853   2.956   2.873  14.352  1.4519 -0.4990  0.9461
10454TIP3    H252854   2.982   2.730  14.312  0.2294 -0.6796  0.7557
10455TIP3   OH252855   2.942   6.028   4.542  0.0123  0.2981  0.2680
10455TIP3    H152856   2.891   5.953   4.572 -0.7164  1.0330  0.8800
10455TIP3    H252857   3.033   5.996   4.540 -0.4942 -1.2371 -1.4983
10456TIP3   OH252858   2.229   3.160  13.465  0.2630 -0.3790 -0.4522
10456TIP3    H152859   2.212   3.066  13.473 -1.1730 -0.0079  1.6406
10456TIP3    H252860   2.144   3.198  13.443  0.4128  0.5879  0.5238
10457TIP3   OH252861   4.719   1.946   2.093 -0.0950 -0.6804 -0.4279
10457TIP3    H152862   4.737   2.036   2.120 -0.6239 -0.4365 -0.8561
10457TIP3    H252863   4.639   1.922   2.141  0.3735 -1.1361  0.1407
10458TIP3   OH252864   3.936   1.538  16.005 -0.3538  0.2371  0.5000
10458TIP3    H152865   3.983   1.494  16.076 -0.1257 -0.0406  0.1740
10458TIP3    H252866   3.893   1.468  15.957  0.1457  0.3496 -0.1226
10459TIP3   OH252867   3.295   2.311  11.431 -0.1470  0.2417  0.1130
10459TIP3    H152868   3.307   2.368  11.507  0.4789  2.7857 -1.7726
10459TIP3    H252869   3.383   2.285  11.406 -0.1027  1.4479 -1.1269
10460TIP3   OH252870   6.309   2.127  14.473 -0.1362  0.2190  0.1652
10460TIP3    H152871   6.385   2.088  14.516 -0.7048 -0.1833  0.8368
10460TIP3    H252872   6.247   2.055  14.463 -0.2229  0.4247 -0.8659
10461TIP3   OH252873   3.967   5.535   5.368  0.9287 -0.1949  0.2721
10461TIP3    H152874   4.046   5.588   5.356  0.7990  0.0719  0.5777
10461TIP3    H252875   3.895   5.598   5.362  0.6134 -0.6446 -1.6506
10462TIP3   OH252876   3.391   1.013   3.845  0.2133 -0.3763  0.3194
10462TIP3    H152877   3.436   0.956   3.907 -0.8624 -1.1391  0.4194
10462TIP3    H252878   3.299   1.007   3.869  0.0554  1.3930  0.3127
10463TIP3   OH252879   4.598   4.100   4.728 -0.0528  0.3659 -0.7422
10463TIP3    H152880   4.511   4.121   4.762  1.0420  0.8787  2.0232
10463TIP3    H252881   4.623   4.019   4.773  1.1042  0.5017 -1.0929
10464TIP3   OH252882   4.050   5.262  16.884 -0.1312  0.4091  0.3421
10464TIP3    H152883   4.037   5.207  16.807 -0.4865 -0.1832  0.8220
10464TIP3    H252884   4.090   5.204  16.948 -0.2973  0.7710  0.7743
10465TIP3   OH252885   5.483   1.276   1.795  0.1946 -0.1817  0.2487
10465TIP3    H152886   5.498   1.256   1.888  0.8384 -1.2636 -0.0639
10465TIP3    H252887   5.450   1.366   1.795  2.0550  0.5619  1.3960
10466TIP3   OH252888   0.081   5.843   4.190 -0.3741  0.9023  0.1178
10466TIP3    H152889   0.102   5.816   4.100  1.6849  0.4462  0.6923
10466TIP3    H252890  -0.002   5.799   4.208 -0.3043  0.1499 -1.2054
10467TIP3   OH252891   2.205   0.100  16.275 -0.0477 -0.2992 -0.7018
10467TIP3    H152892   2.270   0.076  16.209 -1.0133 -1.1949 -1.3609
10467TIP3    H252893   2.123   0.107  16.226 -0.1876  2.6993 -0.2727
10468TIP3   OH252894   1.419   2.652  14.451 -0.0047  0.0092 -0.0087
10468TIP3    H152895   1.413   2.561  14.423 -1.5537  0.3950 -0.9926
10468TIP3    H252896   1.427   2.703  14.370 -1.3195  0.8997  0.3929
10469TIP3   OH252897   4.288   1.154   0.806 -0.0333  0.0218  0.0143
10469TIP3    H152898   4.382   1.173   0.814  0.0035  0.0862 -0.5278
10469TIP3    H252899   4.265   1.112   0.889  0.7094 -0.9499 -0.2542
10470TIP3   OH252900   6.273   0.290  11.222  0.0468  0.1551 -0.5744
10470TIP3    H152901   6.281   0.199  11.192 -1.6035 -1.1745  2.5354
10470TIP3    H252902   6.179   0.310  11.216  0.4520  1.9205 -1.7615
10471TIP3   OH252903   3.294   5.343  13.333  0.1729 -0.7423  0.5158
10471TIP3    H152904   3.325   5.266  13.285 -2.4946 -1.2616 -0.5225
10471TIP3    H252905   3.351   5.348  13.409  1.6521 -2.5777 -0.3911
10472TIP3   OH252906   0.571   3.098   0.648 -0.3257 -0.4972 -0.0562
10472TIP3    H152907   0.642   3.162   0.642 -1.2016  0.5007 -0.0026
10472TIP3    H252908   0.610   3.017   0.615  0.9712 -0.0929  0.3903
10473TIP3   OH252909   3.409   5.286  16.744 -0.5377  0.0820 -0.1201
10473TIP3    H152910   3.428   5.340  16.667 -1.1510  0.1927 -0.1978
10473TIP3    H252911   3.366   5.208  16.708  0.1050 -0.3441  0.0175
10474TIP3   OH252912   3.220   5.672  11.241 -0.7518  0.2573 -0.2024
10474TIP3    H152913   3.218   5.667  11.336  0.5608 -0.7281 -0.2077
10474TIP3    H252914   3.181   5.590  11.211 -0.0949  0.0449 -0.4948
10475TIP3   OH252915   1.613   4.217  12.528 -0.1934 -0.2662  0.3077
10475TIP3    H152916   1.550   4.245  12.594 -0.1293 -0.4704  0.4539
10475TIP3    H252917   1.676   4.163  12.575  0.4691  0.4776  0.2921
10476TIP3   OH252918   2.136   4.443  17.058  0.1250  0.1818 -0.2456
10476TIP3    H152919   2.061   4.419  17.112 -0.6346  1.5579 -0.6271
10476TIP3    H252920   2.207   4.458  17.120 -0.3401  0.3258  0.2567
10477TIP3   OH252921   2.882   1.895   0.105 -0.2177  0.4175  0.4765
10477TIP3    H152922   2.904   1.916   0.014 -0.4996  2.0320  0.7402
10477TIP3    H252923   2.789   1.918   0.113  0.1169  1.5308  1.4776
10478TIP3   OH252924   5.024   4.346  15.058 -0.3686  0.4929 -0.0050
10478TIP3    H152925   4.972   4.303  15.126 -1.0386  0.8711 -0.2699
10478TIP3    H252926   5.043   4.433  15.094  0.5704  0.1674  0.3257
10479TIP3   OH252927   0.857   0.905   4.153  0.3425 -0.2881  0.3014
10479TIP3    H152928   0.872   0.998   4.136  0.6845 -0.5802 -1.1254
10479TIP3    H252929   0.944   0.868   4.163  0.3308 -0.7601 -1.0398
10480TIP3   OH252930   1.449   5.400  15.042  0.0544  0.5667 -0.2664
10480TIP3    H152931   1.465   5.308  15.025 -0.3566  0.6329 -1.0687
10480TIP3    H252932   1.507   5.447  14.982  1.1077  0.8657  0.9206
10481TIP3   OH252933   3.550   1.359   3.140 -0.1989 -0.0627  0.3149
10481TIP3    H152934   3.517   1.283   3.092  0.0445  1.1145 -1.8474
10481TIP3    H252935   3.626   1.326   3.187  0.9174 -0.8804 -1.9034
10482TIP3   OH252936   3.011   4.853   0.484  0.0004 -0.7744 -0.1642
10482TIP3    H152937   2.963   4.806   0.552 -2.2510 -0.2690 -1.2877
10482TIP3    H252938   2.944   4.907   0.442  2.0325  1.7948 -0.3381
10483TIP3   OH252939   3.611   5.810  14.671 -0.4748 -0.1686  0.0445
10483TIP3    H152940   3.608   5.716  14.655  0.4499 -0.1620 -0.2549
10483TIP3    H252941   3.694   5.838  14.631 -0.5926  0.7176  0.4000
10484TIP3   OH252942   6.286   0.705  12.361  0.3193  0.3282 -0.1791
10484TIP3    H152943   6.280   0.784  12.414 -0.6241  0.9680 -1.1941
10484TIP3    H252944   6.196   0.685  12.336  0.4146 -1.6882  0.8967
10485TIP3   OH252945   3.271   2.229   0.129 -1.1908  0.3071  0.2839
10485TIP3    H152946   3.265   2.168   0.056 -1.4744  0.6930 -0.0237
10485TIP3    H252947   3.356   2.211   0.169 -0.7434  0.5340 -0.5444
10486TIP3   OH252948   1.725   1.563  11.269  0.0712 -0.1866 -0.0140
10486TIP3    H152949   1.807   1.525  11.299 -0.3668  0.1357  1.6673
10486TIP3    H252950   1.740   1.658  11.272 -0.2618 -0.1320  0.0019
10487TIP3   OH252951   3.590   0.639  15.990  0.5706 -0.0174 -0.1594
10487TIP3    H152952   3.519   0.697  16.015  0.6266 -0.6096  1.5423
10487TIP3    H252953   3.652   0.643  16.064  1.9832 -0.0133 -1.3025
10488TIP3   OH252954   6.465   5.367   3.374 -0.5954  0.0308 -0.5317
10488TIP3    H152955   6.431   5.329   3.294 -1.6621 -2.1699  0.8898
10488TIP3    H252956   6.559   5.348   3.372 -0.3947  1.0093 -1.7407
10489TIP3   OH252957   1.437   5.759  17.090  0.1553  0.1606  0.2333
10489TIP3    H152958   1.398   5.671  17.087 -0.4960  0.4410  0.1543
10489TIP3    H252959   1.480   5.769  17.005 -1.2722  0.5671 -0.4857
10490TIP3   OH252960   3.416   2.933   0.826 -0.1160 -0.5907  0.1510
10490TIP3    H152961   3.347   2.904   0.885 -0.2791  2.3783  1.6106
10490TIP3    H252962   3.485   2.965   0.884  1.1508 -0.5407 -1.3067
10491TIP3   OH252963   0.201   3.507  16.581  0.1877  0.3493  0.3055
10491TIP3    H152964   0.279   3.511  16.526  0.2009  1.6881  0.3976
10491TIP3    H252965   0.149   3.584  16.556 -0.8370 -0.2082  0.6444
10492TIP3   OH252966   0.955   2.456  13.377  0.6292  0.1269 -0.6300
10492TIP3    H152967   0.965   2.373  13.330  1.3661 -0.2661  0.1950
10492TIP3    H252968   1.022   2.453  13.445  0.2105  1.1046 -0.1615
10493TIP3   OH252969   4.258   1.401   4.568  0.5998 -0.2461  0.4291
10493TIP3    H152970   4.300   1.429   4.649 -1.2433  0.3767  1.2132
10493TIP3    H252971   4.294   1.459   4.501  1.0862  0.1637  1.0401
10494TIP3   OH252972   2.166   6.147   0.236  0.5431 -0.3169 -0.7053
10494TIP3    H152973   2.167   6.157   0.331  2.2896 -0.3524 -0.6887
10494TIP3    H252974   2.130   6.230   0.203  3.2039  1.1827 -0.1081
10495TIP3   OH252975   0.646   4.907  16.278  0.6507  0.0351 -0.1186
10495TIP3    H152976   0.739   4.927  16.264  0.3743  0.7915 -1.0137
10495TIP3    H252977   0.612   4.983  16.326  0.2007  0.4327 -1.0421
10496TIP3   OH252978   1.662   2.394  14.725 -0.1859  0.3509  0.4739
10496TIP3    H152979   1.665   2.475  14.675  0.6764  0.6605  1.0113
10496TIP3    H252980   1.734   2.341  14.689 -0.9764 -0.3496 -0.1375
10497TIP3   OH252981   6.338   5.206   0.790  0.1646 -0.3716 -0.2029
10497TIP3    H152982   6.312   5.136   0.729 -0.9459 -0.1724  0.0323
10497TIP3    H252983   6.267   5.211   0.853  0.5137  0.5863  0.1272
10498TIP3   OH252984   0.311   3.122   5.206 -0.5536 -0.3560 -0.1503
10498TIP3    H152985   0.234   3.132   5.263 -0.8856  0.9135 -0.7775
10498TIP3    H252986   0.372   3.069   5.257 -1.2094 -0.0135  1.0319
10499TIP3   OH252987   4.988   3.671   1.846  0.1366  0.3059 -0.6152
10499TIP3    H152988   4.986   3.765   1.824  1.5916  0.3946 -0.4880
10499TIP3    H252989   4.981   3.627   1.761 -2.0449  0.4615 -0.5698
10500TIP3   OH252990   4.970   1.712   5.159 -0.2549 -0.0977 -0.3656
10500TIP3    H152991   5.050   1.724   5.107 -0.8069  1.0448 -0.9863
10500TIP3    H252992   4.916   1.654   5.106  0.1518 -0.8980  0.0694
10501TIP3   OH252993   1.993   2.528  14.746  0.4824  0.7871  0.5331
10501TIP3    H152994   1.991   2.440  14.709  0.1515  0.1948  1.9212
10501TIP3    H252995   1.908   2.566  14.721 -1.2226 -0.8001  3.3742
10502TIP3   OH252996   0.942   0.468   0.033  0.1455 -0.5038  0.0150
10502TIP3    H152997   0.906   0.380   0.029  0.6061 -0.6902 -0.1333
10502TIP3    H252998   0.871   0.524   0.002  0.4167 -1.0036 -1.6088
10503TIP3   OH252999   5.438   4.233  11.971  0.0773 -0.4555 -0.2341
10503TIP3    H153000   5.370   4.263  12.032  0.5444  1.3220 -0.5256
10503TIP3    H253001   5.390   4.209  11.892 -0.3076 -0.1433 -0.1002
10504TIP3   OH253002   2.163   2.049  13.501 -1.1777  0.1675 -0.2484
10504TIP3    H153003   2.236   2.013  13.451 -0.5799 -0.7403  1.1977
10504TIP3    H253004   2.161   2.142  13.479 -0.5053 -0.0828 -1.3960
10505TIP3   OH253005   2.184   4.132   1.161 -0.4772 -0.1966  0.3541
10505TIP3    H153006   2.158   4.079   1.236 -0.7615  0.2037  0.5424
10505TIP3    H253007   2.107   4.134   1.105 -0.2860 -0.4399  0.0829
10506TIP3   OH253008   3.529   1.364  11.715 -0.3245 -0.3211  0.0561
10506TIP3    H153009   3.569   1.281  11.687 -1.7973 -1.6211  1.5882
10506TIP3    H253010   3.485   1.343  11.797 -0.0851  2.2035  0.9275
10507TIP3   OH253011   5.759   0.372   0.439 -0.0596 -0.0755 -0.7258
10507TIP3    H153012   5.852   0.390   0.423 -0.2133  0.0398 -1.5192
10507TIP3    H253013   5.729   0.448   0.489  0.5075 -0.5983  0.4529
10508TIP3   OH253014   1.766   1.409  15.092 -0.1262  0.6530  0.0299
10508TIP3    H153015   1.851   1.450  15.106  0.2715 -0.2249  0.2977
10508TIP3    H253016   1.764   1.388  14.999  0.7874 -1.0557  0.3539
10509TIP3   OH253017   5.008   5.393  14.235  0.0876  0.3790  0.7413
10509TIP3    H153018   4.958   5.471  14.211  0.2611  0.4661  0.6634
10509TIP3    H253019   5.075   5.425  14.295  0.9052  0.4906 -0.1998
10510TIP3   OH253020   5.915   5.137   3.638  0.2749  0.9292  0.3667
10510TIP3    H153021   5.956   5.185   3.709  0.6340 -0.0842  0.8625
10510TIP3    H253022   5.951   5.176   3.558  1.0254  1.0770  0.7725
10511TIP3   OH253023   3.336   4.504  16.502  0.1663 -0.0405 -0.3503
10511TIP3    H153024   3.406   4.568  16.508  0.1944 -0.1372  0.4536
10511TIP3    H253025   3.256   4.556  16.491  0.0420  0.2078  1.4975
10512TIP3   OH253026   0.701   0.395   4.545 -0.1043  0.2536 -0.6015
10512TIP3    H153027   0.627   0.334   4.537  1.7914 -2.1117 -1.3303
10512TIP3    H253028   0.681   0.465   4.484 -1.4113 -0.7214 -1.3455
10513TIP3   OH253029   2.050   5.430  12.485  0.2490 -0.4687 -0.1477
10513TIP3    H153030   2.131   5.386  12.458 -1.5845 -2.3843 -3.2578
10513TIP3    H253031   2.030   5.490  12.413 -1.3124 -0.3796  0.3209
10514TIP3   OH253032   3.517   2.633  16.238 -0.1411 -0.3919 -0.7808
10514TIP3    H153033   3.562   2.676  16.165  1.4534 -2.6536 -1.2443
10514TIP3    H253034   3.577   2.563  16.265 -1.1173 -0.2611  2.0825
10515TIP3   OH253035   3.864   4.531  12.848 -0.3600  0.0950  0.0721
10515TIP3    H153036   3.883   4.552  12.757 -0.8650  1.7515  0.3219
10515TIP3    H253037   3.932   4.468  12.873 -1.8709 -2.7373 -2.2432
10516TIP3   OH253038   1.658   2.695   5.850  0.3066  0.3145  0.3766
10516TIP3    H153039   1.574   2.702   5.806  0.4971 -1.4496 -0.3610
10516TIP3    H253040   1.681   2.785   5.875 -1.8828  0.7920  0.8199
10517TIP3   OH253041   4.493   5.358  13.610  0.2020  0.5550  0.2803
10517TIP3    H153042   4.449   5.281  13.575  0.8216  0.5153 -0.4282
10517TIP3    H253043   4.424   5.407  13.655 -0.2755 -0.2014  0.3740
10518TIP3   OH253044   6.739   3.987   4.162  0.0382  0.2950  0.1279
10518TIP3    H153045   6.802   3.918   4.181 -0.5283 -0.1876  0.2909
10518TIP3    H253046   6.658   3.957   4.203 -0.4228  0.6747 -0.4909
10519TIP3   OH253047   2.086   0.056   2.124 -0.2337  0.1545  0.2057
10519TIP3    H153048   2.018   0.052   2.191 -0.6548  1.2458 -0.1223
10519TIP3    H253049   2.102  -0.035   2.100 -1.1498 -0.1588  0.7229
10520TIP3   OH253050   0.586   3.388   4.687 -0.5008  0.1775 -0.2075
10520TIP3    H153051   0.599   3.293   4.681  0.8654  0.4193 -1.6434
10520TIP3    H253052   0.515   3.406   4.625 -0.4774  0.1421 -0.2450
10521TIP3   OH253053   0.054   0.812   2.824 -0.0730  0.1060 -0.3110
10521TIP3    H153054   0.093   0.891   2.862  1.4815 -0.6409 -0.2572
10521TIP3    H253055  -0.040   0.827   2.827  0.1330  1.3095  1.0932
10522TIP3   OH253056   4.784   6.189  11.541 -0.1204 -0.1000  0.0424
10522TIP3    H153057   4.838   6.161  11.466 -0.0524  0.5121 -0.1403
10522TIP3    H253058   4.695   6.161  11.517 -0.1322  0.2754 -0.3633
10523TIP3   OH253059   2.200   5.043   4.715  0.0397  0.0446 -0.0372
10523TIP3    H153060   2.278   5.072   4.668  0.4092 -2.8407 -1.4288
10523TIP3    H253061   2.234   5.003   4.795 -0.1200 -0.0713 -0.0263
10524TIP3   OH253062   5.257   2.884  15.804  0.0771 -0.2509 -0.4791
10524TIP3    H153063   5.246   2.912  15.895  0.7539 -0.2491 -0.3870
10524TIP3    H253064   5.297   2.960  15.761  1.3772 -0.8474 -0.3672
10525TIP3   OH253065   5.886   5.405  14.927  0.0662  0.3878 -0.3469
10525TIP3    H153066   5.928   5.408  15.013 -1.7616 -0.1198  0.6267
10525TIP3    H253067   5.955   5.376  14.867  2.0965  3.2207  0.4190
10526TIP3   OH253068   4.664   1.957   4.016  0.5557 -0.0439  0.0155
10526TIP3    H153069   4.578   1.915   4.026  0.7885 -0.5286  0.0316
10526TIP3    H253070   4.701   1.957   4.104 -0.4186  2.3977  0.4925
10527TIP3   OH253071   6.454   0.515  16.628  0.3566 -0.0930  0.0601
10527TIP3    H153072   6.369   0.526  16.585  0.1592 -0.5537  0.3278
10527TIP3    H253073   6.505   0.462  16.568  0.3507 -0.0725  0.0368
10528TIP3   OH253074   6.216   0.166  16.654  0.5530 -0.0690  0.0247
10528TIP3    H153075   6.258   0.127  16.578  1.3252  2.0287 -0.6881
10528TIP3    H253076   6.122   0.157  16.637  0.6276 -2.5920  0.4848
10529TIP3   OH253077   2.675   3.303  12.704 -0.2036 -0.7565 -0.1551
10529TIP3    H153078   2.613   3.374  12.684 -1.1902 -1.5252  0.0607
10529TIP3    H253079   2.674   3.296  12.799  1.4806  0.2911 -0.0315
10530TIP3   OH253080   2.824   3.815  13.131  0.4992  0.1422  0.4710
10530TIP3    H153081   2.817   3.868  13.051 -2.0220  1.7179  1.6169
10530TIP3    H253082   2.863   3.874  13.195 -1.1974  0.2725  1.4333
10531TIP3   OH253083   4.163   3.804  16.584  0.1760 -0.0075 -0.2440
10531TIP3    H153084   4.125   3.808  16.672  0.5414 -0.5660 -0.0593
10531TIP3    H253085   4.140   3.717  16.552 -0.6964  0.4990 -1.0493
10532TIP3   OH253086   4.135   0.014  15.518 -0.2485 -0.2126  0.4567
10532TIP3    H153087   4.152  -0.064  15.465  0.8442  0.7763 -0.6929
10532TIP3    H253088   4.214   0.066  15.511 -1.3659  1.5345  0.2795
10533TIP3   OH253089   1.370   1.836  15.481  0.1295 -0.1300  0.3194
10533TIP3    H153090   1.359   1.777  15.406 -0.4813  0.1446  0.1895
10533TIP3    H253091   1.465   1.841  15.494  0.1984 -1.0007  0.2186
10534TIP3   OH253092   2.761   1.910   5.529  0.7757 -0.3922 -0.5520
10534TIP3    H153093   2.744   1.923   5.435 -1.7954  1.7996  0.1116
10534TIP3    H253094   2.821   1.980   5.553  0.9439 -0.5767 -0.4306
10535TIP3   OH253095   1.834   6.492  15.461  0.1117  0.1655  0.2254
10535TIP3    H153096   1.917   6.445  15.462  1.0845  1.6964 -1.9494
10535TIP3    H253097   1.829   6.532  15.374  0.0866  5.2054  2.1822
10536TIP3   OH253098   3.852   0.093   1.466  0.3133 -0.1296 -0.6290
10536TIP3    H153099   3.932   0.139   1.491 -0.2414 -0.4010  1.9284
10536TIP3    H253100   3.868   0.062   1.378  3.1808 -0.4830 -0.0601
10537TIP3   OH253101   1.188   5.795   4.218  0.0606  0.8321 -0.0786
10537TIP3    H153102   1.195   5.888   4.238  2.0305  0.4330  1.3264
10537TIP3    H253103   1.213   5.751   4.299  1.4392 -0.9056 -1.3721
10538TIP3   OH253104   6.205   5.860  12.957 -0.1865  0.3157 -0.0309
10538TIP3    H153105   6.146   5.785  12.958  2.7001 -2.1310  1.3224
10538TIP3    H253106   6.255   5.850  12.876  0.5898  0.3956  0.4230
10539TIP3   OH253107   6.781   5.343  12.887 -0.1374 -0.3975  0.0369
10539TIP3    H153108   6.864   5.366  12.846 -1.2473  0.1310 -2.0547
10539TIP3    H253109   6.773   5.248  12.876 -0.1954 -0.3270 -0.5683
10540TIP3   OH253110   6.808   2.504   3.017  0.7001 -0.0507 -0.5279
10540TIP3    H153111   6.797   2.410   3.035  1.7642 -0.2623 -0.8939
10540TIP3    H253112   6.749   2.547   3.079  0.6098 -0.9400  0.0309
10541TIP3   OH253113   0.852   1.426  11.247 -0.5874  0.3105  0.5968
10541TIP3    H153114   0.854   1.522  11.249 -0.9916  0.4006 -1.3493
10541TIP3    H253115   0.761   1.404  11.266 -0.8270  0.4017 -0.3874
10542TIP3   OH253116   5.837   5.856  12.074 -0.2810 -0.7535  0.1388
10542TIP3    H153117   5.835   5.865  12.170 -0.9595 -1.3647  0.1894
10542TIP3    H253118   5.770   5.916  12.043 -1.3595 -1.8983  0.1752
10543TIP3   OH253119   2.132   1.897  11.641  0.0224 -0.0486  0.0545
10543TIP3    H153120   2.193   1.970  11.643  0.1926 -0.1869  2.1662
10543TIP3    H253121   2.135   1.861  11.730 -1.3525 -1.5366 -0.4591
10544TIP3   OH253122   2.662   2.558  16.252  0.0102 -0.2352  0.0941
10544TIP3    H153123   2.611   2.488  16.291 -1.7357  0.9377  0.0763
10544TIP3    H253124   2.649   2.547  16.157  0.1227 -0.1644  0.0707
10545TIP3   OH253125   0.575   4.068   6.133  0.2919 -0.2074  0.4000
10545TIP3    H153126   0.541   4.043   6.219  2.3425  0.2165  1.4067
10545TIP3    H253127   0.597   3.985   6.091 -1.7706 -0.4836 -0.2422
10546TIP3   OH253128   2.237   4.201  16.344 -0.3743 -0.2832  0.6086
10546TIP3    H153129   2.319   4.212  16.295 -0.8101  1.7433  0.2672
10546TIP3    H253130   2.205   4.290  16.357 -1.7470 -0.9603  2.0985
10547TIP3   OH253131   4.998   2.634  17.210  0.1414 -0.2614  0.5522
10547TIP3    H153132   4.951   2.669  17.286  0.7984  0.5609  0.6046
10547TIP3    H253133   4.973   2.542  17.206 -1.8756  0.2524  0.2516
10548TIP3   OH253134   4.024   5.365  12.648 -0.1007  0.4607 -0.2830
10548TIP3    H153135   3.998   5.382  12.557 -0.4151  0.0386 -0.2754
10548TIP3    H253136   4.025   5.451  12.689 -0.8945  0.5547 -0.4435
10549TIP3   OH253137   1.559   1.870  11.499 -0.4823 -0.3682  0.0032
10549TIP3    H153138   1.650   1.899  11.488 -0.8919  2.6510  2.8848
10549TIP3    H253139   1.566   1.786  11.543  1.0700  1.0243  2.6544
10550TIP3   OH253140   5.026   6.595  13.360 -0.1621  1.2163 -0.0076
10550TIP3    H153141   5.025   6.503  13.389 -0.8220  1.2479  0.0825
10550TIP3    H253142   5.021   6.591  13.265 -1.8374  1.1732  0.0533
10551TIP3   OH253143   2.122   3.398   4.928 -0.1095  0.1880  0.2832
10551TIP3    H153144   2.162   3.484   4.943  2.0769 -0.4613 -1.2984
10551TIP3    H253145   2.190   3.348   4.884 -1.8339 -1.9170 -0.1263
10552TIP3   OH253146   5.880   0.743   0.286  0.0798  0.8287  0.3095
10552TIP3    H153147   5.829   0.805   0.235 -0.1658  0.9771  0.7288
10552TIP3    H253148   5.971   0.765   0.267 -0.0095  1.0911  0.1907
10553TIP3   OH253149   2.536   3.587   2.082  0.5257  0.0237 -0.1332
10553TIP3    H153150   2.584   3.511   2.051  0.2857  0.1256 -0.7741
10553TIP3    H253151   2.604   3.650   2.106  0.7262  0.1679 -1.0368
10554TIP3   OH253152   4.164   5.684  17.166 -0.6223 -0.4606  0.1026
10554TIP3    H153153   4.248   5.649  17.195  0.4801  1.4628 -0.6222
10554TIP3    H253154   4.121   5.714  17.247  1.5267  2.9458  0.1596
10555TIP3   OH253155   3.417   6.738   2.758  0.2468 -0.2861  0.4300
10555TIP3    H153156   3.325   6.715   2.754  0.2962 -0.4282  0.0709
10555TIP3    H253157   3.420   6.814   2.816 -0.3915  1.1630 -1.3449
10556TIP3   OH253158   3.648   6.215  12.840 -0.1503 -0.5146 -0.2910
10556TIP3    H153159   3.586   6.176  12.902 -1.4605  0.2520 -1.0853
10556TIP3    H253160   3.664   6.303  12.873  0.7373 -0.7831  0.0389
10557TIP3   OH253161   6.124   3.342   0.369 -0.2277 -0.3692 -0.3668
10557TIP3    H153162   6.088   3.260   0.337 -0.3215  0.1647 -1.6723
10557TIP3    H253163   6.091   3.409   0.308 -0.2297  0.6531  0.7112
10558TIP3   OH253164   4.178   3.869   1.328  0.0494 -0.0591  0.2364
10558TIP3    H153165   4.258   3.881   1.379 -0.6570  1.3885  1.0547
10558TIP3    H253166   4.202   3.898   1.239  0.6694 -0.5179  0.2409
10559TIP3   OH253167   3.333   4.754  16.832  0.3660 -0.3348 -0.2603
10559TIP3    H153168   3.304   4.801  16.910  0.2147 -1.0522  0.1270
10559TIP3    H253169   3.313   4.813  16.759  0.9880  0.5562  0.2806
10560TIP3   OH253170   3.755   4.168   4.046 -0.0563  0.2994 -0.2898
10560TIP3    H153171   3.803   4.101   4.095 -0.6180  0.8275  1.0215
10560TIP3    H253172   3.722   4.122   3.969 -1.5246 -1.3209  1.2162
10561TIP3   OH253173   4.637   6.193  15.564  0.1080  0.3936  0.4023
10561TIP3    H153174   4.635   6.232  15.477  2.4852  0.5393  0.3448
10561TIP3    H253175   4.576   6.247  15.616 -1.6476  0.0535 -1.2076
10562TIP3   OH253176   4.738   5.981  14.970 -0.7717 -0.8158  0.2114
10562TIP3    H153177   4.817   5.930  14.987 -0.6363 -0.1809  1.5839
10562TIP3    H253178   4.699   5.940  14.892  1.1080 -0.8732 -0.7502
10563TIP3   OH253179   1.536   3.591   3.951 -0.0116  0.3834 -0.1841
10563TIP3    H153180   1.562   3.622   4.038 -0.8172 -0.8132  0.5176
10563TIP3    H253181   1.440   3.594   3.952 -0.0341  0.1848 -0.9619
10564TIP3   OH253182   3.437   6.177  11.126  0.7232  0.3021 -0.3865
10564TIP3    H153183   3.523   6.218  11.120  0.2114  1.5631  0.5539
10564TIP3    H253184   3.374   6.247  11.107 -0.1090 -0.7426 -1.7108
10565TIP3   OH253185   5.062   5.988  11.552  0.0661  0.2306  0.0047
10565TIP3    H153186   5.144   5.938  11.560  0.6556  0.8330 -1.7235
10565TIP3    H253187   4.997   5.935  11.598  1.5502  0.1082  2.0741
10566TIP3   OH253188   3.092   3.751   5.020  0.4284 -0.0544  0.6172
10566TIP3    H153189   3.184   3.761   5.046  0.6679  2.3385 -0.8329
10566TIP3    H253190   3.044   3.807   5.082 -0.2187 -1.9644  1.9184
10567TIP3   OH253191   0.206   6.177  11.062  0.6631 -0.3839 -0.5392
10567TIP3    H153192   0.275   6.158  10.999  1.5367 -0.3642  0.3824
10567TIP3    H253193   0.207   6.102  11.122 -0.5574 -0.6872 -0.8820
10568TIP3   OH253194   2.905   2.030   2.717  0.0296  0.0916 -0.2924
10568TIP3    H153195   2.939   1.948   2.681  2.3299  1.4412 -1.4258
10568TIP3    H253196   2.974   2.061   2.775  0.2252  2.2420 -1.5498
10569TIP3   OH253197   5.439   4.937  16.389  0.1490  0.3076 -0.3836
10569TIP3    H153198   5.522   4.984  16.383  1.6252 -2.0579  0.2337
10569TIP3    H253199   5.459   4.848  16.360 -1.3690 -1.1884  2.6731
10570TIP3   OH253200   3.973   1.866  16.382 -0.4729 -0.0959  0.3490
10570TIP3    H153201   4.048   1.835  16.331 -0.7374 -2.3686  1.2213
10570TIP3    H253202   4.012   1.910  16.458 -0.0390 -0.4083  0.3109
10571TIP3   OH253203   0.194   4.912   3.349  0.9444 -0.2589  0.0999
10571TIP3    H153204   0.160   4.960   3.272  0.7359  2.1034  1.5682
10571TIP3    H253205   0.163   4.822   3.336 -1.5591  0.6844 -1.1783
10572TIP3   OH253206   4.189   3.876   0.455  0.2068 -0.3651 -0.1986
10572TIP3    H153207   4.201   3.904   0.364 -2.5570 -1.1406 -0.9081
10572TIP3    H253208   4.158   3.955   0.500  1.6993  0.0520  0.1466
10573TIP3   OH253209   0.683   5.469  11.812  0.6360 -0.3327  0.0248
10573TIP3    H153210   0.696   5.386  11.766 -0.2378 -0.2918 -0.2983
10573TIP3    H253211   0.692   5.446  11.905  0.0911 -0.8504 -0.0445
10574TIP3   OH253212   2.445   5.112   3.653  0.0799  0.1283  0.3048
10574TIP3    H153213   2.357   5.076   3.643 -0.8689  1.6665  2.5358
10574TIP3    H253214   2.478   5.073   3.734  1.2714 -0.0217 -0.2280
10575TIP3   OH253215   4.208   1.929  12.437 -0.0213  0.2683  0.2285
10575TIP3    H153216   4.229   1.900  12.349 -0.5980 -0.2499  0.2505
10575TIP3    H253217   4.204   1.849  12.489 -0.7723  0.4555  0.4824
10576TIP3   OH253218   6.673   3.199  13.102  0.1141 -0.8151  0.5305
10576TIP3    H153219   6.656   3.150  13.183  0.8352 -0.9299  0.6181
10576TIP3    H253220   6.757   3.166  13.071  1.4498  1.4535  1.4469
10577TIP3   OH253221   1.218   3.058   5.053 -0.5367  0.3645 -0.0397
10577TIP3    H153222   1.144   2.999   5.037 -0.3261  0.2293 -0.5071
10577TIP3    H253223   1.209   3.082   5.145 -1.6310  0.9849 -0.2874
10578TIP3   OH253224   4.405   1.753   5.033 -0.4495  0.3339 -0.0731
10578TIP3    H153225   4.395   1.721   4.943 -3.7105  0.1024  0.2484
10578TIP3    H253226   4.409   1.848   5.024  1.4409  0.2436 -0.5446
10579TIP3   OH253227   0.672   4.724   1.183  0.2507  0.2543  0.0242
10579TIP3    H153228   0.622   4.680   1.252  0.6221 -1.0490 -0.5186
10579TIP3    H253229   0.689   4.811   1.219 -2.6482  0.8899  0.1336
10580TIP3   OH253230   4.055   5.113  13.554 -0.2314 -0.2704 -0.3023
10580TIP3    H153231   4.059   5.157  13.639 -1.1710 -0.7850  0.0236
10580TIP3    H253232   4.144   5.123  13.517 -0.7424  3.2672 -0.9737
10581TIP3   OH253233   0.696   1.839   1.209 -0.1793  0.1056 -0.3982
10581TIP3    H153234   0.741   1.841   1.124 -0.9085  0.4113 -0.7967
10581TIP3    H253235   0.695   1.931   1.237 -0.0639  0.0235 -0.1263
10582TIP3   OH253236   3.725   3.184  14.568  0.4110 -0.4460  0.2310
10582TIP3    H153237   3.800   3.144  14.525  0.4671 -0.0163 -0.0722
10582TIP3    H253238   3.739   3.168  14.662  0.6119 -0.8192  0.1393
10583TIP3   OH253239   0.926   0.010  13.231 -0.4377  0.2999  0.3331
10583TIP3    H153240   0.878   0.091  13.216  0.1089  0.3652 -1.3033
10583TIP3    H253241   0.893  -0.050  13.163  0.4836 -0.2367  0.3398
10584TIP3   OH253242   1.878   3.834   2.999 -0.2909  0.0962 -0.8214
10584TIP3    H153243   1.800   3.878   2.966 -0.2365 -0.6107 -1.9635
10584TIP3    H253244   1.858   3.741   2.991  1.0786 -0.1216 -2.2655
10585TIP3   OH253245   6.478   6.007  13.617  0.3093  0.1073 -0.1188
10585TIP3    H153246   6.389   6.012  13.650  0.4303 -1.4100  0.4909
10585TIP3    H253247   6.470   6.020  13.523 -0.7098 -1.1279 -0.2247
10586TIP3   OH253248   4.038   1.222  13.280 -0.0926 -0.4902  0.4684
10586TIP3    H153249   4.077   1.161  13.342  0.3468  0.1508  0.8295
10586TIP3    H253250   3.949   1.235  13.312  0.9166  1.9878  2.6462
10587TIP3   OH253251   6.348   5.574   2.773 -0.4094  0.4077 -0.8730
10587TIP3    H153252   6.362   5.592   2.866 -0.1083 -1.4992 -0.5026
10587TIP3    H253253   6.292   5.645   2.743 -1.9349  0.1613  1.1850
10588TIP3   OH253254   5.797   6.451  11.520  0.2309 -0.1702 -0.2659
10588TIP3    H153255   5.792   6.500  11.602  0.9787  0.2532 -0.4707
10588TIP3    H253256   5.849   6.374  11.540 -1.1634 -1.0438  0.1210
10589TIP3   OH253257   3.305   1.615  14.389 -0.2888  0.8030 -0.4241
10589TIP3    H153258   3.218   1.628  14.428 -0.1646  2.8020 -0.6966
10589TIP3    H253259   3.325   1.699  14.346  1.0640 -0.1782 -1.8181
10590TIP3   OH253260   2.178   1.985  15.352  0.1382  0.2560 -0.5580
10590TIP3    H153261   2.149   2.064  15.307 -0.8169  0.0045 -0.4119
10590TIP3    H253262   2.274   1.990  15.351  0.0931  1.4476 -0.4833
10591TIP3   OH253263   5.078   0.934   2.123 -0.2242 -0.6589 -0.2597
10591TIP3    H153264   4.988   0.909   2.104 -0.1396 -0.9431 -0.2834
10591TIP3    H253265   5.104   0.877   2.196 -0.1140 -0.4768 -0.1560
10592TIP3   OH253266   3.608   0.727  13.647 -0.2610  0.0128 -0.2917
10592TIP3    H153267   3.655   0.792  13.595  1.7122 -0.7885  0.3942
10592TIP3    H253268   3.675   0.663  13.671 -1.3676 -0.3608  2.0603
10593TIP3   OH253269   2.576   4.175  11.258 -0.3437 -0.4702  0.5031
10593TIP3    H153270   2.640   4.141  11.196  0.8552  0.6620  1.0615
10593TIP3    H253271   2.508   4.214  11.203  1.1690  1.3770 -0.1708
10594TIP3   OH253272   1.729   5.771   2.576  0.3245 -0.0485 -0.0588
10594TIP3    H153273   1.681   5.848   2.545  0.6379  0.7254  1.2979
10594TIP3    H253274   1.712   5.704   2.510 -2.2038  0.3420  0.0975
10595TIP3   OH253275   5.601   0.630   2.932  0.0006 -0.5647 -0.1591
10595TIP3    H153276   5.511   0.645   2.963  0.5772  0.2901  1.1966
10595TIP3    H253277   5.597   0.650   2.839 -1.2372 -0.5813 -0.1355
10596TIP3   OH253278   6.762   2.700  15.467  0.1256  0.7483  0.3133
10596TIP3    H153279   6.751   2.619  15.517 -0.0495  0.7499  0.2766
10596TIP3    H253280   6.690   2.700  15.404  0.4245  0.6802 -0.0312
10597TIP3   OH253281   4.862   0.251  14.496  0.3965  0.0854  0.2913
10597TIP3    H153282   4.947   0.291  14.480  0.7788 -0.7215  0.2212
10597TIP3    H253283   4.869   0.164  14.456 -1.3283  0.8971 -1.9633
10598TIP3   OH253284   1.771   2.478   2.113 -0.4748  0.1073 -0.5513
10598TIP3    H153285   1.754   2.534   2.037 -1.8557 -1.1999 -1.2774
10598TIP3    H253286   1.695   2.492   2.170  0.7608  1.4141  0.8645
10599TIP3   OH253287   5.855   3.733  13.915 -0.3761  0.4667 -0.2651
10599TIP3    H153288   5.913   3.782  13.857 -0.0032  0.0937 -0.2090
10599TIP3    H253289   5.913   3.686  13.974 -0.7293  0.0593 -0.2339
10600TIP3   OH253290   4.953   5.061   5.488 -0.6031 -0.1816 -0.3283
10600TIP3    H153291   4.912   4.989   5.440  0.9055 -1.6779  0.5055
10600TIP3    H253292   4.910   5.062   5.573  0.3204 -1.0675  0.1704
10601TIP3   OH253293   3.816   1.605   6.529  0.5586 -0.1290  0.6169
10601TIP3    H153294   3.879   1.647   6.588  0.4608  0.0585  0.5883
10601TIP3    H253295   3.854   1.519   6.511  0.8278 -0.0008  0.5648
10602TIP3   OH253296   6.788   4.783   4.781 -0.1141 -0.2380  0.1517
10602TIP3    H153297   6.880   4.808   4.772 -0.0517 -0.2848  0.6094
10602TIP3    H253298   6.788   4.687   4.781 -0.2987 -0.2562 -1.0693
10603TIP3   OH253299   6.495   1.081   1.108 -0.9623  0.0503 -0.4416
10603TIP3    H153300   6.429   1.135   1.064  0.3677  2.1121 -0.0243
10603TIP3    H253301   6.570   1.139   1.120  0.0057 -1.4661  1.4184
10604TIP3   OH253302   2.909   3.581  12.214  0.0165  0.1284 -0.0996
10604TIP3    H153303   2.878   3.608  12.301  0.0758 -0.0541 -0.0199
10604TIP3    H253304   2.835   3.597  12.156 -0.5436 -1.1052  0.2376
10605TIP3   OH253305   1.714   4.476   4.246 -0.5210  0.2559  0.4087
10605TIP3    H153306   1.663   4.462   4.326  0.4215  2.3740  1.4768
10605TIP3    H253307   1.726   4.571   4.242  1.4989  0.0081 -0.9596
10606TIP3   OH253308   2.684   0.533  12.299  0.5184  0.2407 -0.7320
10606TIP3    H153309   2.758   0.481  12.268  0.6816  0.0668 -0.0686
10606TIP3    H253310   2.705   0.553  12.390 -0.3353  0.0325 -0.4743
10607TIP3   OH253311   5.606   3.045   0.641  0.0992 -0.6930 -0.1320
10607TIP3    H153312   5.576   3.136   0.642  1.8687 -0.0457 -1.2658
10607TIP3    H253313   5.627   3.026   0.732  0.3974  0.2909  0.0236
10608TIP3   OH253314   3.494   6.042  12.964  0.0910  0.9527  0.1727
10608TIP3    H153315   3.539   5.957  12.964 -0.4290  0.6764  0.2533
10608TIP3    H253316   3.418   6.029  13.020  0.2463  1.6045  0.5401
10609TIP3   OH253317   2.944   1.910   0.397  0.0803  0.1672  0.5578
10609TIP3    H153318   3.025   1.864   0.422  0.4915  1.1034  0.9824
10609TIP3    H253319   2.944   1.907   0.301  2.6381  3.4308  0.2907
10610TIP3   OH253320   2.963   4.530   0.107 -0.3993  0.7517  0.3744
10610TIP3    H153321   2.957   4.462   0.174 -0.5453  0.3751 -0.0199
10610TIP3    H253322   2.920   4.606   0.146  1.7769  1.3652  1.7372
10611TIP3   OH253323   2.316   4.907  14.363  0.5092 -0.0812 -0.1488
10611TIP3    H153324   2.247   4.930  14.425  0.7285  0.6542 -0.1700
10611TIP3    H253325   2.309   4.812  14.353  2.0868 -0.6792  2.9638
10612TIP3   OH253326   4.014   0.208   6.085  0.0641  0.2750 -0.1159
10612TIP3    H153327   4.048   0.280   6.138  0.5372  0.7846 -1.0651
10612TIP3    H253328   4.086   0.188   6.025 -0.3506 -0.4669 -0.3690
10613TIP3   OH253329   2.207   2.422   5.112  0.1707  0.1872  1.0088
10613TIP3    H153330   2.129   2.477   5.102 -0.5370 -0.8355  0.7642
10613TIP3    H253331   2.191   2.371   5.192  0.4777 -0.2090  0.8227
10614TIP3   OH253332   2.796   0.678   2.398 -0.2576 -0.1114 -0.2399
10614TIP3    H153333   2.760   0.610   2.341 -2.8939 -0.2539  1.4494
10614TIP3    H253334   2.854   0.631   2.457  0.1920 -0.4091 -0.9025
10615TIP3   OH253335   2.628   2.432  15.467 -0.2982 -0.2677 -0.0577
10615TIP3    H153336   2.581   2.367  15.520  1.5357 -0.8501  0.9452
10615TIP3    H253337   2.698   2.463  15.525 -0.7690  2.2043 -0.7141
10616TIP3   OH253338   5.474   4.545   1.203  0.2296  0.2135 -0.2233
10616TIP3    H153339   5.468   4.639   1.220 -0.4965 -0.0626  1.2210
10616TIP3    H253340   5.564   4.523   1.228  1.3460  0.9393 -3.1557
10617TIP3   OH253341   4.656   3.901  13.161  0.0957 -0.1893  0.0878
10617TIP3    H153342   4.676   3.822  13.111  0.0072 -1.0500  1.3636
10617TIP3    H253343   4.563   3.893  13.183 -0.3880  1.1790 -1.2940
10618TIP3   OH253344   1.730   1.333  12.721  0.0422 -0.0291 -0.6508
10618TIP3    H153345   1.637   1.339  12.743 -0.0450  1.1238 -1.2767
10618TIP3    H253346   1.772   1.399  12.775  0.6698 -1.2348  0.3894
10619TIP3   OH253347   6.817   6.278  16.600  0.5937 -0.1451  0.1000
10619TIP3    H153348   6.775   6.309  16.680  0.0524 -2.4528  0.7941
10619TIP3    H253349   6.902   6.322  16.598  0.3154  0.4907  1.5734
10620TIP3   OH253350   2.642   0.088   3.044  0.1274  0.1317  0.2926
10620TIP3    H153351   2.583   0.082   3.119 -1.4898 -0.6069 -0.9793
10620TIP3    H253352   2.711   0.147   3.072 -1.5419  1.5184  1.6438
10621TIP3   OH253353   2.246   0.428  13.608 -0.7556  0.2789  0.4416
10621TIP3    H153354   2.204   0.380  13.679  0.1631 -0.6926  0.3419
10621TIP3    H253355   2.306   0.489  13.653 -1.6564  1.1103  0.5521
10622TIP3   OH253356   0.974   3.762  16.867 -0.6988 -0.0876 -0.3212
10622TIP3    H153357   0.989   3.726  16.780  0.1540  2.4090 -1.2906
10622TIP3    H253358   0.920   3.697  16.911  1.4283 -2.9264 -1.5823
10623TIP3   OH253359   6.288   6.675   3.593 -0.6393  0.0331  0.1150
10623TIP3    H153360   6.290   6.674   3.688  1.4393  0.1044  0.1107
10623TIP3    H253361   6.264   6.765   3.571  0.6617  0.5212  0.6001
10624TIP3   OH253362   1.394   5.908   3.542 -0.0844 -0.3527 -0.2035
10624TIP3    H153363   1.483   5.942   3.540  0.3190 -1.3673 -2.3723
10624TIP3    H253364   1.404   5.814   3.556 -0.8270 -0.4339 -0.1522
10625TIP3   OH253365   1.101   0.824  10.638  0.2429  0.1730 -0.2941
10625TIP3    H153366   1.110   0.919  10.640  1.2133  0.0819  0.2624
10625TIP3    H253367   1.190   0.791  10.655 -0.0559 -0.8319 -0.5954
10626TIP3   OH253368   4.283   5.036   0.210  0.2394 -0.4181 -0.1472
10626TIP3    H153369   4.279   4.982   0.131 -0.4280 -1.0711  0.3288
10626TIP3    H253370   4.369   5.079   0.204  0.5902 -1.1675 -0.7676
10627TIP3   OH253371   2.641   2.304  16.897 -0.1281  0.2429 -0.3920
10627TIP3    H153372   2.644   2.399  16.899  1.4928  0.2349 -1.0532
10627TIP3    H253373   2.550   2.283  16.875 -0.4823  1.6251 -0.2956
10628TIP3   OH253374   1.062   3.896   4.629  0.0809  0.4845  0.7469
10628TIP3    H153375   0.977   3.857   4.651  0.4881  0.0483  1.5779
10628TIP3    H253376   1.041   3.986   4.603 -0.6580  0.3096  0.7017
10629TIP3   OH253377   4.651   2.787  15.637  0.2492  0.4326  0.2920
10629TIP3    H153378   4.714   2.722  15.607 -1.9957 -1.5570 -0.5008
10629TIP3    H253379   4.602   2.742  15.706  0.0641  2.1230  1.3261
10630TIP3   OH253380   0.404   3.825  12.586 -0.3741  0.3557 -0.3170
10630TIP3    H153381   0.363   3.774  12.655  1.6434 -0.8042  0.1211
10630TIP3    H253382   0.480   3.866  12.628 -0.2630  1.2925 -1.3779
10631TIP3   OH253383   4.811   1.386   4.202 -0.0712 -0.3366  0.1851
10631TIP3    H153384   4.831   1.471   4.161  1.0389 -1.4885 -1.8081
10631TIP3    H253385   4.719   1.371   4.180  0.3141 -0.6126 -1.4106
10632TIP3   OH253386   5.750   2.801   2.818 -0.4067  0.0796  0.2379
10632TIP3    H153387   5.759   2.711   2.848 -1.1756  0.1760  0.7857
10632TIP3    H253388   5.735   2.793   2.724  1.0318 -0.2727  0.0097
10633TIP3   OH253389   4.612   1.020  16.979 -0.0559 -0.3062 -0.3196
10633TIP3    H153390   4.539   1.069  16.941  0.0109 -0.4710 -0.6568
10633TIP3    H253391   4.655   0.978  16.905  0.1853 -0.4775 -0.0847
10634TIP3   OH253392   3.587   3.220   0.882  0.1274  0.5439 -0.3099
10634TIP3    H153393   3.565   3.167   0.958 -0.2209  0.2628 -0.5984
10634TIP3    H253394   3.657   3.171   0.839 -0.8432 -0.2069 -1.1016
10635TIP3   OH253395   1.105   2.252  14.568 -0.1827  0.7032  0.0774
10635TIP3    H153396   1.016   2.277  14.593  0.3404  0.9752  1.7616
10635TIP3    H253397   1.096   2.162  14.536 -0.8066 -0.0067  2.0869
10636TIP3   OH253398   1.540   2.437   3.146 -0.1600 -0.5753 -0.0955
10636TIP3    H153399   1.554   2.441   3.051 -0.1803 -0.5510 -0.0975
10636TIP3    H253400   1.594   2.507   3.182 -0.4601 -0.3294 -0.1229
10637TIP3   OH253401   3.190   6.664  13.524 -0.1109  0.2215 -0.0684
10637TIP3    H153402   3.159   6.755  13.527 -0.6851  0.0576 -0.7294
10637TIP3    H253403   3.240   6.658  13.442 -1.7902 -0.5689 -1.0876
10638TIP3   OH253404   6.246   4.235  13.394 -0.1676 -0.3213  0.0043
10638TIP3    H153405   6.310   4.276  13.452  1.6102 -1.6625 -0.9011
10638TIP3    H253406   6.168   4.289  13.403  0.7650  0.8346  1.8878
10639TIP3   OH253407   0.543   2.762  13.974 -0.2427 -0.2973 -0.2771
10639TIP3    H153408   0.553   2.744  14.067  1.8179 -1.6756 -0.6920
10639TIP3    H253409   0.552   2.857  13.966  0.1996 -0.2342  0.8605
10640TIP3   OH253410   6.781   6.216  14.914  0.4753  0.5665 -0.6887
10640TIP3    H153411   6.868   6.251  14.896  0.1611  1.8898  0.2169
10640TIP3    H253412   6.797   6.126  14.942  1.6948  1.1225  0.5376
10641TIP3   OH253413   1.149   2.514   3.598 -0.8536 -0.3841  0.0102
10641TIP3    H153414   1.241   2.512   3.626 -1.0133  1.0114  0.7528
10641TIP3    H253415   1.152   2.551   3.509 -0.7787  1.2866  0.6650
10642TIP3   OH253416   6.161   4.466   1.555  0.0177 -0.0832  0.0143
10642TIP3    H153417   6.114   4.537   1.511  2.0010  1.1229 -0.2694
10642TIP3    H253418   6.204   4.509   1.629  0.8536 -1.1019  0.1343
10643TIP3   OH253419   1.395   0.318  13.587 -0.2189  0.3058 -0.0938
10643TIP3    H153420   1.436   0.245  13.632  0.9236  2.0605  1.8894
10643TIP3    H253421   1.408   0.393  13.645 -0.5898  2.2830 -2.3819
10644TIP3   OH253422   1.157   5.567   1.214  0.1957  0.1327 -0.3117
10644TIP3    H153423   1.186   5.485   1.255  1.0632  1.1727  1.2637
10644TIP3    H253424   1.237   5.618   1.205 -0.4110  1.0068 -0.8482
10645TIP3   OH253425   1.567   5.972   1.070  0.2964 -0.1156  0.2785
10645TIP3    H153426   1.645   5.928   1.036 -0.9518 -1.2844 -1.1698
10645TIP3    H253427   1.493   5.925   1.032 -1.1527  2.7349 -0.7647
10646TIP3   OH253428   4.897   0.304   4.332 -0.4987  0.4620  0.1730
10646TIP3    H153429   4.954   0.284   4.258 -1.7413  0.2164 -0.7557
10646TIP3    H253430   4.912   0.233   4.394 -1.1953 -0.6782 -0.9159
10647TIP3   OH253431   1.800   5.148  14.658 -0.3596 -0.6539 -0.3950
10647TIP3    H153432   1.726   5.096  14.688  0.8039 -2.0179  0.2034
10647TIP3    H253433   1.878   5.098  14.683  0.8818  1.7827  1.0062
10648TIP3   OH253434   0.681   5.970  16.411 -0.2095 -0.0178  0.4617
10648TIP3    H153435   0.617   6.041  16.414 -2.3613 -1.7844 -0.8293
10648TIP3    H253436   0.691   5.943  16.502 -1.4147  0.2127  0.6739
10649TIP3   OH253437   4.095   0.762  13.345  0.0525  0.2068  0.5848
10649TIP3    H153438   4.116   0.856  13.342  0.4750  0.1053  0.3940
10649TIP3    H253439   4.165   0.720  13.296  1.5322 -0.5129  3.1155
10650TIP3   OH253440   4.592   1.235  13.381  0.2550  0.1720  0.0328
10650TIP3    H153441   4.675   1.239  13.333  0.6432  0.0125  0.6769
10650TIP3    H253442   4.531   1.196  13.319  0.7550 -0.0443 -0.3347
10651TIP3   OH253443   3.619   1.020  15.344  0.3823  0.3402 -0.0142
10651TIP3    H153444   3.692   0.977  15.300 -0.6315 -3.8005  1.9089
10651TIP3    H253445   3.549   1.020  15.279  0.6097 -0.3092 -0.2634
10652TIP3   OH253446   1.203   1.365   5.937  0.2995  0.0362 -0.7952
10652TIP3    H153447   1.128   1.326   5.981 -0.5276 -1.1889 -3.1222
10652TIP3    H253448   1.185   1.459   5.935  0.7540  0.2787  2.0189
10653TIP3   OH253449   0.849   3.152  13.485  0.0473  0.2678 -0.7697
10653TIP3    H153450   0.837   3.233  13.536  3.1244  1.0347 -1.0425
10653TIP3    H253451   0.898   3.094  13.543 -2.2439 -1.5791 -0.5253
10654TIP3   OH253452   0.613   6.447  12.797 -0.2564 -0.2312  0.4295
10654TIP3    H153453   0.525   6.421  12.823 -0.2903 -0.6273 -0.0605
10654TIP3    H253454   0.671   6.401  12.858 -0.4331  1.8192  2.2540
10655TIP3   OH253455   3.435   5.072   1.006 -0.0976 -0.1842  0.0491
10655TIP3    H153456   3.462   5.143   1.065 -0.6082  0.0315  0.0278
10655TIP3    H253457   3.499   5.073   0.936 -0.3843  0.5824 -0.2071
10656TIP3   OH253458   4.350   3.134   3.217 -0.3335  0.6055  0.1232
10656TIP3    H153459   4.381   3.215   3.258 -0.0670  0.4271  0.2832
10656TIP3    H253460   4.291   3.163   3.148 -0.9674  0.9069  0.7786
10657TIP3   OH253461   4.787   6.453  15.508  0.2985  0.0984  0.1551
10657TIP3    H153462   4.717   6.468  15.571  0.8545  0.2932  0.7336
10657TIP3    H253463   4.754   6.383  15.452  0.9072 -2.1245  2.4005
10658TIP3   OH253464   2.937   5.853  14.132  0.2787  0.6661  0.0923
10658TIP3    H153465   2.936   5.839  14.226 -1.6257  0.8186  0.1386
10658TIP3    H253466   3.022   5.818  14.103  0.4285 -0.4129  1.7047
10659TIP3   OH253467   6.191   6.426   3.619 -0.0608  0.2579  0.1348
10659TIP3    H153468   6.239   6.423   3.702  1.1946 -0.3157 -0.5790
10659TIP3    H253469   6.210   6.512   3.583 -1.3845  0.8867  0.8477
10660TIP3   OH253470   6.595   3.118   4.412 -0.5084 -0.5636 -0.1163
10660TIP3    H153471   6.574   3.101   4.504  1.6835 -0.7940  0.3946
10660TIP3    H253472   6.635   3.205   4.412  1.9405 -1.6125 -0.3770
10661TIP3   OH253473   4.942   4.836   0.159 -0.1936 -0.1510  0.1620
10661TIP3    H153474   4.873   4.783   0.200  0.3920  1.0348  2.9142
10661TIP3    H253475   4.895   4.910   0.121 -0.6002 -0.2549  0.4488
10662TIP3   OH253476   2.896   4.857  15.390  0.3689 -0.6769  0.5804
10662TIP3    H153477   2.906   4.938  15.339 -0.3784 -0.4900  0.7237
10662TIP3    H253478   2.922   4.881  15.479  1.6981 -1.0093  0.3010
10663TIP3   OH253479   2.287   5.685   3.040  0.3804 -0.1229 -0.0843
10663TIP3    H153480   2.252   5.689   2.951 -0.1822 -1.5959  0.0405
10663TIP3    H253481   2.359   5.748   3.040 -1.0009  1.5680 -0.9227
10664TIP3   OH253482   2.697   4.814  14.582 -0.1469 -0.1834  0.0172
10664TIP3    H153483   2.781   4.802  14.537  0.1418 -0.9611  0.7359
10664TIP3    H253484   2.687   4.909  14.588 -0.4142 -0.0230 -2.0449
10665TIP3   OH253485   3.925   2.078  17.112 -0.2794 -0.4345 -0.5908
10665TIP3    H153486   3.889   2.061  17.025 -1.4327 -1.4610  0.0607
10665TIP3    H253487   3.982   2.004  17.130 -1.5315 -1.2333  0.2745
10666TIP3   OH253488   5.510   1.361   4.247 -0.4471  0.5144  0.1272
10666TIP3    H153489   5.580   1.422   4.271  1.1496 -1.2618  0.1669
10666TIP3    H253490   5.470   1.401   4.169  0.7526  1.4822 -0.0292
10667TIP3   OH253491   1.397   4.717   4.171  0.0035 -0.1249  0.1624
10667TIP3    H153492   1.393   4.635   4.221 -1.5704  0.5643  1.2381
10667TIP3    H253493   1.351   4.697   4.089 -0.8657 -0.1646  0.6562
10668TIP3   OH253494   2.471   0.422  11.492  0.1177  0.2334 -0.3802
10668TIP3    H153495   2.481   0.332  11.524 -1.4194  0.2278  0.1721
10668TIP3    H253496   2.484   0.477  11.570  0.0809  0.4375 -0.5173
10669TIP3   OH253497   1.195   1.439  11.315  0.4447  0.1521 -0.1049
10669TIP3    H153498   1.143   1.467  11.391  0.9861  0.2473  0.2383
10669TIP3    H253499   1.285   1.464  11.338  0.5762  0.4139 -0.8963
10670TIP3   OH253500   1.567   4.679  13.477 -0.0197  0.3103 -0.4610
10670TIP3    H153501   1.512   4.620  13.426  0.3892  0.6598 -1.3335
10670TIP3    H253502   1.517   4.696  13.557 -0.6012 -0.3802 -0.6653
10671TIP3   OH253503   5.766   2.210   0.574  0.1229  0.1835 -0.1692
10671TIP3    H153504   5.801   2.140   0.520  2.6297  0.9652  0.2865
10671TIP3    H253505   5.732   2.166   0.652  0.3035 -0.6371 -0.5448
10672TIP3   OH253506   0.211   5.446  12.762  0.1101 -0.3508  0.1470
10672TIP3    H153507   0.306   5.436  12.763  0.0436 -1.1569 -0.8433
10672TIP3    H253508   0.198   5.541  12.757  0.9002 -0.2987 -1.5102
10673TIP3   OH253509   1.227   0.195   5.109  0.8323  0.3239 -0.0059
10673TIP3    H153510   1.317   0.182   5.080  0.7631  1.4457 -0.7469
10673TIP3    H253511   1.230   0.274   5.163 -0.1461  2.0249 -2.2887
10674TIP3   OH253512   2.295   4.785   1.465 -0.5159  0.4097 -0.2390
10674TIP3    H153513   2.324   4.740   1.545 -0.3065 -0.1529 -0.6201
10674TIP3    H253514   2.213   4.741   1.442  0.5778 -1.0609 -1.6091
10675TIP3   OH253515   5.264   5.465  17.170  0.3034  0.3018 -0.6128
10675TIP3    H153516   5.328   5.530  17.139  2.1744 -0.6690  0.9766
10675TIP3    H253517   5.236   5.497  17.255  1.8168 -1.2559  0.5349
10676TIP3   OH253518   4.776   1.398   0.655  0.5939  0.2273 -0.2605
10676TIP3    H153519   4.847   1.335   0.641  0.9869 -0.1241  2.7248
10676TIP3    H253520   4.805   1.451   0.729 -1.8639  0.6826  0.4717
10677TIP3   OH253521   0.874   4.110  16.747  0.3720 -0.5157  0.2462
10677TIP3    H153522   0.921   4.187  16.777 -0.2252 -0.1979  0.3896
10677TIP3    H253523   0.933   4.067  16.685  1.1574 -0.5530  1.0039
10678TIP3   OH253524   2.226   2.115   3.473 -0.1597  0.4083  0.4695
10678TIP3    H153525   2.199   2.031   3.435  2.4735  0.6409 -2.3374
10678TIP3    H253526   2.154   2.175   3.454 -1.0561 -0.6646  0.3754
10679TIP3   OH253527   4.486   1.565   5.662  0.0515 -0.1230 -0.4506
10679TIP3    H153528   4.501   1.591   5.753  0.4446  0.1288 -0.5887
10679TIP3    H253529   4.545   1.491   5.648  0.5821  0.3461 -0.7416
10680TIP3   OH253530   3.875   2.826   2.755 -0.0243  0.5820  0.2721
10680TIP3    H153531   3.829   2.796   2.677 -0.8293  1.9487  0.1975
10680TIP3    H253532   3.806   2.854   2.815  0.6108  0.1540  1.2322
10681TIP3   OH253533   1.742   0.788  13.158 -0.2893  0.1880 -0.3978
10681TIP3    H153534   1.766   0.879  13.141  1.3850 -0.2685 -0.7673
10681TIP3    H253535   1.744   0.779  13.253 -2.5530  1.0054 -0.2100
10682TIP3   OH253536   6.082   4.795   3.995  0.0503 -0.1349  0.2557
10682TIP3    H153537   6.093   4.888   4.015  0.7829 -0.1232 -0.1529
10682TIP3    H253538   6.071   4.753   4.080 -2.8284  0.6025  0.3689
10683TIP3   OH253539   0.402   1.938  13.820  0.5085 -0.1292  0.0181
10683TIP3    H153540   0.315   1.964  13.851  1.2691  1.0872  1.2028
10683TIP3    H253541   0.409   1.975  13.732 -0.4540 -0.9218 -0.4183
10684TIP3   OH253542   5.772   3.559   3.497 -0.1972 -0.5708  0.1634
10684TIP3    H153543   5.687   3.577   3.536  1.0561  0.5772  2.6194
10684TIP3    H253544   5.833   3.562   3.571  2.0471 -0.8538 -1.5647
10685TIP3   OH253545   3.545   5.433  14.374 -0.0982  0.4968  0.1463
10685TIP3    H153546   3.542   5.337  14.371  0.5780  0.4780 -0.2349
10685TIP3    H253547   3.468   5.461  14.325  0.3075  0.1354 -0.7360
10686TIP3   OH253548   3.119   2.896  11.728  0.1092 -0.3737 -0.2050
10686TIP3    H153549   3.207   2.869  11.754 -0.1608 -0.9415  0.1379
10686TIP3    H253550   3.111   2.870  11.637  0.7680  0.8832 -0.6421
10687TIP3   OH253551   3.212   3.897   3.599 -0.1653  0.2698 -0.2568
10687TIP3    H153552   3.127   3.901   3.643 -0.0772  0.2396 -0.0842
10687TIP3    H253553   3.255   3.979   3.622  0.6345 -0.5383  1.2485
10688TIP3   OH253554   1.461   3.562   2.596  0.0688 -0.3721 -0.0418
10688TIP3    H153555   1.443   3.494   2.660 -1.1815  0.8062  0.9067
10688TIP3    H253556   1.525   3.619   2.639 -1.4542  0.9320  0.5867
10689TIP3   OH253557   0.681   3.882   1.024 -0.4961  0.0905  0.5150
10689TIP3    H153558   0.723   3.806   1.063  1.5099  0.6478 -0.4535
10689TIP3    H253559   0.727   3.957   1.061  0.1668  0.6901 -1.4010
10690TIP3   OH253560   4.474   2.812  13.308 -0.2055  0.0569  0.4090
10690TIP3    H153561   4.397   2.755  13.307 -1.7623  2.0429 -0.2392
10690TIP3    H253562   4.497   2.820  13.401 -0.5844 -0.7893  0.5881
10691TIP3   OH253563   3.150   6.552  14.749 -0.2343  0.4157  0.0044
10691TIP3    H153564   3.100   6.605  14.686 -1.2682 -0.0643  0.4039
10691TIP3    H253565   3.235   6.597  14.756 -0.5680  1.1945 -0.7536
10692TIP3   OH253566   4.596   5.085   0.617  0.1022  0.5871  0.2354
10692TIP3    H153567   4.575   5.006   0.667 -1.1852  0.6150 -0.2135
10692TIP3    H253568   4.517   5.102   0.565  1.1659  0.9289 -1.3180
10693TIP3   OH253569   3.491   3.366   6.289  0.1811 -0.1477  0.1942
10693TIP3    H153570   3.411   3.326   6.324  0.4766 -1.0264 -0.1148
10693TIP3    H253571   3.505   3.443   6.344 -0.2495 -0.6197  0.9801
10694TIP3   OH253572   4.159   1.572  16.702 -0.0083 -0.5805  0.2834
10694TIP3    H153573   4.100   1.645  16.721  1.9790  0.7861  1.5253
10694TIP3    H253574   4.160   1.567  16.606  1.4185  2.4998  0.0159
10695TIP3   OH253575   2.166   1.563  11.789  0.4328 -0.2622 -0.4963
10695TIP3    H153576   2.173   1.550  11.884 -3.7893  0.0524  0.0549
10695TIP3    H253577   2.229   1.501  11.752  2.3136 -0.3270  2.4651
10696TIP3   OH253578   3.361   3.080  15.742 -0.0932 -0.0275  0.0372
10696TIP3    H153579   3.334   2.989  15.738  0.7863 -0.3209  0.3944
10696TIP3    H253580   3.314   3.123  15.671  0.3394 -0.9954 -0.8485
10697TIP3   OH253581   5.569   2.345   1.501  0.0336  0.3257  0.1191
10697TIP3    H153582   5.584   2.272   1.562  2.2153  1.4634  1.0855
10697TIP3    H253583   5.548   2.303   1.418 -2.1770 -1.3030  1.3979
10698TIP3   OH253584   5.950   2.712  16.316  0.3062 -0.7916  0.4301
10698TIP3    H153585   5.912   2.795  16.346  0.5349 -0.7920  0.7159
10698TIP3    H253586   5.894   2.686  16.243 -0.7064 -1.1742  1.3186
10699TIP3   OH253587   6.711   3.423   3.267 -0.4974  0.4531 -0.7668
10699TIP3    H153588   6.719   3.518   3.264 -1.7990  0.5825 -0.8072
10699TIP3    H253589   6.620   3.407   3.292  0.1303 -0.7818  0.9012
10700TIP3   OH253590   3.337   5.947  13.483 -0.2183 -0.1470 -0.0963
10700TIP3    H153591   3.249   5.920  13.509 -0.0934  0.9664  1.6347
10700TIP3    H253592   3.339   6.042  13.498  1.7014 -0.3474  1.3214
10701TIP3   OH253593   1.489   6.651   5.402  0.1737 -1.2745  0.1491
10701TIP3    H153594   1.499   6.746   5.393 -0.3000 -1.2383 -0.0035
10701TIP3    H253595   1.564   6.624   5.456  1.6051 -1.1300 -1.6445
10702TIP3   OH253596   6.451   2.262   4.282 -0.2507 -0.4294 -0.3900
10702TIP3    H153597   6.375   2.221   4.242 -0.1653 -1.0821  0.1091
10702TIP3    H253598   6.526   2.234   4.229 -0.2517 -0.4951 -0.3558
10703TIP3   OH253599   2.907   2.333   4.130 -0.0259 -0.2748  0.8747
10703TIP3    H153600   2.902   2.321   4.035  1.2672  0.5680  0.6728
10703TIP3    H253601   2.923   2.244   4.164 -0.9082 -0.6438  0.3525
10704TIP3   OH253602   3.140   1.043   0.291  0.1350  0.0774  0.2629
10704TIP3    H153603   3.120   1.095   0.368 -0.5335  0.3831 -0.1146
10704TIP3    H253604   3.231   1.014   0.304 -0.0628 -0.0983  1.2815
10705TIP3   OH253605   2.560   3.808  14.176 -0.2265 -0.1222  0.0096
10705TIP3    H153606   2.610   3.871  14.123 -0.4279 -0.9858 -1.2291
10705TIP3    H253607   2.479   3.854  14.198  1.0074  1.2949  2.0320
10706TIP3   OH253608   6.793   1.086   2.474  0.0693  0.1083  0.1326
10706TIP3    H153609   6.763   0.996   2.471 -0.4134  0.2555  0.4732
10706TIP3    H253610   6.771   1.116   2.562  2.9740 -0.3692  1.1292
10707TIP3   OH253611   0.996   2.003  14.504 -0.6428  0.6425  0.2632
10707TIP3    H153612   0.998   1.983  14.410 -0.5758  1.5154  0.0682
10707TIP3    H253613   1.008   1.918  14.547 -2.2949 -0.0157 -0.4970
10708TIP3   OH253614   2.481   1.213  11.897 -0.0388 -0.4924 -0.2315
10708TIP3    H153615   2.519   1.158  11.828 -0.1420 -1.6607  0.6012
10708TIP3    H253616   2.447   1.290  11.851 -0.8748 -1.6256 -1.6183
10709TIP3   OH253617   6.762   1.996  12.148 -0.3092 -0.3112  0.0137
10709TIP3    H153618   6.799   1.913  12.116  0.3649 -0.0157  0.0102
10709TIP3    H253619   6.778   1.994  12.242  0.5003  0.2036 -0.1080
10710TIP3   OH253620   5.512   6.680   2.107 -0.1155  0.4859  0.1373
10710TIP3    H153621   5.562   6.745   2.057  0.4855  0.6471  0.9274
10710TIP3    H253622   5.487   6.726   2.187 -0.4623  0.0134  0.3005
10711TIP3   OH253623   2.099   1.099   5.765  0.3447  0.2647  0.6980
10711TIP3    H153624   2.142   1.135   5.687  2.5071 -3.5827 -0.1793
10711TIP3    H253625   2.124   1.158   5.836  0.8232  2.2477 -1.0288
10712TIP3   OH253626   2.274   0.432   6.594 -0.1671 -0.3506 -0.1902
10712TIP3    H153627   2.193   0.467   6.632 -0.2938 -0.5697 -0.2525
10712TIP3    H253628   2.311   0.504   6.544  0.1355  0.0264  0.5623
10713TIP3   OH253629   4.350   0.533  14.051  0.5569 -0.0152 -0.1091
10713TIP3    H153630   4.411   0.464  14.026  1.1759  0.6894 -0.5787
10713TIP3    H253631   4.379   0.610  14.002 -0.2547  0.5249  0.2361
10714TIP3   OH253632   0.067   3.740   6.031 -0.5356  0.2912 -0.1330
10714TIP3    H153633   0.163   3.747   6.029 -0.2347 -2.4193 -0.0565
10714TIP3    H253634   0.042   3.777   6.115  0.3234  1.8194 -0.5180
10715TIP3   OH253635   4.087   3.683   4.113 -0.0887 -0.4971 -0.5468
10715TIP3    H153636   4.031   3.639   4.178 -0.1892 -1.1965 -1.1014
10715TIP3    H253637   4.106   3.616   4.048 -0.3063  0.2965 -1.4594
10716TIP3   OH253638   0.559   5.947   5.332  0.0344  0.0383  0.7728
10716TIP3    H153639   0.639   5.919   5.286 -0.0102 -0.2497  0.8655
10716TIP3    H253640   0.552   6.040   5.312  0.3895  0.0655  0.7549
10717TIP3   OH253641   1.721   0.881  16.294  0.2056 -0.6107  0.0104
10717TIP3    H153642   1.766   0.916  16.371 -0.4917  0.8884 -0.2246
10717TIP3    H253643   1.791   0.838  16.244  0.9924 -0.1097  0.6424
10718TIP3   OH253644   5.460   5.408  13.457  0.1270  0.2614 -0.5361
10718TIP3    H153645   5.403   5.337  13.427  0.5482 -0.2526 -0.1498
10718TIP3    H253646   5.429   5.427  13.546  0.4288  0.1223 -0.4019
10719TIP3   OH253647   3.567   5.496   5.301 -0.0648 -0.1720  0.2351
10719TIP3    H153648   3.621   5.424   5.270 -0.2390  0.3878 -1.4690
10719TIP3    H253649   3.477   5.463   5.294 -0.1113 -0.0038  0.0373
10720TIP3   OH253650   1.340   6.171   0.225  0.3459  0.2783 -0.2998
10720TIP3    H153651   1.426   6.212   0.233  1.1325 -1.2235 -0.6111
10720TIP3    H253652   1.345   6.094   0.282 -0.4492 -0.3369 -1.0381
10721TIP3   OH253653   1.265   6.381  11.145  0.3633 -0.5462  0.2366
10721TIP3    H153654   1.294   6.376  11.054  1.0450 -2.7190  0.5071
10721TIP3    H253655   1.253   6.474  11.162  2.4797  0.0971 -1.3908
10722TIP3   OH253656   2.128   6.056  15.983  0.2811 -0.7857  0.4754
10722TIP3    H153657   2.129   6.140  16.029 -1.3637 -1.2015  1.3176
10722TIP3    H253658   2.110   6.079  15.892  0.2362 -0.1943  0.6318
10723TIP3   OH253659   2.371   0.988  12.559  0.0601  0.1991 -0.0639
10723TIP3    H153660   2.360   0.912  12.616 -2.7927  1.2410  0.9479
10723TIP3    H253661   2.430   0.957  12.490  2.6195 -1.4959  2.6509
10724TIP3   OH253662   5.542   1.631  10.926 -0.6055  0.5852  0.2856
10724TIP3    H153663   5.617   1.681  10.894 -0.5510  1.2431  1.3652
10724TIP3    H253664   5.467   1.669  10.881 -0.2065 -0.9755 -1.8331
10725TIP3   OH253665   0.641   6.562  12.103  0.4223 -0.3150  0.4412
10725TIP3    H153666   0.704   6.598  12.040 -0.2819  2.3130  1.1249
10725TIP3    H253667   0.692   6.549  12.183  1.0966 -2.7459 -0.3021
10726TIP3   OH253668   2.500   4.622   1.278 -0.1010 -0.3995  0.4748
10726TIP3    H153669   2.580   4.571   1.282  0.3729  0.2207 -0.4790
10726TIP3    H253670   2.472   4.615   1.186 -1.5443 -1.1943  0.9370
10727TIP3   OH253671   0.563   5.133  16.030  0.3102  0.0332 -0.0473
10727TIP3    H153672   0.473   5.167  16.035  0.3719  0.3492 -0.8353
10727TIP3    H253673   0.567   5.066  16.097 -0.4188  0.2463  0.2252
10728TIP3   OH253674   4.434   4.524  10.750 -0.0413 -0.3196 -0.7052
10728TIP3    H153675   4.523   4.558  10.756 -0.0740 -0.0809 -1.5275
10728TIP3    H253676   4.425   4.468  10.827  1.3912 -1.7218 -1.5151
10729TIP3   OH253677   1.983   2.369   0.161 -0.5123  0.3042  0.5413
10729TIP3    H153678   1.996   2.332   0.249  0.6705  0.4052  0.4248
10729TIP3    H253679   1.989   2.463   0.173 -1.4922  0.3816  0.5146
10730TIP3   OH253680   2.548   2.722   2.576 -0.6406  0.2823  0.1479
10730TIP3    H153681   2.632   2.683   2.602  0.4237  2.0263 -0.5145
10730TIP3    H253682   2.517   2.766   2.654  0.2679  1.6228 -0.2115
10731TIP3   OH253683   0.110   1.776   4.451 -0.0639 -0.0893  0.1466
10731TIP3    H153684   0.037   1.773   4.513 -0.5016 -1.5239 -0.3824
10731TIP3    H253685   0.098   1.858   4.403 -0.1252  0.6857  1.4598
10732TIP3   OH253686   5.019   2.305   0.230 -0.1069 -0.2736  0.5149
10732TIP3    H153687   5.102   2.352   0.239 -0.2349  0.0091  0.2553
10732TIP3    H253688   5.043   2.213   0.230  0.2177 -0.1902  0.3423
10733TIP3   OH253689   3.377   1.057  13.378  0.1761 -0.2906 -0.0394
10733TIP3    H153690   3.294   1.105  13.371  0.0529 -0.5377 -0.3284
10733TIP3    H253691   3.355   0.978  13.426 -0.1395 -1.1867 -1.5866
10734TIP3   OH253692   0.530   6.407  16.101  0.4215 -0.4638 -0.1142
10734TIP3    H153693   0.565   6.319  16.091  2.6847  0.5122 -1.6908
10734TIP3    H253694   0.570   6.457  16.030 -1.8273  1.5513 -0.0825
10735TIP3   OH253695   0.505   1.026   4.075  0.0472  0.1262  0.6080
10735TIP3    H153696   0.577   1.042   4.014  1.1741 -1.5933  1.4015
10735TIP3    H253697   0.527   0.943   4.116 -1.5985  0.3602  2.0673
10736TIP3   OH253698   1.171   4.204   6.365  0.1292  0.0824  0.7756
10736TIP3    H153699   1.161   4.250   6.281 -1.1282  1.2620  1.5158
10736TIP3    H253700   1.256   4.231   6.398 -0.5801  2.0070  1.1975
10737TIP3   OH253701   2.994   5.050  15.907  0.2102  0.6445  0.6893
10737TIP3    H153702   3.065   5.103  15.943  1.6130 -0.3648 -0.4879
10737TIP3    H253703   3.011   4.961  15.940  0.9410 -0.0921 -1.4999
10738TIP3   OH253704   1.527   0.068  11.742 -0.1948 -0.3073  0.3383
10738TIP3    H153705   1.471   0.125  11.794  1.4052  1.0990  0.5962
10738TIP3    H253706   1.510   0.093  11.651 -0.1620 -0.0657  0.3991
10739TIP3   OH253707   1.969   5.870   0.721 -0.3466 -0.2041 -0.4565
10739TIP3    H153708   2.064   5.872   0.711  0.0653  2.1769  2.2675
10739TIP3    H253709   1.937   5.928   0.652  0.1624 -0.8726 -1.2778
10740TIP3   OH253710   0.765   2.877  15.968 -0.2150  0.0343 -0.5294
10740TIP3    H153711   0.842   2.923  15.933  0.3874  0.3823  1.1553
10740TIP3    H253712   0.787   2.784  15.960 -0.9312  0.0105 -2.8369
10741TIP3   OH253713   3.097   5.025  13.158  0.5905 -0.2880 -0.1655
10741TIP3    H153714   3.032   5.003  13.225  1.4177 -0.3254  0.6371
10741TIP3    H253715   3.047   5.072  13.091  0.1414  1.8091  1.5310
10742TIP3   OH253716   5.180   0.740   4.617 -0.0382 -0.7775  0.2858
10742TIP3    H153717   5.220   0.772   4.698  0.8483 -0.3165 -0.3133
10742TIP3    H253718   5.242   0.674   4.585 -0.0048 -0.4211 -0.3951
10743TIP3   OH253719   4.498   2.309  15.728 -0.0269  0.2111 -0.1325
10743TIP3    H153720   4.437   2.369  15.685 -0.3371  0.4650  0.6432
10743TIP3    H253721   4.502   2.341  15.819 -0.2414 -0.9777  0.3054
10744TIP3   OH253722   1.900   0.324   1.328  0.2737  0.2664 -0.3366
10744TIP3    H153723   1.832   0.282   1.275  1.5598 -0.2705 -1.6184
10744TIP3    H253724   1.939   0.389   1.270  0.0366  1.4770  0.8038
10745TIP3   OH253725   1.022   1.323   5.687  0.1860  0.8042  0.1269
10745TIP3    H153726   1.115   1.339   5.674  0.2210  0.8391  0.4039
10745TIP3    H253727   0.989   1.296   5.602  0.5095  0.4913  0.1030
10746TIP3   OH253728   2.603   0.293   1.846 -0.3865 -0.1475  0.5552
10746TIP3    H153729   2.571   0.338   1.924 -1.6740  1.4153 -0.8034
10746TIP3    H253730   2.683   0.248   1.876 -0.6651  0.6322  2.6737
10747TIP3   OH253731   6.292   0.850   5.108 -0.4858  0.2135 -0.2977
10747TIP3    H153732   6.231   0.812   5.044 -0.2530 -0.9153  0.1156
10747TIP3    H253733   6.255   0.936   5.128 -1.8403 -0.3481 -0.2264
10748TIP3   OH253734   0.102   2.720   4.414 -0.2910  0.3152  0.0322
10748TIP3    H153735   0.062   2.801   4.446 -0.9435 -0.0630  0.1742
10748TIP3    H253736   0.105   2.731   4.319 -1.7518 -0.1127 -0.0787
10749TIP3   OH253737   2.703   2.162  13.969 -0.1623  0.6510 -0.2899
10749TIP3    H153738   2.747   2.204  14.043  2.0690 -3.0894  0.7554
10749TIP3    H253739   2.617   2.138  14.003  0.0229  0.9066  0.3784
10750TIP3   OH253740   3.746   5.043  12.992 -0.4215  0.2667 -0.6430
10750TIP3    H153741   3.759   5.010  12.903  1.3861 -1.4435  0.1897
10750TIP3    H253742   3.718   4.966  13.042  1.8340  0.3798  0.9207
10751TIP3   OH253743   1.388   3.550   5.952 -0.7428 -0.2888  0.3847
10751TIP3    H153744   1.317   3.614   5.947 -0.6060 -0.2203 -0.9596
10751TIP3    H253745   1.446   3.586   6.020 -1.0161  0.6600  0.1420
10752TIP3   OH253746   1.128   2.769  13.053 -0.1773  0.4680 -0.6513
10752TIP3    H153747   1.190   2.805  13.117  0.6396  0.0141 -1.1706
10752TIP3    H253748   1.171   2.692  13.018 -0.4852  0.8543 -1.9528
10753TIP3   OH253749   4.956   1.212   0.637  0.1137 -0.1603 -0.4881
10753TIP3    H153750   5.019   1.213   0.566  0.8979  2.6672  0.1202
10753TIP3    H253751   4.999   1.162   0.707  0.9066  0.1867 -0.7209
10754TIP3   OH253752   0.366   1.402  17.147 -0.1867  0.1117 -0.0044
10754TIP3    H153753   0.300   1.334  17.157 -0.0159  0.0419  0.7564
10754TIP3    H253754   0.391   1.399  17.055 -1.0177 -0.0668 -0.2373
10755TIP3   OH253755   6.054   4.842  16.901  0.3975  1.2976 -0.3174
10755TIP3    H153756   6.019   4.925  16.869  2.8652  1.1037 -4.0354
10755TIP3    H253757   6.129   4.866  16.955 -0.2645  1.4889  0.5370
10756TIP3   OH253758   3.543   3.208   5.899  0.1820  0.0616 -0.6573
10756TIP3    H153759   3.507   3.149   5.965  2.6506 -1.6231 -0.7310
10756TIP3    H253760   3.467   3.233   5.846 -1.1485 -2.0918  0.1037
10757TIP3   OH253761   2.312   5.710   1.826  0.4289 -0.2776 -0.0611
10757TIP3    H153762   2.273   5.623   1.834  1.8950 -0.9528  0.0158
10757TIP3    H253763   2.243   5.764   1.789 -0.8269 -1.2365  0.7960
10758TIP3   OH253764   0.824   2.611  15.963 -0.4607  0.1739  0.5184
10758TIP3    H153765   0.888   2.561  15.910 -2.1064 -2.3543  0.7255
10758TIP3    H253766   0.781   2.544  16.016 -2.9635  1.8467  0.7115
10759TIP3   OH253767   4.640   3.716   5.323 -0.2309  0.2204 -0.9248
10759TIP3    H153768   4.687   3.704   5.406  0.0058  0.9639 -0.9463
10759TIP3    H253769   4.642   3.630   5.282  1.0827  0.2135 -0.9039
10760TIP3   OH253770   1.601   4.846  11.336 -0.4629  0.0888  0.3943
10760TIP3    H153771   1.619   4.756  11.309 -3.0047 -0.2885 -0.2309
10760TIP3    H253772   1.621   4.899  11.259 -3.6055 -0.5391 -0.9953
10761TIP3   OH253773   1.875   2.547   2.910 -0.2055  0.3863 -0.2804
10761TIP3    H153774   1.966   2.564   2.887 -0.2128  2.0020  0.7475
10761TIP3    H253775   1.880   2.485   2.983  0.0222 -0.3159 -0.8872
10762TIP3   OH253776   2.534   2.882  12.833  0.1223 -0.8647 -0.6230
10762TIP3    H153777   2.534   2.971  12.868  2.6243  0.4398 -3.4270
10762TIP3    H253778   2.565   2.828  12.904  0.1951  0.7745  0.6595
10763TIP3   OH253779   2.678   0.091  16.478 -0.6789 -0.2476 -0.3000
10763TIP3    H153780   2.655   0.015  16.424  2.3239 -2.1747  0.9211
10763TIP3    H253781   2.736   0.143  16.422  0.8736 -1.2485  0.3160
10764TIP3   OH253782   2.607   3.608  14.604 -0.6242  0.1198 -0.4196
10764TIP3    H153783   2.694   3.603  14.643 -0.6160 -1.3411 -0.5790
10764TIP3    H253784   2.602   3.697  14.568 -0.3619  1.3090  2.2080
10765TIP3   OH253785   5.758   4.102   5.280  0.4801 -0.0914  0.1736
10765TIP3    H153786   5.800   4.189   5.276  0.8194 -0.2775 -0.4138
10765TIP3    H253787   5.724   4.097   5.369  2.5583 -0.3098  1.0219
10766TIP3   OH253788   2.593   4.475  13.898 -0.2448 -0.5921  0.2173
10766TIP3    H153789   2.564   4.495  13.808  0.1217  1.0245  0.4203
10766TIP3    H253790   2.662   4.539  13.915  0.8336 -1.9283  1.1042
10767TIP3   OH253791   1.695   6.438   1.070 -0.5266 -0.0896 -0.4278
10767TIP3    H153792   1.751   6.425   0.993  0.3230  0.0211  0.1610
10767TIP3    H253793   1.606   6.431   1.036 -0.1609 -1.9508 -1.0862
10768TIP3   OH253794   6.246   1.307   5.530 -0.3156  0.1239  0.4176
10768TIP3    H153795   6.256   1.226   5.580 -0.6022  0.8208  1.6624
10768TIP3    H253796   6.154   1.331   5.541  0.3172  2.0574  2.4986
10769TIP3   OH253797   4.221   5.666  13.190  0.9657  0.2775  0.2184
10769TIP3    H153798   4.184   5.742  13.235 -0.7478  1.0050 -2.2306
10769TIP3    H253799   4.169   5.592  13.222 -0.0354  0.7382 -0.3050
10770TIP3   OH253800   1.871   4.001  10.897  0.5369  0.1723 -0.4380
10770TIP3    H153801   1.885   4.032  10.808  1.0209  1.0316 -0.0797
10770TIP3    H253802   1.802   3.935  10.890  1.2414 -0.4789 -1.5779
10771TIP3   OH253803   5.570   2.286  13.828 -0.1540 -0.3821  0.0818
10771TIP3    H153804   5.487   2.321  13.794 -0.8273 -1.8781  0.0972
10771TIP3    H253805   5.545   2.238  13.907  0.6945 -1.0462 -0.0388
10772TIP3   OH253806   6.313   1.569   1.289  0.1452  0.5140  0.1965
10772TIP3    H153807   6.395   1.544   1.248 -0.0778  0.2488 -0.0951
10772TIP3    H253808   6.319   1.664   1.300  1.3218  0.2675  2.0157
10773TIP3   OH253809   2.014   0.381   2.752 -0.3260 -0.5691  0.3955
10773TIP3    H153810   1.950   0.311   2.738 -0.4657 -0.3165 -0.2726
10773TIP3    H253811   1.964   0.451   2.794 -0.6896 -0.0643 -0.8451
10774TIP3   OH253812   4.893   3.208  10.622 -0.2631 -0.1463  0.2437
10774TIP3    H153813   4.860   3.286  10.578 -0.4528 -0.2821  0.1477
10774TIP3    H253814   4.988   3.221  10.624 -0.2710 -0.0425 -0.0190
10775TIP3   OH253815   4.812   4.217  13.637  0.6182 -0.0222 -0.2377
10775TIP3    H153816   4.787   4.235  13.547  1.2841 -0.0264 -0.4302
10775TIP3    H253817   4.887   4.158  13.630  1.2314  0.6781  0.2916
10776TIP3   OH253818   0.587   0.991   0.916  0.4649  0.0922  0.6774
10776TIP3    H153819   0.660   1.043   0.883  0.9447 -0.8678  0.2156
10776TIP3    H253820   0.516   1.055   0.927  0.4818  0.6053 -1.5845
10777TIP3   OH253821   4.420   5.723  13.768  0.3064 -0.1326 -0.4376
10777TIP3    H153822   4.357   5.783  13.808  2.0835  0.9971  0.7954
10777TIP3    H253823   4.421   5.747  13.676  0.6087  1.4374 -0.0527
10778TIP3   OH253824   6.236   4.501   0.762  0.3232  0.0622  0.7619
10778TIP3    H153825   6.258   4.564   0.830  1.4332  0.2328  0.2547
10778TIP3    H253826   6.319   4.462   0.737 -0.5039 -3.4858  2.8050
10779TIP3   OH253827   4.640   3.460  13.442 -0.1563  0.2979  0.3177
10779TIP3    H153828   4.613   3.552  13.438  1.1808  0.7395  0.8499
10779TIP3    H253829   4.714   3.459  13.503  0.6084 -0.9363 -0.5693
10780TIP3   OH253830   3.484   5.287   3.018  0.1943  0.6325  0.1404
10780TIP3    H153831   3.578   5.282   3.002  0.2526  1.6311  0.1056
10780TIP3    H253832   3.446   5.224   2.957  0.7114  1.5341 -1.1361
10781TIP3   OH253833   1.957   4.119   1.026 -0.1439 -0.2429  0.4821
10781TIP3    H153834   1.983   4.040   0.978 -0.0213 -0.2977  0.6369
10781TIP3    H253835   1.863   4.125   1.013  0.0579  0.4152 -0.7712
10782TIP3   OH253836   1.116   5.695   0.038 -0.2062 -0.0524 -0.1172
10782TIP3    H153837   1.166   5.768   0.075  0.2787  0.1888 -1.1919
10782TIP3    H253838   1.172   5.619   0.049 -0.7381 -0.2909  1.0600
10783TIP3   OH253839   5.382   5.558   0.998 -0.0022  0.8198 -0.3538
10783TIP3    H153840   5.449   5.594   1.056 -1.1120  3.4292 -0.5436
10783TIP3    H253841   5.307   5.542   1.056  0.7440 -2.2986 -0.0969
10784TIP3   OH253842   0.051   2.104  17.246 -0.1099  0.4464 -0.4116
10784TIP3    H153843   0.049   2.196  17.221 -1.0745  0.2787 -1.0150
10784TIP3    H253844   0.143   2.083  17.256  0.1137  1.5392 -0.0250
10785TIP3   OH253845   4.834   5.449   0.309 -0.0313  0.1731 -0.1575
10785TIP3    H153846   4.923   5.413   0.298  0.4147  1.6920 -2.2924
10785TIP3    H253847   4.826   5.464   0.403  2.3543  0.8600  0.0161
10786TIP3   OH253848   1.825   3.204  15.698  0.4511 -0.5280 -0.9932
10786TIP3    H153849   1.777   3.165  15.625  0.5140 -1.3619 -0.6042
10786TIP3    H253850   1.834   3.296  15.674 -0.8593 -0.4681 -1.3158
10787TIP3   OH253851   5.956   6.809   0.664  0.1126  0.3283 -0.3971
10787TIP3    H153852   5.870   6.804   0.707  1.4894  0.6602  2.6514
10787TIP3    H253853   6.012   6.854   0.727  2.8347 -0.8107 -1.8361
10788TIP3   OH253854   2.912   3.920  12.888 -0.1614  0.1229  0.3763
10788TIP3    H153855   3.007   3.921  12.881  0.0896 -2.1331  2.4318
10788TIP3    H253856   2.887   4.012  12.880  2.3802  1.0401  1.8721
10789TIP3   OH253857   1.691   6.036   2.387 -0.5228  0.1056 -0.2386
10789TIP3    H153858   1.678   6.102   2.455  1.2729 -0.5784  0.8293
10789TIP3    H253859   1.778   6.054   2.353 -0.5985 -0.8201 -0.9513
10790TIP3   OH253860   3.824   2.978  13.533 -0.8400 -0.2072 -0.2228
10790TIP3    H153861   3.897   2.916  13.528 -1.5590 -1.0124 -1.0269
10790TIP3    H253862   3.864   3.059  13.566  0.5064 -0.4762 -1.1103
10791TIP3   OH253863   6.247   5.278  13.904 -0.9147 -0.4910 -0.4686
10791TIP3    H153864   6.161   5.251  13.935 -0.4891 -0.9159  0.3663
10791TIP3    H253865   6.309   5.230  13.959 -0.1430 -0.3010 -1.1549
10792TIP3   OH253866   0.006   3.205  12.255 -0.5329  0.1612 -0.2457
10792TIP3    H153867   0.064   3.280  12.242 -0.3177  0.0811  0.2099
10792TIP3    H253868  -0.031   3.187  12.169 -0.4624  0.6898 -0.3903
10793TIP3   OH253869   0.039   2.635  17.172 -0.0940  0.2406  0.0216
10793TIP3    H153870   0.117   2.672  17.214 -0.2682  0.6387 -0.0004
10793TIP3    H253871   0.049   2.656  17.079  0.0873 -0.2772 -0.0796
10794TIP3   OH253872   1.543   0.780  14.309 -0.5036 -0.4296  0.1358
10794TIP3    H153873   1.592   0.718  14.254 -1.1585 -1.0984  0.2846
10794TIP3    H253874   1.544   0.741  14.396 -0.4592  0.0454  0.3496
10795TIP3   OH253875   2.542   3.502   3.214  0.0444 -0.1321 -0.4626
10795TIP3    H153876   2.532   3.413   3.248  1.1992 -0.7186 -1.6116
10795TIP3    H253877   2.513   3.497   3.123  0.2825  0.6335 -0.5908
10796TIP3   OH253878   2.352   1.677  13.141  0.1211  0.3180  0.2829
10796TIP3    H153879   2.330   1.594  13.185 -1.6006  0.5418 -0.0763
10796TIP3    H253880   2.447   1.685  13.151  0.2019 -1.2446  1.1186
10797TIP3   OH253881   6.777   1.154   6.532 -0.5504  0.4504  0.2611
10797TIP3    H153882   6.740   1.242   6.521 -0.6343  0.4212  0.3031
10797TIP3    H253883   6.792   1.122   6.444  2.2102  1.6343  0.1825
10798TIP3   OH253884   1.409   2.817   1.860  0.6757 -0.1591 -0.0196
10798TIP3    H153885   1.426   2.861   1.944  2.0041  1.6604 -1.1704
10798TIP3    H253886   1.481   2.755   1.850  0.6168 -0.2459  0.0866
10799TIP3   OH253887   2.564   0.536   4.093 -0.7509 -0.2715 -0.2322
10799TIP3    H153888   2.589   0.444   4.096  3.0352  0.5246 -1.9386
10799TIP3    H253889   2.534   0.550   4.004  0.1342  0.4306 -0.4288
10800TIP3   OH253890   0.317   5.567   1.219  0.1877  0.0882  0.2543
10800TIP3    H153891   0.317   5.483   1.267 -0.8587 -0.2374 -0.2767
10800TIP3    H253892   0.406   5.599   1.227  1.2497 -2.1768 -1.4047
10801TIP3   OH253893   6.612   3.559   3.532 -0.0114  0.5216  0.3969
10801TIP3    H153894   6.636   3.551   3.624  0.5548 -0.3530  0.1871
10801TIP3    H253895   6.560   3.481   3.513 -0.4429  0.8828  0.0718
10802TIP3   OH253896   3.528   6.018  16.982  0.1460  0.4721 -0.4382
10802TIP3    H153897   3.444   5.976  17.001  0.4468 -0.0354 -0.2289
10802TIP3    H253898   3.554   5.984  16.896 -0.9059  2.2838 -1.5463
10803TIP3   OH253899   0.200   4.904   0.631  0.3124 -0.2607  0.4938
10803TIP3    H153900   0.145   4.826   0.641  1.8801 -1.4566  0.1498
10803TIP3    H253901   0.185   4.954   0.711 -2.5033  0.3345 -0.2647
10804TIP3   OH253902   4.142   6.070   6.462 -0.1769 -0.3297 -0.0249
10804TIP3    H153903   4.232   6.092   6.440 -0.5436 -0.9013 -2.4270
10804TIP3    H253904   4.144   5.977   6.482 -0.6439 -1.2019 -3.4520
10805TIP3   OH253905   2.730   4.540  12.635 -0.0230 -0.1706 -0.2587
10805TIP3    H153906   2.677   4.504  12.706 -0.7093  0.5279 -0.3969
10805TIP3    H253907   2.720   4.635  12.644  0.4466 -0.0590 -0.8624
10806TIP3   OH253908   5.859   0.395  14.838 -0.2319  0.0631  0.1972
10806TIP3    H153909   5.816   0.356  14.762 -0.9058  2.3425 -0.6799
10806TIP3    H253910   5.822   0.348  14.913 -1.9280 -0.1549 -0.7185
10807TIP3   OH253911   4.721   1.221   1.678 -0.1803 -0.0594  0.0895
10807TIP3    H153912   4.688   1.253   1.594 -0.7451 -1.1202 -0.1146
10807TIP3    H253913   4.672   1.140   1.693 -0.6414  0.5102  1.8204
10808TIP3   OH253914   3.110   5.399  16.695  0.7439 -0.4865 -0.2902
10808TIP3    H153915   3.180   5.426  16.636  1.1794  0.6727  0.7213
10808TIP3    H253916   3.134   5.311  16.722  2.1233  0.1055  0.4799
10809TIP3   OH253917   0.638   2.683  14.223 -0.3630  0.1222 -0.0646
10809TIP3    H153918   0.690   2.626  14.279 -0.6819 -0.4712 -0.3595
10809TIP3    H253919   0.702   2.730  14.169  0.0113  1.4382  1.4463
10810TIP3   OH253920   2.337   4.719   6.135 -0.8439  0.2811  0.4039
10810TIP3    H153921   2.253   4.764   6.141 -1.4185 -0.5513 -0.8427
10810TIP3    H253922   2.331   4.649   6.200 -2.0580 -1.1277 -1.1078
10811TIP3   OH253923   1.606   4.372   4.806 -0.4087 -0.0484  0.0266
10811TIP3    H153924   1.693   4.393   4.772 -0.2890  0.0586  0.3956
10811TIP3    H253925   1.563   4.457   4.816 -0.3989 -0.0702  0.2598
10812TIP3   OH253926   1.015   5.148  17.260 -0.0962  0.2465 -0.2240
10812TIP3    H153927   1.028   5.054  17.247 -1.5220 -0.0862  0.4576
10812TIP3    H253928   1.069   5.170  17.336  0.4162  0.0310 -0.5235
10813TIP3   OH253929   3.630   0.902  16.190  0.0434 -0.0917 -0.1818
10813TIP3    H153930   3.698   0.887  16.255 -2.3270 -2.1153  2.0595
10813TIP3    H253931   3.561   0.949  16.238 -1.1758 -0.3020 -1.6481
10814TIP3   OH253932   0.270   1.907   0.801  0.7857 -0.7197  0.1612
10814TIP3    H153933   0.277   1.853   0.879 -1.2931  0.6741  1.4097
10814TIP3    H253934   0.181   1.893   0.770  0.8821  0.4168 -0.6794
10815TIP3   OH253935   2.390   1.276  17.017 -0.2731  0.2647 -0.5515
10815TIP3    H153936   2.364   1.343  16.954  0.9457  1.5283  0.2388
10815TIP3    H253937   2.478   1.250  16.989  0.5401  1.2875  0.9342
10816TIP3   OH253938   2.579   5.821  11.124 -0.8012  0.0420 -0.4924
10816TIP3    H153939   2.667   5.852  11.104 -1.4146  0.9428 -1.9477
10816TIP3    H253940   2.584   5.725  11.115  0.7173 -0.2549  2.4606
10817TIP3   OH253941   3.398   3.566   1.118 -0.2808 -0.7657  0.0006
10817TIP3    H153942   3.474   3.603   1.073 -0.6208 -1.2378 -0.9911
10817TIP3    H253943   3.395   3.475   1.089  0.4782 -1.6038  2.3076
10818TIP3   OH253944   4.785   2.362  11.363  0.0930  0.0555  0.0492
10818TIP3    H153945   4.801   2.292  11.299 -2.6501 -1.7851  1.2043
10818TIP3    H253946   4.734   2.427  11.314  1.5941  0.7368 -0.6892
10819TIP3   OH253947   6.188   0.309  15.974 -0.2554  0.0814 -0.3287
10819TIP3    H153948   6.171   0.336  15.884 -1.7760 -1.6716 -0.6299
10819TIP3    H253949   6.106   0.270  16.003  0.2504  0.4910  1.7946
10820TIP3   OH253950   1.726   5.761   2.854 -0.3212 -0.6322  0.3151
10820TIP3    H153951   1.821   5.753   2.862 -0.3443 -1.2595  0.0297
10820TIP3    H253952   1.711   5.780   2.761 -0.5021 -1.0102  0.2673
10821TIP3   OH253953   3.769   0.452   2.072 -0.1462 -0.9749 -0.1360
10821TIP3    H153954   3.700   0.393   2.040  1.3444 -2.7579 -0.2481
10821TIP3    H253955   3.845   0.395   2.084  0.9092  0.6560  1.3783
10822TIP3   OH253956   0.687   2.206  16.496  0.3624 -0.0452  0.2758
10822TIP3    H153957   0.720   2.265  16.564  0.4113  1.8756 -1.3424
10822TIP3    H253958   0.597   2.234  16.481  0.1972 -0.7651 -0.1146
10823TIP3   OH253959   3.487   4.169  14.381  0.1524 -0.3558 -0.5030
10823TIP3    H153960   3.560   4.141  14.326  0.6631  0.2857 -0.1648
10823TIP3    H253961   3.421   4.101  14.369  0.8826 -1.0622 -0.6454
10824TIP3   OH253962   5.767   1.215  16.620 -0.1967  0.2227  0.3933
10824TIP3    H153963   5.768   1.131  16.574 -0.5277  0.5105 -0.1411
10824TIP3    H253964   5.786   1.280  16.553 -2.0559  0.7900  0.3567
10825TIP3   OH253965   1.312   5.523   0.045  0.0493 -0.0275 -0.2526
10825TIP3    H153966   1.308   5.472  -0.036 -0.1128  1.4121 -1.1903
10825TIP3    H253967   1.404   5.548   0.053 -0.0816  0.5506 -0.4751
10826TIP3   OH253968   6.735   6.396   6.024 -0.5012  0.2634 -0.2622
10826TIP3    H153969   6.714   6.450   6.100  2.5414 -0.8686  1.5846
10826TIP3    H253970   6.815   6.434   5.988 -1.0347 -0.1494 -1.9721
10827TIP3   OH253971   4.085   4.038  13.238 -0.0019 -0.1485  0.3982
10827TIP3    H153972   4.036   3.979  13.180  0.3808 -0.0446 -0.0417
10827TIP3    H253973   4.171   4.047  13.196  0.7457 -1.0950  1.6525
10828TIP3   OH253974   3.659   6.023   0.612 -0.1151  0.4212 -0.1872
10828TIP3    H153975   3.720   6.088   0.647  0.3560 -0.0505 -0.1162
10828TIP3    H253976   3.700   5.939   0.633 -0.6913  0.1030 -0.3230
10829TIP3   OH253977   3.486   0.412  13.933  0.4850 -0.0313  0.5050
10829TIP3    H153978   3.483   0.508  13.932  0.7180 -0.0242  0.5045
10829TIP3    H253979   3.541   0.389  13.858 -1.4189 -0.2499 -0.8977
10830TIP3   OH253980   6.052   5.238  15.460 -0.1630  0.1661  0.6049
10830TIP3    H153981   5.965   5.223  15.498 -0.4595 -0.8338 -0.4316
10830TIP3    H253982   6.055   5.332  15.444 -2.6484 -0.1653 -2.9466
10831TIP3   OH253983   1.072   0.961  13.351 -0.8424 -0.1413  0.4887
10831TIP3    H153984   1.123   0.963  13.270  0.2638 -2.9596  1.0224
10831TIP3    H253985   1.134   0.992  13.418 -0.9146 -0.3435  0.6479
10832TIP3   OH253986   0.174   5.940  13.845 -0.2173 -0.3141 -0.1574
10832TIP3    H153987   0.248   6.000  13.833  0.2922 -0.5198  1.7323
10832TIP3    H253988   0.108   5.972  13.783  1.7587 -0.7373 -2.6602
10833TIP3   OH253989   1.994   0.173  15.546  0.1536  0.1217 -0.1420
10833TIP3    H153990   2.086   0.200  15.556  0.3477 -0.2614 -0.8259
10833TIP3    H253991   1.969   0.208  15.461 -0.1988 -0.1652 -0.1559
10834TIP3   OH253992   2.637   6.736   4.288 -0.5667  0.0887 -0.0366
10834TIP3    H153993   2.553   6.770   4.317 -1.8917 -1.3574 -1.9700
10834TIP3    H253994   2.690   6.815   4.270 -2.4336  1.1254 -1.3389
10835TIP3   OH253995   4.097   5.142   1.189  0.2264 -0.0817 -0.0730
10835TIP3    H153996   4.156   5.125   1.116 -0.0721  0.0604 -0.3509
10835TIP3    H253997   4.132   5.090   1.261  1.8013  1.4212  0.3404
10836TIP3   OH253998   6.199   1.211   1.377  0.7271 -0.0264  0.4969
10836TIP3    H153999   6.126   1.272   1.364  0.3749 -0.7871 -1.4538
10836TIP3    H254000   6.231   1.230   1.465  1.1472  3.4997 -0.2966
10837TIP3   OH254001   3.510   0.374  12.252 -0.0420  0.3137  0.1145
10837TIP3    H154002   3.589   0.327  12.229  0.1338  0.2899  0.7392
10837TIP3    H254003   3.439   0.327  12.208  0.1794 -0.2888  0.4025
10838TIP3   OH254004   6.328   0.303   3.343 -0.0501  0.8502  0.4178
10838TIP3    H154005   6.356   0.352   3.266  0.1158  1.0645  0.6126
10838TIP3    H254006   6.318   0.213   3.312 -0.3610  1.0072  0.0586
10839TIP3   OH254007   5.085   0.903  16.656 -0.4682  0.3380  0.2055
10839TIP3    H154008   5.127   0.905  16.570 -1.6042 -0.6989 -0.4016
10839TIP3    H254009   5.029   0.980  16.658 -1.1398 -0.1327 -0.3589
10840TIP3   OH254010   5.123   3.819  15.349  0.2493  0.2359 -0.5879
10840TIP3    H154011   5.107   3.729  15.321 -2.2115 -0.1219  1.5089
10840TIP3    H254012   5.217   3.830  15.343  0.5851 -2.3467 -1.2715
10841TIP3   OH254013   3.517   2.820   3.934 -0.3036  0.2707  0.2430
10841TIP3    H154014   3.449   2.850   3.995 -0.4794 -0.7237  0.5577
10841TIP3    H254015   3.562   2.900   3.908 -2.2095  1.0949 -0.7554
10842TIP3   OH254016   4.625   3.109  11.771 -0.9643 -0.0550 -0.3865
10842TIP3    H154017   4.682   3.032  11.768 -0.6302  0.1574  0.3602
10842TIP3    H254018   4.640   3.153  11.687 -1.0787 -0.7331 -0.7794
10843TIP3   OH254019   6.612   3.262  14.007  0.1731 -0.6035  0.2181
10843TIP3    H154020   6.560   3.342  14.000  0.7602 -0.2642 -0.5279
10843TIP3    H254021   6.641   3.259  14.098 -0.7539 -0.5586  0.5275
10844TIP3   OH254022   4.774   6.171  13.318  0.2776 -0.3318 -0.2364
10844TIP3    H154023   4.780   6.093  13.373 -1.1120 -0.0477  0.3639
10844TIP3    H254024   4.686   6.168  13.280 -2.1901  3.5628  4.0603
10845TIP3   OH254025   2.720   1.586   3.519 -0.1380 -0.2238  0.1463
10845TIP3    H154026   2.670   1.519   3.565  0.1855 -0.1750  0.5758
10845TIP3    H254027   2.669   1.604   3.440 -1.2253  0.4136  0.9637
10846TIP3   OH254028   1.909   4.993  16.732  0.0956  0.8146  0.2090
10846TIP3    H154029   1.830   4.954  16.770  0.6222 -0.0824  0.4232
10846TIP3    H254030   1.975   4.985  16.800  0.8723 -0.1885 -0.6177
10847TIP3   OH254031   0.006   4.982  11.758  0.8172  0.0033 -0.2830
10847TIP3    H154032   0.074   4.920  11.735  1.7744  0.6629  0.6771
10847TIP3    H254033  -0.010   4.968  11.851 -0.0211  0.1760 -0.3924
10848TIP3   OH254034   4.888   5.312  11.141  0.2159  1.0480  0.5736
10848TIP3    H154035   4.861   5.373  11.209  0.8016  0.0133  1.7782
10848TIP3    H254036   4.880   5.362  11.059 -2.4510  1.6810  1.1436
10849TIP3   OH254037   5.451   2.919  13.218  0.0737 -0.0765  0.5310
10849TIP3    H154038   5.485   2.900  13.306  3.0539  1.0856 -0.2595
10849TIP3    H254039   5.425   2.833  13.184  0.0895 -0.7215  2.0578
10850TIP3   OH254040   2.920   6.449  16.868 -0.9367  0.1408 -0.6929
10850TIP3    H154041   2.864   6.511  16.915  0.0916  1.0045 -0.5504
10850TIP3    H254042   2.864   6.412  16.800 -1.6049  1.1813 -0.7304
10851TIP3   OH254043   0.260   0.552  11.394 -0.4928 -0.6506 -0.3763
10851TIP3    H154044   0.339   0.564  11.341 -0.7056 -0.1357 -0.5804
10851TIP3    H254045   0.288   0.573  11.483 -0.5852  0.3145 -0.5627
10852TIP3   OH254046   6.515   0.324   0.674 -0.5663  0.0253 -0.1939
10852TIP3    H154047   6.421   0.340   0.682 -0.3176  0.4705  4.1697
10852TIP3    H254048   6.527   0.236   0.709  0.7509  0.2826  0.0316
10853TIP3   OH254049   6.084   4.578   2.939 -0.1760  0.1159 -0.3508
10853TIP3    H154050   6.092   4.580   3.035 -4.3351 -0.6411  0.1939
10853TIP3    H254051   6.059   4.488   2.919 -2.5749  0.9891 -1.6925
10854TIP3   OH254052   2.392   5.234  12.991 -0.1474  0.1022  0.5357
10854TIP3    H154053   2.325   5.288  13.034 -0.2682  1.5895 -1.4005
10854TIP3    H254054   2.371   5.238  12.898  1.3319 -1.2817  0.0888
10855TIP3   OH254055   4.670   4.449  15.042 -0.3267 -0.0512  0.2568
10855TIP3    H154056   4.692   4.364  15.082  0.8697  0.2810  0.3513
10855TIP3    H254057   4.579   4.464  15.067 -1.0806 -2.0409 -1.1078
10856TIP3   OH254058   5.982   0.899  12.886  0.7135 -0.1486 -0.4811
10856TIP3    H154059   5.936   0.963  12.832  0.3768 -0.3130 -0.3946
10856TIP3    H254060   5.995   0.942  12.970  1.5640  0.2415 -0.8012
10857TIP3   OH254061   4.710   0.518  13.693  0.1560 -0.9252  0.2243
10857TIP3    H154062   4.758   0.482  13.619  0.9960 -0.7570  0.6820
10857TIP3    H254063   4.655   0.587  13.654 -0.1661 -1.5209 -0.3854
10858TIP3   OH254064   2.947   4.641   3.050 -0.2323 -0.0054  0.2848
10858TIP3    H154065   2.858   4.635   3.015 -0.6093  0.4629  1.1176
10858TIP3    H254066   2.938   4.698   3.127  1.3359  2.8537 -1.4511
10859TIP3   OH254067   0.298   4.994  15.509 -0.0106 -0.1181 -0.1771
10859TIP3    H154068   0.214   4.952  15.491 -0.1633  0.2770 -0.4078
10859TIP3    H254069   0.285   5.040  15.592  0.7682 -2.1398  1.1316
10860TIP3   OH254070   6.241   4.750   6.909  0.4685  0.3140  0.4043
10860TIP3    H154071   6.270   4.827   6.861  0.9572 -0.0427  0.1277
10860TIP3    H254072   6.312   4.687   6.901 -0.3587 -0.5608 -0.2635
10861TIP3   OH254073   5.570   0.269  13.528 -0.4250 -0.1265  0.2618
10861TIP3    H154074   5.591   0.258  13.621  2.3432 -0.0961 -0.2709
10861TIP3    H254075   5.534   0.357  13.521  1.4331  0.7498  1.0601
10862TIP3   OH254076   3.069   6.008  13.552 -0.1334  0.7518  0.6644
10862TIP3    H154077   3.039   6.005  13.643 -0.7741 -0.6993  0.4325
10862TIP3    H254078   3.062   6.100  13.527 -1.9529  0.8679  1.4549
10863TIP3   OH254079   5.855   4.065   0.784  0.2193 -0.2394  0.3969
10863TIP3    H154080   5.763   4.040   0.794 -0.6669  2.4968 -0.0924
10863TIP3    H254081   5.862   4.094   0.693  1.5390 -0.2799  0.4680
10864TIP3   OH254082   1.069   0.030  16.697 -0.2020 -0.3940  0.6871
10864TIP3    H154083   1.048   0.096  16.764 -1.0579 -0.6852  0.7163
10864TIP3    H254084   0.989   0.023  16.645 -0.6969 -2.4965  1.6080
10865TIP3   OH254085   2.200   1.393  13.147 -0.1955  0.1786  0.5488
10865TIP3    H154086   2.175   1.351  13.065  1.5037 -0.3850  0.2673
10865TIP3    H254087   2.134   1.461  13.160 -1.6254 -0.9789 -0.2504
10866TIP3   OH254088   6.139   0.454  12.722 -0.1649  0.2153  0.0189
10866TIP3    H154089   6.191   0.388  12.676 -1.5793 -0.4075 -0.7490
10866TIP3    H254090   6.199   0.493  12.785  0.0429 -3.9343  2.7497
10867TIP3   OH254091   4.293   1.630  11.953 -0.0729  0.1309  0.2701
10867TIP3    H154092   4.374   1.583  11.932 -0.1371 -0.0941  0.5160
10867TIP3    H254093   4.242   1.568  12.005 -0.2603  0.3918  0.4016
10868TIP3   OH254094   3.711   3.176  13.924  0.1007 -0.5884 -0.1411
10868TIP3    H154095   3.687   3.166  14.016 -1.0326 -0.3845 -0.4011
10868TIP3    H254096   3.661   3.252  13.894 -0.9300 -1.6870 -1.3580
10869TIP3   OH254097   3.831   5.041  13.712 -0.2875  0.2158  0.4486
10869TIP3    H154098   3.915   4.998  13.693 -1.5089 -1.9582 -0.3735
10869TIP3    H254099   3.780   4.976  13.760 -1.0285  2.0281  2.2795
10870TIP3   OH254100   4.899   0.609   5.779 -0.1701 -0.4321 -0.1115
10870TIP3    H154101   4.919   0.607   5.685  0.2817  1.1678 -0.0688
10870TIP3    H254102   4.849   0.529   5.794 -1.8456  0.1497 -2.0985
10871TIP3   OH254103   5.134   1.819   1.183  0.0753  0.2971 -0.4568
10871TIP3    H154104   5.196   1.873   1.231  0.4390  0.0387 -0.6315
10871TIP3    H254105   5.125   1.740   1.237  0.3730  0.0697 -0.7375
10872TIP3   OH254106   3.601   2.386   4.137  0.0482  0.1394  0.2693
10872TIP3    H154107   3.646   2.419   4.215  1.0266 -0.7408  0.1022
10872TIP3    H254108   3.552   2.309   4.168 -0.2126  0.2687  0.1773
10873TIP3   OH254109   1.437   2.414  12.502 -0.5784 -0.6385  0.4622
10873TIP3    H154110   1.423   2.325  12.469  0.5655 -1.3478  1.7897
10873TIP3    H254111   1.429   2.406  12.597 -2.0781  1.0164  0.5405
10874TIP3   OH254112   6.499   2.334   3.682 -0.0868 -0.1355  0.0085
10874TIP3    H154113   6.586   2.358   3.715 -0.3189  1.6066 -0.5738
10874TIP3    H254114   6.439   2.390   3.731 -0.9472 -1.5666  0.6552
10875TIP3   OH254115   3.707   1.200  12.800  0.0830  0.1787  0.0195
10875TIP3    H154116   3.749   1.115  12.786 -1.4561 -0.6869  0.4863
10875TIP3    H254117   3.749   1.258  12.736  1.0769 -0.9531 -0.3882
10876TIP3   OH254118   1.581   1.941  11.903 -0.2906  0.4599  0.1524
10876TIP3    H154119   1.594   1.849  11.884  0.4292  0.1948  1.7540
10876TIP3    H254120   1.640   1.987  11.842 -0.8652 -0.1058 -0.8431
10877TIP3   OH254121   1.072   1.415   0.199 -0.6828 -0.5813 -0.2108
10877TIP3    H154122   1.052   1.489   0.142  0.1253 -0.6115 -0.5409
10877TIP3    H254123   1.148   1.373   0.158 -0.2982 -0.7983  0.7083
10878TIP3   OH254124   1.227   1.141   1.998 -0.0277 -0.4843  0.2869
10878TIP3    H154125   1.166   1.182   2.060 -0.3263  0.1491 -0.4102
10878TIP3    H254126   1.173   1.082   1.947 -0.1112  0.2408 -0.4785
10879TIP3   OH254127   5.479   1.270  15.540 -0.2576  0.1578  0.0221
10879TIP3    H154128   5.568   1.262  15.505 -0.6372 -2.6425 -0.5278
10879TIP3    H254129   5.437   1.335  15.484  0.7738 -0.2062 -1.2203
10880TIP3   OH254130   5.076   1.975   4.209  0.0517  0.5860 -0.3517
10880TIP3    H154131   5.145   2.008   4.267 -0.1415 -0.9571  0.8261
10880TIP3    H254132   5.123   1.929   4.139  0.2498  0.6607 -0.2670
10881TIP3   OH254133   4.939   5.652   2.860  0.0346 -0.4306 -0.1418
10881TIP3    H154134   4.858   5.679   2.902  0.9456  2.8048 -0.1674
10881TIP3    H254135   4.978   5.734   2.830  1.9581 -2.1196 -2.6533
10882TIP3   OH254136   6.682   5.593   3.649 -0.4652  0.0770 -0.0721
10882TIP3    H154137   6.626   5.527   3.688 -0.8418  2.4247  3.9070
10882TIP3    H254138   6.769   5.553   3.648 -1.3693 -2.1156 -2.4785
10883TIP3   OH254139   6.716   4.976  10.509  0.3878 -0.8738  0.1864
10883TIP3    H154140   6.666   5.057  10.510  0.9347 -0.5152 -0.4917
10883TIP3    H254141   6.803   5.001  10.541  0.4696 -1.2553  0.2691
10884TIP3   OH254142   0.977   0.737   5.276 -0.1984 -0.3816  0.2485
10884TIP3    H154143   0.904   0.778   5.323  0.3191  1.2436 -0.2981
10884TIP3    H254144   0.935   0.674   5.218 -1.0173 -0.7432  1.1978
10885TIP3   OH254145   6.780   1.751   5.955 -0.4665 -0.1981 -0.1901
10885TIP3    H154146   6.725   1.736   6.032 -0.8990 -1.4795 -0.7365
10885TIP3    H254147   6.869   1.753   5.990 -0.5864 -1.6477  0.2522
10886TIP3   OH254148   4.005   3.414   2.475 -0.0817  0.6397  0.2756
10886TIP3    H154149   3.975   3.325   2.454 -0.6220  1.0851 -0.9386
10886TIP3    H254150   4.094   3.418   2.441  0.0968  0.4330  0.7131
10887TIP3   OH254151   2.570   2.235  11.839  0.0420  0.3252 -0.2414
10887TIP3    H154152   2.478   2.228  11.864  0.1121  0.9467  0.2183
10887TIP3    H254153   2.590   2.151  11.798 -0.1978 -0.5806  1.4257
10888TIP3   OH254154   1.953   6.017  14.992 -0.1911 -0.5421  0.1183
10888TIP3    H154155   1.904   5.988  14.916  1.7511 -0.3834 -1.2619
10888TIP3    H254156   1.984   5.936  15.033  0.6149 -0.5801 -0.5535
10889TIP3   OH254157   4.241   1.503   3.440 -0.3549  0.5906  0.2000
10889TIP3    H154158   4.325   1.526   3.478 -1.0782  3.3671  0.3217
10889TIP3    H254159   4.188   1.582   3.448 -2.7460 -0.8181 -0.5558
10890TIP3   OH254160   3.007   3.651  12.653  0.1125 -0.1792  0.7090
10890TIP3    H154161   3.079   3.612  12.604  1.1498  2.5170 -0.1367
10890TIP3    H254162   3.044   3.673  12.738 -0.1740 -0.2401  0.8516
10891TIP3   OH254163   3.824   0.856   2.412 -0.1526  0.0862 -0.2088
10891TIP3    H154164   3.807   0.816   2.327 -2.2897 -0.6031  0.4829
10891TIP3    H254165   3.748   0.912   2.428  0.9981  1.5263  0.5453
10892TIP3   OH254166   4.003   2.429  15.758  0.5186  0.0445  0.0411
10892TIP3    H154167   3.911   2.430  15.783  0.3854  0.1307 -0.4431
10892TIP3    H254168   4.037   2.347  15.795  0.6407  0.7485  1.5727
10893TIP3   OH254169   2.156   2.723  14.917  0.2319 -0.2896  0.6265
10893TIP3    H154170   2.195   2.689  14.998 -1.4929 -0.3972  1.4552
10893TIP3    H254171   2.118   2.646  14.875  0.6010 -0.1358 -0.0058
10894TIP3   OH254172   3.708   4.243   5.777 -0.1732 -0.7099 -0.5285
10894TIP3    H154173   3.626   4.236   5.727 -0.6113  0.2590  0.0322
10894TIP3    H254174   3.685   4.213   5.865  0.4881 -1.9758 -0.7584
10895TIP3   OH254175   3.371   0.858   1.404 -0.1147  0.0656 -0.0330
10895TIP3    H154176   3.366   0.795   1.331  0.4395  0.8293 -0.7423
10895TIP3    H254177   3.283   0.856   1.443 -0.8719  0.6737 -1.6068
10896TIP3   OH254178   3.421   4.461  12.503 -0.2995  0.1445  0.8420
10896TIP3    H154179   3.465   4.513  12.571  0.8709  0.4743 -0.1207
10896TIP3    H254180   3.403   4.377  12.545  1.5702 -0.1213  1.2003
10897TIP3   OH254181   5.439   6.720  13.950 -0.4031 -0.3202  0.4707
10897TIP3    H154182   5.377   6.658  13.989  0.4984 -1.6184 -0.0822
10897TIP3    H254183   5.508   6.728  14.016 -0.4336 -0.0181  0.4671
10898TIP3   OH254184   0.980   1.906   0.024 -0.0997 -0.1140 -0.0369
10898TIP3    H154185   0.952   1.874   0.110 -1.1404  0.0852 -0.2857
10898TIP3    H254186   0.994   2.000   0.037  1.7391 -0.3961  0.3868
10899TIP3   OH254187   1.545   0.568   6.518 -0.1126 -0.0022  0.1911
10899TIP3    H154188   1.531   0.635   6.452  0.7601  0.7644  0.7688
10899TIP3    H254189   1.459   0.557   6.559 -0.3386  0.5146 -0.1363
10900TIP3   OH254190   1.076   6.519   2.829 -0.3473  0.3353 -0.6223
10900TIP3    H154191   1.010   6.562   2.883  0.9056  0.3003  0.9858
10900TIP3    H254192   1.039   6.432   2.811 -1.0827  0.6031 -0.4471
10901TIP3   OH254193   5.319   6.752  15.191  0.1952  0.0105 -0.4933
10901TIP3    H154194   5.407   6.734  15.224 -0.0037 -0.2913 -0.1259
10901TIP3    H254195   5.260   6.704  15.250 -0.3331  1.5410  0.2978
10902TIP3   OH254196   0.770   1.261   1.853 -0.4262 -1.0093 -0.3006
10902TIP3    H154197   0.782   1.302   1.767 -1.9180  0.9655  0.3715
10902TIP3    H254198   0.676   1.251   1.863 -0.2643 -1.4931  1.0071
10903TIP3   OH254199   3.536   1.135   2.131 -0.5561 -0.0030 -0.2076
10903TIP3    H154200   3.567   1.139   2.041 -1.2130 -0.4558 -0.4649
10903TIP3    H254201   3.475   1.208   2.140  1.5831  1.7825  0.7261
10904TIP3   OH254202   5.095   2.156  16.060  0.6351  0.4222 -0.0819
10904TIP3    H154203   5.080   2.096  15.987  1.8897  0.1994 -0.1766
10904TIP3    H254204   5.069   2.107  16.138 -1.6228  0.9893 -0.4118
10905TIP3   OH254205   2.712   5.757   2.016  0.1167 -0.4299  0.1401
10905TIP3    H154206   2.751   5.845   2.020  1.5042 -0.8918 -1.9938
10905TIP3    H254207   2.618   5.773   2.010  0.2989  0.8797  0.4111
10906TIP3   OH254208   0.612   3.115   4.766  0.3674 -0.2153 -0.1026
10906TIP3    H154209   0.539   3.062   4.734  0.7076  0.4769 -2.1502
10906TIP3    H254210   0.606   3.109   4.862 -1.9982 -0.6562 -0.2255
10907TIP3   OH254211   1.264   4.399   2.517 -0.2951 -0.3398  0.1669
10907TIP3    H154212   1.259   4.360   2.605 -0.6485 -1.0482 -0.1659
10907TIP3    H254213   1.353   4.435   2.513 -0.7465  0.9793  1.3432
10908TIP3   OH254214   5.517   2.610  13.794  0.2194 -0.3441  0.7883
10908TIP3    H154215   5.522   2.587  13.701 -1.3478 -1.7598  1.0095
10908TIP3    H254216   5.426   2.594  13.818  0.1120  1.9100  2.1241
10909TIP3   OH254217   0.844   3.429  13.648  0.7291 -0.5587  0.0383
10909TIP3    H154218   0.838   3.498  13.582  1.3787  1.0891  1.6321
10909TIP3    H254219   0.754   3.417  13.678  0.7548  0.4653  0.5691
10910TIP3   OH254220   3.818   1.287   1.049  0.6959 -0.3004 -0.1992
10910TIP3    H154221   3.729   1.319   1.035  0.2918 -0.7074  1.2290
10910TIP3    H254222   3.831   1.221   0.981 -0.5367 -1.0716  0.2718
10911TIP3   OH254223   5.731   1.094  15.773  0.1981 -0.2375 -0.0762
10911TIP3    H154224   5.746   1.079  15.867  0.6558  0.2366 -0.0705
10911TIP3    H254225   5.744   1.008  15.733  0.2580 -0.3877  0.2612
10912TIP3   OH254226   5.387   2.944   4.398 -0.0699 -0.0261  0.4265
10912TIP3    H154227   5.418   2.860   4.363 -0.6806 -0.5379  1.0981
10912TIP3    H254228   5.306   2.923   4.444  0.4608  0.7073  1.7603
10913TIP3   OH254229   5.862   1.128   3.409  0.1255  0.1771 -0.5100
10913TIP3    H154230   5.931   1.135   3.474 -0.2255  0.5763 -0.1710
10913TIP3    H254231   5.898   1.072   3.341  0.5242 -0.1735 -0.0114
10914TIP3   OH254232   4.017   1.985   2.321  0.1503  0.4663 -0.2023
10914TIP3    H154233   3.940   1.938   2.288  0.4824 -1.3185  1.3791
10914TIP3    H254234   3.993   2.009   2.411  1.7949 -1.0917  0.7079
10915TIP3   OH254235   5.038   3.110   3.476  0.0662 -0.3954  0.3809
10915TIP3    H154236   5.085   3.143   3.399  1.1861 -3.0913 -0.1978
10915TIP3    H254237   5.105   3.104   3.544 -0.0821 -1.4936  0.4394
10916TIP3   OH254238   3.496   2.701  12.530  0.5916  0.2114 -0.8622
10916TIP3    H154239   3.515   2.756  12.606  0.9134  0.1929 -0.9283
10916TIP3    H254240   3.403   2.717  12.511 -0.0240 -1.2337  0.6869
10917TIP3   OH254241   0.240   2.471  15.453 -0.2317  0.0235 -0.2330
10917TIP3    H154242   0.286   2.396  15.415 -1.5737 -1.5225  1.0885
10917TIP3    H254243   0.253   2.463  15.547 -1.8177  0.4800  0.0591
10918TIP3   OH254244   1.509   3.245  12.842  0.3518  0.3165 -0.5259
10918TIP3    H154245   1.575   3.272  12.778 -0.7380  1.7389 -1.0903
10918TIP3    H254246   1.528   3.298  12.920  0.4806 -0.0005 -0.3384
10919TIP3   OH254247   5.261   2.317  16.231  0.0743  0.5111 -0.0675
10919TIP3    H154248   5.306   2.384  16.179 -0.5007  0.4145 -0.6945
10919TIP3    H254249   5.232   2.252  16.167  0.0703 -0.0151  0.4682
10920TIP3   OH254250   5.657   6.548   0.441  0.5511 -0.3397 -0.2085
10920TIP3    H154251   5.693   6.460   0.439 -0.0682 -0.5838 -0.9130
10920TIP3    H254252   5.716   6.599   0.385  1.6621  0.0088  1.2177
10921TIP3   OH254253   6.233   0.172  15.380  0.2919  0.2931  0.1583
10921TIP3    H154254   6.219   0.077  15.377  0.8825  0.1485  1.5294
10921TIP3    H254255   6.261   0.190  15.469  0.6040  1.7157 -0.1995
10922TIP3   OH254256   6.058   4.299  12.326 -0.0113  0.4850 -1.4257
10922TIP3    H154257   5.971   4.328  12.352  0.6210  0.2296  1.2814
10922TIP3    H254258   6.113   4.377  12.337  0.8930 -0.4338  1.6116
10923TIP3   OH254259   6.096   5.070  15.187  0.2715  0.4518  0.3216
10923TIP3    H154260   6.146   5.077  15.268  0.1354  1.0870  0.3513
10923TIP3    H254261   6.068   4.978  15.185  2.3287 -0.2156 -0.2333
10924TIP3   OH254262   0.281   2.407   5.409  0.1020  0.0806 -0.2468
10924TIP3    H154263   0.221   2.457   5.464 -0.6746 -2.4555  1.4124
10924TIP3    H254264   0.368   2.439   5.432 -0.2722 -0.3133  1.8970
10925TIP3   OH254265   3.189   5.699  12.659  0.0520 -0.3459 -0.4003
10925TIP3    H154266   3.136   5.725  12.734  1.2700  0.2486  0.2701
10925TIP3    H254267   3.227   5.615  12.684  0.4369 -0.1612 -0.3595
10926TIP3   OH254268   2.085   1.083  14.259  0.7583 -0.6120  0.2741
10926TIP3    H154269   1.995   1.088  14.227  1.4472  0.2720 -1.7175
10926TIP3    H254270   2.127   1.016  14.204  1.3659 -0.9377  1.1017
10927TIP3   OH254271   4.726   0.838  15.076  0.4998  0.1936  0.3951
10927TIP3    H154272   4.741   0.875  15.163 -2.2222  0.6524  0.7581
10927TIP3    H254273   4.759   0.905  15.015 -1.2200  1.7706  1.0923
10928TIP3   OH254274   0.073   4.775  13.420  0.4018  0.1593 -0.2664
10928TIP3    H154275   0.167   4.773  13.401  0.3884  1.4846 -0.5219
10928TIP3    H254276   0.032   4.788  13.335  0.0317  0.5335 -0.0309
10929TIP3   OH254277   0.011   6.630  15.828  0.5430 -0.1082 -0.4830
10929TIP3    H154278  -0.072   6.627  15.877 -0.8270 -3.0316 -2.6583
10929TIP3    H254279  -0.016   6.643  15.737  2.7706  1.8562 -0.9462
10930TIP3   OH254280   6.414   2.224   0.491  0.2761  0.2479  0.0723
10930TIP3    H154281   6.362   2.158   0.537 -1.5615  0.6357 -1.3183
10930TIP3    H254282   6.439   2.181   0.409 -0.0098  0.9256 -0.3703
10931TIP3   OH254283   4.055   1.845  16.738 -0.0653  0.1670 -0.4471
10931TIP3    H154284   4.054   1.851  16.643 -2.3122  0.7123 -0.4551
10931TIP3    H254285   3.991   1.910  16.767  0.0458 -0.4772  1.3952
10932TIP3   OH254286   2.499   1.924   5.625  0.1707 -0.1242  0.5625
10932TIP3    H154287   2.485   2.018   5.637  1.4545  0.4221 -1.6565
10932TIP3    H254288   2.593   1.915   5.614 -0.1052 -1.3759 -1.1768
10933TIP3   OH254289   5.991   5.281   3.894  0.7342 -0.1135  0.1533
10933TIP3    H154290   5.914   5.336   3.882  2.1765  1.7364 -1.1615
10933TIP3    H254291   6.064   5.335   3.864  2.4029 -2.2608  0.1254
10934TIP3   OH254292   3.323   6.769   4.757 -0.1746 -0.3264 -0.0077
10934TIP3    H154293   3.372   6.800   4.681 -1.3530  0.1247 -0.6010
10934TIP3    H254294   3.328   6.673   4.751  0.1693 -0.2882 -0.3563
10935TIP3   OH254295   3.147   3.109   5.756  0.6349 -0.0001  0.1308
10935TIP3    H154296   3.087   3.064   5.815 -0.2038 -2.3625 -2.3230
10935TIP3    H254297   3.229   3.059   5.762  0.2633 -0.8460 -1.2647
10936TIP3   OH254298   6.418   1.307  10.600 -0.0105  0.1493 -0.3909
10936TIP3    H154299   6.511   1.283  10.601 -0.0434  0.0231 -0.1354
10936TIP3    H254300   6.372   1.224  10.591 -0.0902  0.2421 -0.8333
10937TIP3   OH254301   5.661   4.891  16.109 -0.5955  0.2804  0.2866
10937TIP3    H154302   5.749   4.876  16.075 -1.1353  0.2431 -1.1782
10937TIP3    H254303   5.608   4.908  16.031 -2.0202 -0.3388  1.0801
10938TIP3   OH254304   6.187   4.341  16.301  0.0392 -0.1322  0.2446
10938TIP3    H154305   6.252   4.289  16.348  1.1426 -0.6545 -1.7721
10938TIP3    H254306   6.226   4.429  16.296  1.1304 -0.6724 -1.8151
10939TIP3   OH254307   3.159   6.027   4.777 -0.1711 -0.1426 -0.4444
10939TIP3    H154308   3.204   6.047   4.695 -3.2922  0.6210 -2.1665
10939TIP3    H254309   3.131   6.113   4.810  0.6824 -0.4838  1.2440
10940TIP3   OH254310   1.845   0.516   1.106  0.8283  0.3601 -0.0829
10940TIP3    H154311   1.891   0.440   1.069  2.2334  0.8226  0.6134
10940TIP3    H254312   1.755   0.507   1.076  0.8875 -1.7367  0.2004
10941TIP3   OH254313   5.978   4.056  14.402  0.2194  0.1302  0.1773
10941TIP3    H154314   5.965   4.128  14.340  0.3321 -0.9304 -1.1085
10941TIP3    H254315   5.900   4.059  14.458 -0.1828  0.7398 -0.3950
10942TIP3   OH254316   5.215   5.360   2.408 -0.2660 -0.3288 -0.6399
10942TIP3    H154317   5.235   5.325   2.494 -0.3099  0.9298 -0.0878
10942TIP3    H254318   5.190   5.284   2.356 -0.5925 -1.0658  0.5513
10943TIP3   OH254319   5.602   1.547  15.700 -0.1403  0.7408 -0.6220
10943TIP3    H154320   5.517   1.514  15.731  0.1861 -0.2335 -0.7357
10943TIP3    H254321   5.662   1.473  15.712  0.1468  0.5304 -3.0002
10944TIP3   OH254322   3.931   0.891  13.571 -0.3917  0.4694  0.2010
10944TIP3    H154323   3.994   0.950  13.612  0.0431 -0.7847  1.4379
10944TIP3    H254324   3.981   0.845  13.504 -0.5387  0.9718 -0.2546
10945TIP3   OH254325   1.786   1.816   1.735 -0.3309  0.1079 -0.0781
10945TIP3    H154326   1.694   1.804   1.711 -0.4884 -1.1764  1.0141
10945TIP3    H254327   1.830   1.737   1.702  0.5710  1.1133 -1.3666
10946TIP3   OH254328   6.279   1.953   1.643 -0.0565  0.7934 -0.1609
10946TIP3    H154329   6.329   1.898   1.703  2.6913  1.4317 -1.6731
10946TIP3    H254330   6.330   2.034   1.637 -1.8393  1.9133 -1.0625
10947TIP3   OH254331   3.616   2.561   0.133  0.0447 -0.2749 -0.7393
10947TIP3    H154332   3.682   2.629   0.123 -0.2389 -0.0861 -1.3797
10947TIP3    H254333   3.547   2.602   0.185 -0.0078 -0.1578 -0.9014
10948TIP3   OH254334   5.102   3.397  13.090  0.4060 -0.3441  0.0606
10948TIP3    H154335   5.034   3.423  13.028  1.0381 -0.9575 -0.9158
10948TIP3    H254336   5.162   3.343  13.039 -0.0321 -2.4282  1.6220
10949TIP3   OH254337   5.907   2.734  12.340  0.0170 -0.1725  0.1466
10949TIP3    H154338   5.898   2.788  12.419 -0.6812 -1.1728  0.7688
10949TIP3    H254339   5.917   2.798  12.269  0.4499  0.7460  1.0065
10950TIP3   OH254340   0.676   0.392   5.409  0.0209 -1.2637  0.0838
10950TIP3    H154341   0.623   0.357   5.481 -0.1559 -1.5478 -0.1814
10950TIP3    H254342   0.725   0.464   5.448 -2.2398  0.5249 -0.1462
10951TIP3   OH254343   5.135   2.029  16.296  0.0504 -0.0434  0.3415
10951TIP3    H154344   5.225   1.996  16.289  0.0020 -0.0412 -0.3499
10951TIP3    H254345   5.131   2.069  16.383  0.3251 -1.1914  0.8947
10952TIP3   OH254346   4.310   3.410   3.497  0.0490  0.5498 -0.4675
10952TIP3    H154347   4.316   3.421   3.592 -0.8394  0.6649 -0.4158
10952TIP3    H254348   4.391   3.366   3.473 -0.6569 -1.5069  0.6472
10953TIP3   OH254349   5.358   3.956  16.817 -0.0321  0.1092 -0.4717
10953TIP3    H154350   5.439   3.904  16.816 -0.0466  0.0864 -0.8405
10953TIP3    H254351   5.313   3.930  16.897 -1.3572 -2.4869 -1.9365
10954TIP3   OH254352   0.443   4.876   3.180 -0.7616  0.2636 -0.3542
10954TIP3    H154353   0.464   4.969   3.182 -1.0128  0.3439 -1.1748
10954TIP3    H254354   0.375   4.865   3.247 -0.3776  0.5696  0.0942
10955TIP3   OH254355   0.101   6.498   0.381 -0.3328 -0.4852 -0.2956
10955TIP3    H154356   0.061   6.491   0.294 -0.3358 -0.5619 -0.2876
10955TIP3    H254357   0.167   6.567   0.371 -0.4087 -0.4167 -0.3304
10956TIP3   OH254358   6.314   3.473  14.724  0.2786 -0.0071  0.2079
10956TIP3    H154359   6.369   3.399  14.750 -0.4513 -0.4110  0.6193
10956TIP3    H254360   6.273   3.445  14.642  0.8254  0.3745 -0.2074
10957TIP3   OH254361   6.785   5.795  15.853 -0.1486 -0.3144 -0.0660
10957TIP3    H154362   6.811   5.887  15.850  1.9782 -0.8281  0.5331
10957TIP3    H254363   6.714   5.791  15.917  0.6994  0.7227  0.9702
10958TIP3   OH254364   1.416   5.003  16.568  0.0531 -0.2928 -0.0815
10958TIP3    H154365   1.424   4.913  16.599 -1.0722 -0.8941 -1.4202
10958TIP3    H254366   1.404   5.055  16.647  1.4769 -1.2049  0.7774
10959TIP3   OH254367   5.715   5.648  16.861  0.4672 -0.3633  0.3649
10959TIP3    H154368   5.624   5.641  16.832  0.5535 -2.0927  0.4105
10959TIP3    H254369   5.754   5.711  16.800 -0.0462 -1.8478 -1.5941
10960TIP3   OH254370   4.141   6.523   3.249  0.7633  0.5497  0.0805
10960TIP3    H154371   4.205   6.456   3.275  0.3810 -0.2718 -1.0370
10960TIP3    H254372   4.163   6.599   3.304  1.2432 -0.4573  1.3267
10961TIP3   OH254373   4.751   6.164  12.070  0.2982 -0.1918 -0.2465
10961TIP3    H154374   4.751   6.225  12.145 -0.7098 -0.8256  0.2841
10961TIP3    H254375   4.823   6.104  12.089  0.7582  0.3176 -0.3500
10962TIP3   OH254376   1.158   1.626   3.847  0.3195 -0.0925 -0.2346
10962TIP3    H154377   1.127   1.686   3.916  0.1868 -0.5141  0.0731
10962TIP3    H254378   1.081   1.613   3.791 -0.4354 -2.0439  1.1654
10963TIP3   OH254379   6.629   5.745   1.898  0.3265 -0.5741  0.0058
10963TIP3    H154380   6.718   5.782   1.890 -0.2964  0.7038 -1.8225
10963TIP3    H254381   6.585   5.803   1.959 -0.2204  0.9861 -1.7635
10964TIP3   OH254382   6.080   0.687   5.002  0.3348 -0.1134 -0.3647
10964TIP3    H154383   6.165   0.652   4.977 -0.5484 -1.3678 -1.7462
10964TIP3    H254384   6.045   0.623   5.064  0.8987  1.0769  1.2885
10965TIP3   OH254385   6.047   6.726  11.644 -0.7277  0.0680  0.2240
10965TIP3    H154386   6.135   6.687  11.650 -1.0221 -0.7763 -0.5854
10965TIP3    H254387   6.063   6.818  11.623 -0.0077 -0.4603 -1.8589
10966TIP3   OH254388   6.421   0.353  15.840 -0.3409 -0.1596  0.0343
10966TIP3    H154389   6.470   0.405  15.905 -1.0132 -1.4426  1.6264
10966TIP3    H254390   6.350   0.313  15.890 -1.2049 -0.7849 -1.6304
10967TIP3   OH254391   1.856   2.678  15.533  0.7049  0.4409  0.4745
10967TIP3    H154392   1.772   2.635  15.516  1.1328  0.2441 -1.4487
10967TIP3    H254393   1.840   2.770  15.509  1.1264  0.3191 -0.3161
10968TIP3   OH254394   1.679   5.263  11.909  0.3192  0.6234  0.1251
10968TIP3    H154395   1.742   5.324  11.948 -0.5026  1.0623  0.8226
10968TIP3    H254396   1.701   5.178  11.947  0.1662  0.8708  0.7970
10969TIP3   OH254397   1.518   2.015  12.847  0.2507  0.7566 -0.4719
10969TIP3    H154398   1.431   2.021  12.809  0.4377  0.4893 -0.9573
10969TIP3    H254399   1.574   1.986  12.774  0.6954  0.6802 -0.1055
10970TIP3   OH254400   0.860   6.214  12.698 -0.3652  0.0320 -0.0233
10970TIP3    H154401   0.873   6.189  12.606 -0.8269 -0.8096  0.1300
10970TIP3    H254402   0.931   6.170  12.745 -0.0892  0.5181  0.0163
10971TIP3   OH254403   5.385   1.718   0.803 -0.0633 -0.0846 -0.7083
10971TIP3    H154404   5.322   1.781   0.839 -1.1831 -0.9488 -1.0924
10971TIP3    H254405   5.449   1.707   0.873 -0.9161  0.0269  0.1200
10972TIP3   OH254406   0.251   4.013  12.431  0.2845  0.0216 -1.1925
10972TIP3    H154407   0.301   3.967  12.499  1.3435 -0.1743 -2.0783
10972TIP3    H254408   0.193   3.946  12.395 -0.9025  0.3309  0.0672
10973TIP3   OH254409   1.904   4.685   1.176  0.0228  0.2800  0.3044
10973TIP3    H154410   1.900   4.629   1.099  1.1008  0.7424 -0.1135
10973TIP3    H254411   1.827   4.741   1.170 -0.1968 -0.0652 -0.1319
10974TIP3   OH254412   3.439   3.455   0.855  0.4057  0.5996 -0.0267
10974TIP3    H154413   3.397   3.392   0.913  0.6982 -1.1110 -1.6029
10974TIP3    H254414   3.519   3.412   0.826  1.0219  2.0193 -0.5507
10975TIP3   OH254415   1.542   5.070   5.214  0.4663 -0.2841 -0.2116
10975TIP3    H154416   1.537   5.106   5.303  1.3809  1.4964 -0.8497
10975TIP3    H254417   1.615   5.008   5.217 -0.1629 -1.0245  0.5101
10976TIP3   OH254418   4.993   6.804  11.121  0.2749 -0.0963 -0.3980
10976TIP3    H154419   4.961   6.766  11.039  2.2246 -0.0503 -1.2439
10976TIP3    H254420   4.948   6.754  11.190  0.0450 -1.4817 -1.4996
10977TIP3   OH254421   2.154   0.530  11.767  0.3064  0.1024  0.0586
10977TIP3    H154422   2.143   0.547  11.861  0.1531 -1.7236  0.3949
10977TIP3    H254423   2.073   0.563  11.728  0.2372  0.6031  0.6013
10978TIP3   OH254424   4.308   4.156   3.091  0.0233 -0.5657 -0.0928
10978TIP3    H154425   4.392   4.198   3.112 -0.3284 -0.3115  0.8885
10978TIP3    H254426   4.327   4.063   3.094 -0.0803 -0.5627  1.8908
10979TIP3   OH254427   1.790   5.240   1.763 -0.1836  0.0270 -0.0615
10979TIP3    H154428   1.763   5.150   1.778 -0.8382  0.0128 -1.2022
10979TIP3    H254429   1.754   5.289   1.837  0.8592 -0.7528  0.9907
10980TIP3   OH254430   2.838   1.255   0.195 -0.6801  0.1789  0.4446
10980TIP3    H154431   2.759   1.237   0.248  0.1968 -0.7888  1.4893
10980TIP3    H254432   2.910   1.224   0.250  0.1747 -3.1683 -2.1997
10981TIP3   OH254433   1.790   4.658  16.468 -0.2636 -0.0674  0.0063
10981TIP3    H154434   1.802   4.662  16.374 -1.1760  0.0829 -0.1192
10981TIP3    H254435   1.728   4.729  16.487 -0.0545 -0.0661  0.7208
10982TIP3   OH254436   5.174   0.391   3.663 -0.3041  0.8117 -1.0420
10982TIP3    H154437   5.141   0.436   3.741  2.2721  1.3815 -0.1947
10982TIP3    H254438   5.229   0.321   3.697 -0.4334  0.0221 -2.3807
10983TIP3   OH254439   4.480   3.127  11.324 -0.3471  0.0995  0.6487
10983TIP3    H154440   4.404   3.175  11.290 -1.5074 -0.0738  2.8440
10983TIP3    H254441   4.463   3.036  11.303 -0.7303  0.0666  1.0995
10984TIP3   OH254442   2.653   4.401  16.156  0.5731 -0.1771 -0.9112
10984TIP3    H154443   2.683   4.490  16.138  1.2013 -0.1627  0.1276
10984TIP3    H254444   2.728   4.346  16.133  0.3841 -0.3934 -1.0157
10985TIP3   OH254445   4.162   2.352  15.156  0.3458 -0.2768 -0.0825
10985TIP3    H154446   4.140   2.381  15.244 -1.2085 -2.2433  0.2665
10985TIP3    H254447   4.220   2.277  15.169 -0.9941 -1.4562 -0.6253
10986TIP3   OH254448   4.949   5.615  11.778  0.0157 -0.5946  0.1222
10986TIP3    H154449   4.912   5.699  11.751  0.1765 -0.1314  1.2653
10986TIP3    H254450   5.001   5.586  11.703 -1.0273 -0.2733 -0.7368
10987TIP3   OH254451   3.453   3.599  13.941  0.3020  0.2015 -0.3557
10987TIP3    H154452   3.435   3.692  13.953 -0.7002  0.0603 -0.7051
10987TIP3    H254453   3.388   3.570  13.877  0.9779 -0.6139 -0.7038
10988TIP3   OH254454   6.134   1.869   4.215  0.8408  0.1070 -0.5652
10988TIP3    H154455   6.094   1.841   4.133  0.8058  0.0947 -0.5439
10988TIP3    H254456   6.074   1.935   4.250  0.8964  0.1693 -0.5887
10989TIP3   OH254457   2.022   2.390   3.699 -0.3652 -0.2403  0.2623
10989TIP3    H154458   1.993   2.311   3.742 -1.6798  0.8739  1.5239
10989TIP3    H254459   2.040   2.452   3.770  1.4254  0.3616 -0.6472
10990TIP3   OH254460   1.686   5.115  13.694  0.1259 -0.0875 -0.0415
10990TIP3    H154461   1.630   5.146  13.623 -0.0091 -1.0704 -0.3679
10990TIP3    H254462   1.775   5.133  13.664  0.0698 -0.5079 -0.4694
10991TIP3   OH254463   4.423   2.025  10.730 -0.0851  0.5134  0.2315
10991TIP3    H154464   4.358   2.068  10.674  0.2476 -0.5863 -1.0446
10991TIP3    H254465   4.502   2.078  10.720  0.7037 -0.9763 -2.3328
10992TIP3   OH254466   5.598   2.771   0.650  0.1770  0.3256 -0.1141
10992TIP3    H154467   5.536   2.777   0.723  1.8981  0.2435  1.4148
10992TIP3    H254468   5.623   2.862   0.632 -0.1468  0.3358 -0.5460
10993TIP3   OH254469   1.156   5.996   0.098 -0.2346  0.2964  0.2743
10993TIP3    H154470   1.156   6.035   0.010 -2.8951  2.0649  0.9271
10993TIP3    H254471   1.240   6.022   0.136  0.2004  1.0296 -1.1068
10994TIP3   OH254472   0.844   2.915  12.777 -0.0723  0.4849 -0.0369
10994TIP3    H154473   0.889   2.919  12.861  0.0261 -2.1423  0.1204
10994TIP3    H254474   0.753   2.933  12.798  0.2896  2.1460  0.2272
10995TIP3   OH254475   4.622   1.856  10.447 -0.0763  0.7623  0.4015
10995TIP3    H154476   4.596   1.942  10.415  1.0687  0.7919 -0.5011
10995TIP3    H254477   4.702   1.835  10.399 -1.1223 -1.4672 -0.5005
10996TIP3   OH254478   5.130   6.330  17.010 -0.0933  0.2961 -0.4270
10996TIP3    H154479   5.117   6.310  17.102  2.9563 -0.3699 -0.0545
10996TIP3    H254480   5.174   6.414  17.009 -1.8293  1.2658 -1.4447
10997TIP3   OH254481   4.750   4.287  14.498  0.1581  0.1474  0.5453
10997TIP3    H154482   4.777   4.214  14.554 -0.3828  0.9778  1.9740
10997TIP3    H254483   4.698   4.343  14.557 -0.9776  0.7606 -0.9770
10998TIP3   OH254484   4.675   6.477   2.967 -0.0027  0.7684  0.1450
10998TIP3    H154485   4.712   6.389   2.973 -2.1443 -0.0899  2.5589
10998TIP3    H254486   4.652   6.488   2.875  0.4499 -1.1208 -0.2375
10999TIP3   OH254487   5.949   3.131   1.207  0.5312 -0.7352 -1.0359
10999TIP3    H154488   6.028   3.153   1.156 -0.1531 -1.8230 -2.6704
10999TIP3    H254489   5.882   3.190   1.173  1.1913  2.4406  2.5254
11000TIP3   OH254490   0.340   4.163  16.386 -0.1792  0.1451  0.5625
11000TIP3    H154491   0.296   4.085  16.421  0.3212 -0.6355 -0.4772
11000TIP3    H254492   0.381   4.204  16.462 -2.1596  0.5537  1.4560
11001TIP3   OH254493   2.543   6.317  15.784  0.2826 -0.2985 -0.3623
11001TIP3    H154494   2.618   6.372  15.808 -0.8293  0.8831  0.5785
11001TIP3    H254495   2.544   6.315  15.689  0.2893  1.5256 -0.4335
11002TIP3   OH254496   1.032   3.393   2.921  0.0860 -0.1183  0.1811
11002TIP3    H154497   1.074   3.315   2.959 -2.0011 -1.6552 -0.4782
11002TIP3    H254498   0.948   3.361   2.889 -0.4873  2.2781 -0.8795
11003TIP3   OH254499   5.094   0.083   3.052 -0.6196 -0.0649  0.2708
11003TIP3    H154500   4.999   0.091   3.064 -0.6679 -2.2072  1.6837
11003TIP3    H254501   5.132   0.119   3.132 -0.1009  1.8598 -0.7528
11004TIP3   OH254502   3.708   2.276   0.748 -0.4451  0.0978 -0.1495
11004TIP3    H154503   3.709   2.211   0.819 -1.0905 -0.8564 -0.9909
11004TIP3    H254504   3.625   2.321   0.758 -1.3560 -1.2446 -1.3305
11005TIP3   OH254505   6.199   4.220  12.105 -0.2003 -0.3560  0.4092
11005TIP3    H154506   6.135   4.248  12.170  0.0381 -1.1890  1.0299
11005TIP3    H254507   6.277   4.272  12.125 -0.0164 -0.8476  1.0404
11006TIP3   OH254508   4.102   6.506   2.296  0.2000 -0.1989 -0.3747
11006TIP3    H154509   4.025   6.560   2.318  0.6526 -0.8097  3.3851
11006TIP3    H254510   4.177   6.562   2.319  0.7832 -0.8362 -0.7146
11007TIP3   OH254511   6.431   1.711  16.009 -0.0849 -0.1886  0.0027
11007TIP3    H154512   6.358   1.656  15.978  0.7391 -0.1780 -2.1253
11007TIP3    H254513   6.400   1.801  15.997 -0.8367 -0.1231  2.0189
11008TIP3   OH254514   0.510   6.428   2.981  0.1350  0.2677 -0.1722
11008TIP3    H154515   0.550   6.345   3.006  2.1603  1.5117  1.0039
11008TIP3    H254516   0.437   6.403   2.925  0.5976 -2.2953  0.2279
11009TIP3   OH254517   0.485   0.257  17.161  0.3734 -0.2500 -0.3642
11009TIP3    H154518   0.441   0.216  17.087  0.2665 -1.5271  0.3770
11009TIP3    H254519   0.501   0.186  17.223  0.1432  0.8250  1.0075
11010TIP3   OH254520   5.727   5.178  15.039 -0.0036  0.0791  0.3611
11010TIP3    H154521   5.793   5.162  14.972 -0.2041  0.4462  0.0712
11010TIP3    H254522   5.679   5.254  15.008  0.6773  1.0198  1.5005
11011TIP3   OH254523   5.721   4.550   0.454 -0.3584 -0.2138  0.1214
11011TIP3    H154524   5.724   4.592   0.540  2.6827 -2.3246  1.1971
11011TIP3    H254525   5.769   4.609   0.397 -1.2827  0.5764  0.1285
11012TIP3   OH254526   4.673   3.178   0.156  0.1441  0.3693  0.4681
11012TIP3    H154527   4.691   3.085   0.169 -1.9149 -0.2438 -0.6723
11012TIP3    H254528   4.633   3.183   0.069 -0.8482  2.1660  0.9805
11013TIP3   OH254529   1.257   3.629  16.022 -0.0543 -0.2209  0.5454
11013TIP3    H154530   1.278   3.568  15.952  0.6083  1.0237 -0.3789
11013TIP3    H254531   1.177   3.672  15.993 -0.0499 -0.0425  0.7921
11014TIP3   OH254532   5.348   1.067  11.911  0.1827 -0.5610 -0.5182
11014TIP3    H154533   5.259   1.104  11.913 -0.0227 -1.0640  0.7143
11014TIP3    H254534   5.349   1.004  11.984  1.4943 -0.7027 -0.6410
11015TIP3   OH254535   0.691   5.149   4.029 -0.7708 -0.1110  0.2543
11015TIP3    H154536   0.626   5.081   4.043 -0.7249 -0.0734  0.6852
11015TIP3    H254537   0.712   5.181   4.118  0.4194 -0.6677  0.1989
11016TIP3   OH254538   1.965   3.814   4.083 -0.2816  0.6479 -0.0706
11016TIP3    H154539   1.918   3.737   4.051 -0.2132  0.3334  0.5609
11016TIP3    H254540   1.952   3.881   4.015 -1.5487  0.5388  0.0539
11017TIP3   OH254541   4.950   4.298   1.204 -0.3439 -0.1743 -0.2499
11017TIP3    H154542   4.883   4.235   1.177  1.2287 -0.9380 -2.8406
11017TIP3    H254543   4.958   4.357   1.129  1.1707  0.4733  0.3833
11018TIP3   OH254544   2.843   0.688  14.584  0.0282  0.0899 -0.5460
11018TIP3    H154545   2.769   0.722  14.635 -0.4773 -0.9686 -0.5433
11018TIP3    H254546   2.918   0.739  14.614 -0.6630  1.0451 -0.3973
11019TIP3   OH254547   5.264   5.818  16.918 -0.0742  0.0634  0.3731
11019TIP3    H154548   5.261   5.897  16.865 -0.0223  1.1205  1.8759
11019TIP3    H254549   5.335   5.766  16.881 -2.6016 -1.2846 -3.2342
11020TIP3   OH254550   3.221   4.457   0.251  0.5021 -0.1295 -0.7451
11020TIP3    H154551   3.152   4.458   0.318  2.2594 -2.5825  1.3224
11020TIP3    H254552   3.186   4.401   0.182 -0.5515  0.7514 -0.9472
11021TIP3   OH254553   0.278   2.389   2.233 -0.2913  0.5070 -0.0947
11021TIP3    H154554   0.225   2.361   2.308  1.1177 -1.6909  0.1962
11021TIP3    H254555   0.307   2.477   2.255  0.5190 -0.2663  2.2598
11022TIP3   OH254556   3.108   5.027  15.568  0.0221 -0.2919  0.2933
11022TIP3    H154557   3.121   5.121  15.583 -0.7459  0.0719 -1.1574
11022TIP3    H254558   3.066   4.996  15.648 -2.1588  1.1599 -0.1787
11023TIP3   OH254559   3.768   4.316  14.271  0.6501 -0.3286 -0.2298
11023TIP3    H154560   3.724   4.231  14.267 -1.4547  0.5682  1.5704
11023TIP3    H254561   3.856   4.296  14.302 -0.3813 -1.7695  2.0058
11024TIP3   OH254562   5.689   5.094  14.391  0.1825  0.4333 -0.5269
11024TIP3    H154563   5.734   5.009  14.392  1.0923  0.8795  0.9204
11024TIP3    H254564   5.605   5.077  14.349  0.1704 -1.2836  0.1180
11025TIP3   OH254565   3.506   6.378   3.944 -0.7254 -0.1683  0.3519
11025TIP3    H154566   3.477   6.460   3.984  0.4204  0.6769 -0.4858
11025TIP3    H254567   3.577   6.404   3.885 -1.6961 -1.4839 -1.4765
11026TIP3   OH254568   2.545   3.395  17.031  0.6688  0.2650  0.2522
11026TIP3    H154569   2.462   3.363  16.995 -0.8840  2.7899  1.2987
11026TIP3    H254570   2.600   3.410  16.954 -0.5424  0.3514 -0.6294
11027TIP3   OH254571   4.347   4.239  17.228  0.0525  0.0137  0.6618
11027TIP3    H154572   4.397   4.158  17.229  0.3391  0.1869  0.3895
11027TIP3    H254573   4.410   4.307  17.250 -0.0554  0.2373  0.2845
11028TIP3   OH254574   3.547   1.612   4.935  0.1068  0.2988  0.1501
11028TIP3    H154575   3.565   1.677   5.002 -0.3213  1.3998 -0.7565
11028TIP3    H254576   3.468   1.567   4.965 -1.0657  1.9181 -0.3686
11029TIP3   OH254577   6.701   4.119   1.669 -0.0472  0.3899 -0.4742
11029TIP3    H154578   6.663   4.206   1.677 -3.1248 -0.8074 -0.8426
11029TIP3    H254579   6.746   4.105   1.753 -0.7715  1.7525  0.1740
11030TIP3   OH254580   0.549   3.431  17.069  0.4897 -0.0373  0.2880
11030TIP3    H154581   0.613   3.467  17.130 -0.7253 -1.5313  2.5957
11030TIP3    H254582   0.465   3.468  17.096  0.1456  0.9956 -1.9583
11031TIP3   OH254583   4.619   6.204   2.840 -0.3159 -0.0277  0.0801
11031TIP3    H154584   4.638   6.268   2.772  1.1132 -0.5920 -0.0866
11031TIP3    H254585   4.545   6.154   2.805  0.5491 -0.4780 -1.2037
11032TIP3   OH254586   6.276   3.266   1.297 -0.5934 -0.6677  0.0989
11032TIP3    H154587   6.237   3.350   1.273  2.5392  0.1018 -3.1976
11032TIP3    H254588   6.244   3.205   1.231  1.0885 -0.7656 -0.6765
11033TIP3   OH254589   0.409   4.263   5.549  0.2115  0.2269 -0.1983
11033TIP3    H154590   0.329   4.253   5.601 -0.4361 -0.8766 -1.3636
11033TIP3    H254591   0.480   4.245   5.611 -0.5221 -0.4637  0.4605
11034TIP3   OH254592   3.234   0.838  13.800  0.0567  0.1650  0.4513
11034TIP3    H154593   3.209   0.842  13.707  1.2675 -1.4263 -0.0020
11034TIP3    H254594   3.226   0.928  13.831 -1.1614  0.5916 -0.9803
11035TIP3   OH254595   3.397   6.619  12.551 -0.4866  0.3609 -0.5741
11035TIP3    H154596   3.407   6.578  12.465 -2.6143 -1.4382 -0.0451
11035TIP3    H254597   3.483   6.612  12.591  0.1981  0.0080 -2.0360
11036TIP3   OH254598   1.716   5.348   2.007 -0.0176  0.0105 -0.0098
11036TIP3    H154599   1.771   5.413   2.051 -0.4786 -0.2117  0.9196
11036TIP3    H254600   1.642   5.336   2.066 -0.7888 -0.1094 -0.9833
11037TIP3   OH254601   1.231   3.670   4.798  0.7312 -0.5198 -0.0697
11037TIP3    H154602   1.145   3.702   4.772 -0.1576 -0.9446  2.1090
11037TIP3    H254603   1.290   3.697   4.727 -0.6376  2.5107 -0.2028
11038TIP3   OH254604   2.230   2.602   1.632  0.7009  0.4801  0.8024
11038TIP3    H154605   2.323   2.579   1.638  0.1327 -2.0450  0.9138
11038TIP3    H254606   2.186   2.520   1.611 -1.3843  1.9085 -0.7824
11039TIP3   OH254607   6.175   4.389  11.795  0.1775  0.1667 -0.7056
11039TIP3    H154608   6.249   4.378  11.855 -0.5624  1.7399  0.5619
11039TIP3    H254609   6.215   4.395  11.708  1.4180 -0.2779 -0.1930
11040TIP3   OH254610   0.236   2.068   3.806  0.5062  0.6129  0.1004
11040TIP3    H154611   0.149   2.030   3.815  0.5201  0.6030  0.1979
11040TIP3    H254612   0.222   2.150   3.759  0.5029  0.3814 -0.3051
11041TIP3   OH254613   6.081   6.369   4.055  0.2684  0.0282 -0.1516
11041TIP3    H154614   6.153   6.429   4.076  2.4259 -1.7408 -2.0030
11041TIP3    H254615   6.084   6.304   4.125 -1.0944  1.1426  1.0168
11042TIP3   OH254616   5.029   1.409  14.310  0.2136 -0.3636 -0.1588
11042TIP3    H154617   4.939   1.405  14.341 -1.3109 -0.5547 -4.1447
11042TIP3    H254618   5.052   1.319  14.289  0.7273 -0.0942 -0.7883
11043TIP3   OH254619   3.446   0.746  11.171 -0.0882 -0.4042 -0.0637
11043TIP3    H154620   3.534   0.781  11.156  0.1047 -1.0874 -0.5721
11043TIP3    H254621   3.458   0.652  11.180 -0.8307 -0.5881 -0.7896
11044TIP3   OH254622   0.764   6.500   6.078  0.4960 -0.5037  0.2401
11044TIP3    H154623   0.857   6.486   6.058  0.1706 -1.5181 -0.6437
11044TIP3    H254624   0.744   6.587   6.043  1.3059  0.0902  1.1960
11045TIP3   OH254625   4.354   6.687  11.343 -0.3365 -0.4150 -0.6644
11045TIP3    H154626   4.432   6.636  11.364  1.7628  2.9056  0.4315
11045TIP3    H254627   4.308   6.695  11.427 -1.6875 -1.9629 -1.2118
11046TIP3   OH254628   2.658   1.849  16.690 -0.3034  0.2955 -0.4699
11046TIP3    H154629   2.678   1.941  16.705  1.8335  0.1219 -1.9644
11046TIP3    H254630   2.664   1.838  16.595  0.1722 -1.5216 -0.2617
11047TIP3   OH254631   6.166   5.213  16.168 -0.2107  0.1150  0.2010
11047TIP3    H154632   6.183   5.241  16.078  1.0179 -1.4038 -0.0782
11047TIP3    H254633   6.171   5.294  16.220 -0.5786  0.9516 -1.0364
11048TIP3   OH254634   1.361   3.557  11.549  0.1451  0.3343  0.2250
11048TIP3    H154635   1.394   3.579  11.462  1.9208 -0.0540  0.7499
11048TIP3    H254636   1.436   3.570  11.607 -0.2208 -1.9166  1.3126
11049TIP3   OH254637   6.640   5.554   0.729 -0.4777 -0.0643  0.4091
11049TIP3    H154638   6.615   5.644   0.706 -0.3651  0.1596  1.1223
11049TIP3    H254639   6.699   5.565   0.804  0.8194 -0.6456 -0.4929
11050TIP3   OH254640   3.217   4.195  11.426 -0.2017  0.2600 -0.3712
11050TIP3    H154641   3.239   4.282  11.460 -0.5879  0.7270 -1.2676
11050TIP3    H254642   3.193   4.144  11.503 -0.0264  0.9620  0.1619
11051TIP3   OH254643   0.973   3.198  13.961 -0.5348 -0.3778  0.2984
11051TIP3    H154644   0.898   3.166  13.913 -0.4830  1.5121 -1.1623
11051TIP3    H254645   1.044   3.200  13.897  0.7118 -1.8113  1.5625
11052TIP3   OH254646   3.443   3.942   1.998 -0.0370 -0.0645 -0.4027
11052TIP3    H154647   3.421   3.851   2.020 -1.6364  0.9931  3.0113
11052TIP3    H254648   3.524   3.959   2.046 -0.0021  0.4518 -0.6446
11053TIP3   OH254649   0.899   0.698   0.580  0.6820 -0.2723  0.0206
11053TIP3    H154650   0.958   0.753   0.528  0.5660 -0.0036  0.1686
11053TIP3    H254651   0.869   0.631   0.519 -1.1365  1.2700 -0.8849
11054TIP3   OH254652   5.427   2.694  12.440 -0.1208 -0.0201  0.1020
11054TIP3    H154653   5.424   2.789  12.457  1.0979  0.2165 -0.8872
11054TIP3    H254654   5.374   2.683  12.361 -1.5447 -0.4085  1.0699
11055TIP3   OH254655   6.308   3.325  15.915 -0.0575  0.1083  0.1083
11055TIP3    H154656   6.321   3.230  15.915 -1.2089 -0.0667  1.5623
11055TIP3    H254657   6.393   3.360  15.942  0.1328 -0.5534  0.4015
11056TIP3   OH254658   5.902   2.939  12.138 -0.0428 -0.4245  0.0656
11056TIP3    H154659   5.860   2.971  12.058  0.6485 -1.0179 -0.5499
11056TIP3    H254660   5.931   3.018  12.183  1.2553 -0.1411 -1.2171
11057TIP3   OH254661   1.519   4.169   4.989  0.3501 -0.5004  0.0983
11057TIP3    H154662   1.547   4.238   4.930  0.3790  0.6649  1.4128
11057TIP3    H254663   1.565   4.091   4.959  1.2158  0.3086 -0.7319
11058TIP3   OH254664   4.908   1.156  15.127  0.1851 -0.1441 -0.1382
11058TIP3    H154665   4.996   1.195  15.126 -0.0015  0.2835 -0.3217
11058TIP3    H254666   4.910   1.090  15.058 -0.4241  1.6778 -2.0313
11059TIP3   OH254667   1.593   3.371  14.812  0.0141  0.1427 -0.0169
11059TIP3    H154668   1.535   3.445  14.792 -1.5086 -0.7901  0.8259
11059TIP3    H254669   1.631   3.347  14.728  0.0721  1.4851 -0.4011
11060TIP3   OH254670   5.005   2.272  12.629  0.9627 -0.3669 -0.2042
11060TIP3    H154671   5.025   2.276  12.535 -0.4104 -1.5292 -0.5765
11060TIP3    H254672   4.952   2.193  12.639 -0.2583  0.5894  1.3031
11061TIP3   OH254673   6.012   0.891  16.120 -0.0793  0.4800  0.0794
11061TIP3    H154674   5.943   0.828  16.101  1.2086 -1.5268  1.6967
11061TIP3    H254675   5.982   0.935  16.200  0.0403  0.3600  0.1900
11062TIP3   OH254676   2.865   3.753   4.266 -0.2149  0.1124 -0.4218
11062TIP3    H154677   2.855   3.792   4.353  0.5933  0.9397 -0.6918
11062TIP3    H254678   2.780   3.769   4.224 -0.6126 -0.2925  0.2072
11063TIP3   OH254679   3.156   0.835  12.587 -0.4751  0.4768 -0.2546
11063TIP3    H154680   3.088   0.768  12.599 -0.9322  0.6982 -1.5368
11063TIP3    H254681   3.237   0.785  12.581 -0.3235  0.2628  2.3590
11064TIP3   OH254682   0.148   2.994  12.645 -0.2813 -0.3064  0.2397
11064TIP3    H154683   0.119   3.038  12.725  0.3708  0.5257  0.0287
11064TIP3    H254684   0.150   3.063  12.579  2.0633 -0.3206  0.2084
11065TIP3   OH254685   6.113   0.706  13.452  0.7939 -0.5531  0.2577
11065TIP3    H154686   6.020   0.688  13.448  0.9942 -1.6832  0.2947
11065TIP3    H254687   6.153   0.641  13.395  1.5321  0.2482 -0.1800
11066TIP3   OH254688   3.845   0.922  11.303 -0.2214  0.7599 -0.4032
11066TIP3    H154689   3.909   0.884  11.363  0.8790  1.2574 -1.2342
11066TIP3    H254690   3.849   1.016  11.319 -0.5218  0.8249 -0.6868
11067TIP3   OH254691   2.313   4.470  12.986  0.1761 -0.0674  0.1412
11067TIP3    H154692   2.224   4.494  13.012 -0.4203 -1.7213 -0.2243
11067TIP3    H254693   2.340   4.406  13.052  0.5037 -0.6933 -0.5899
11068TIP3   OH254694   0.047   2.005   4.317 -0.6123  0.5440 -0.8030
11068TIP3    H154695  -0.024   1.974   4.261 -1.0960 -0.2319  0.2181
11068TIP3    H254696   0.003   2.045   4.391  0.0234  0.6554 -0.4812
11069TIP3   OH254697   6.228   1.877   5.434 -0.2008 -0.2136 -0.4667
11069TIP3    H154698   6.183   1.950   5.477 -0.9957  0.8054 -2.8130
11069TIP3    H254699   6.278   1.919   5.364  0.0532 -1.8552 -1.3108
11070TIP3   OH254700   2.874   5.813   0.841 -0.6541  0.5261 -0.0194
11070TIP3    H154701   2.896   5.725   0.872 -0.6036  0.0144 -1.4286
11070TIP3    H254702   2.800   5.839   0.894 -0.9713 -0.5722  0.1106
11071TIP3   OH254703   1.286   3.640   1.489  0.3999 -0.1985  0.2737
11071TIP3    H154704   1.264   3.571   1.552 -0.1270  0.6668  1.0644
11071TIP3    H254705   1.376   3.621   1.463  0.6783 -0.5153  1.3958
11072TIP3   OH254706   4.131   0.142   0.496 -0.1528  0.1874  0.3580
11072TIP3    H154707   4.175   0.076   0.442  2.3135  2.5892 -0.7791
11072TIP3    H254708   4.084   0.091   0.562  0.7108 -2.7191 -1.1030
11073TIP3   OH254709   3.720   1.166   5.743 -0.2250 -0.2602  0.2192
11073TIP3    H154710   3.652   1.154   5.809 -1.2220 -1.8835 -0.9962
11073TIP3    H254711   3.786   1.099   5.764 -0.0764 -0.1381  0.1397
11074TIP3   OH254712   5.682   1.195   0.320 -0.1771 -0.3443  0.3975
11074TIP3    H154713   5.749   1.188   0.387  0.7974  0.4721 -0.4581
11074TIP3    H254714   5.714   1.263   0.261 -0.5755 -1.6216 -1.3688
11075TIP3   OH254715   5.836   3.386   1.111 -0.2388  0.3052 -0.1465
11075TIP3    H154716   5.783   3.415   1.185  0.9544 -0.2540  0.9587
11075TIP3    H254717   5.891   3.462   1.089 -0.3335  0.3489 -0.2375
11076TIP3   OH254718   5.331   0.781  14.358  0.2995  0.1859  0.1324
11076TIP3    H154719   5.368   0.849  14.302  2.9044 -1.8036 -0.7603
11076TIP3    H254720   5.359   0.804  14.446  1.2993  0.2300 -0.1837
11077TIP3   OH254721   1.752   0.318   2.762  0.1969  0.4416  0.0410
11077TIP3    H154722   1.691   0.283   2.827  1.0585 -0.1283  0.5670
11077TIP3    H254723   1.803   0.384   2.810  1.5104 -0.6771  0.2568
11078TIP3   OH254724   1.143   4.321   6.065 -0.2666 -0.3205 -0.3403
11078TIP3    H154725   1.094   4.329   5.983 -1.0793  0.7256  0.2217
11078TIP3    H254726   1.204   4.249   6.050  0.7633  0.9202 -2.4541
11079TIP3   OH254727   1.425   0.393   0.254  0.1457 -0.7468  0.3446
11079TIP3    H154728   1.446   0.304   0.282  0.2796  0.0378  3.0117
11079TIP3    H254729   1.498   0.418   0.197  0.9417 -1.7783  0.8716
11080TIP3   OH254730   5.774   1.128  11.639  0.4452  0.0510 -0.3660
11080TIP3    H154731   5.720   1.189  11.689  1.5665 -0.3930  1.5299
11080TIP3    H254732   5.820   1.183  11.576 -0.2418  0.8202 -0.2154
11081TIP3   OH254733   0.707   3.810  12.740  0.0942  0.2182 -0.0505
11081TIP3    H154734   0.694   3.905  12.734  0.7462  0.5208  2.2724
11081TIP3    H254735   0.666   3.785  12.822  1.2004 -1.2687  0.0915
11082TIP3   OH254736   1.238   2.325   2.697 -0.0536  0.1648 -0.0507
11082TIP3    H154737   1.212   2.415   2.717 -2.1509 -0.4232  0.1951
11082TIP3    H254738   1.237   2.280   2.782  1.2990 -0.0342 -0.1241
11083TIP3   OH254739   2.967   6.235   2.148 -0.5369 -0.2312 -0.2265
11083TIP3    H154740   3.046   6.269   2.105  0.3483 -0.0093  1.4967
11083TIP3    H254741   2.910   6.311   2.157 -0.9330 -0.3653 -1.3519
11084TIP3   OH254742   4.041   4.329   1.854 -0.1378  0.2579  0.2654
11084TIP3    H154743   4.083   4.364   1.932  0.0117 -0.7220  0.6423
11084TIP3    H254744   3.948   4.344   1.867 -0.1169  0.0445  0.6685
11085TIP3   OH254745   0.893   6.574  17.153  0.0075 -0.2205  0.4049
11085TIP3    H154746   0.836   6.638  17.109 -0.7214 -0.7936  0.4940
11085TIP3    H254747   0.980   6.592  17.118 -0.0609  1.2608  0.9216
11086TIP3   OH254748   4.534   0.432   1.729  0.2892 -0.1044  0.0611
11086TIP3    H154749   4.555   0.516   1.772 -0.2912  0.0323  0.0829
11086TIP3    H254750   4.443   0.442   1.701 -0.1891 -1.1957  1.1686
11087TIP3   OH254751   6.485   5.776   0.861 -0.0849  0.1085  0.2934
11087TIP3    H154752   6.507   5.866   0.835  2.1566 -0.6763 -0.7689
11087TIP3    H254753   6.525   5.766   0.947  1.8142 -0.5598 -0.6093
11088TIP3   OH254754   4.807   3.305   4.378  0.1122  0.0776  0.1531
11088TIP3    H154755   4.825   3.354   4.458  3.5307 -0.3309 -0.2458
11088TIP3    H254756   4.725   3.260   4.396 -0.9643  2.5540  2.1173
11089TIP3   OH254757   1.319   1.309  14.883  0.5255  0.5198  0.2039
11089TIP3    H154758   1.409   1.323  14.912  1.3404 -2.0002 -0.7686
11089TIP3    H254759   1.325   1.306  14.787 -0.3434 -0.7590  0.1571
11090TIP3   OH254760   0.193   0.215  12.521  0.0575 -0.3241 -0.7290
11090TIP3    H154761   0.261   0.244  12.461 -0.9954  0.1205 -1.7400
11090TIP3    H254762   0.112   0.222  12.471 -0.9905  0.9525  1.0201
11091TIP3   OH254763   6.145   3.525  16.618  0.0267  0.3187  0.7529
11091TIP3    H154764   6.167   3.603  16.567  1.7790  0.0480  1.0335
11091TIP3    H254765   6.179   3.542  16.706 -1.1246 -0.0654  1.2983
11092TIP3   OH254766   4.295   0.055   5.429  0.7243  0.1524 -0.3495
11092TIP3    H154767   4.235  -0.019   5.440 -0.6685  1.0732 -1.3401
11092TIP3    H254768   4.319   0.052   5.336  0.0953  1.3182 -0.5727
11093TIP3   OH254769   2.439   2.599   4.020 -0.0199 -0.2459  0.0336
11093TIP3    H154770   2.423   2.632   4.109  0.9603  0.7322 -0.1293
11093TIP3    H254771   2.464   2.508   4.032  1.5415  0.2651  0.9182
11094TIP3   OH254772   6.484   3.376  13.507  0.2337  0.1446  0.4438
11094TIP3    H154773   6.390   3.383  13.489  0.3573 -0.3515 -0.4136
11094TIP3    H254774   6.503   3.282  13.504  1.1015  0.3351 -1.2759
11095TIP3   OH254775   1.063   6.624  14.499  0.9418  0.1473 -0.3925
11095TIP3    H154776   1.134   6.636  14.436  1.1535 -0.9229 -0.3841
11095TIP3    H254777   0.983   6.634  14.447  1.0746  1.5238 -0.3681
11096TIP3   OH254778   5.493   4.582  14.894  0.6150  0.0034 -0.2480
11096TIP3    H154779   5.526   4.562  14.807 -1.0268  0.4988 -1.0116
11096TIP3    H254780   5.488   4.677  14.897 -1.7819 -0.0497 -0.6085
11097TIP3   OH254781   3.239   6.664   2.473 -0.0367  0.5783  0.5509
11097TIP3    H154782   3.181   6.664   2.549 -2.6493  0.6118 -1.3159
11097TIP3    H254783   3.247   6.756   2.449 -1.2921  0.4078 -0.6342
11098TIP3   OH254784   2.461   6.506   4.743  0.1244  0.0180 -0.0888
11098TIP3    H154785   2.459   6.411   4.732 -1.4077  0.1255 -0.8628
11098TIP3    H254786   2.489   6.518   4.834 -3.2144 -1.3144  1.2783
11099TIP3   OH254787   4.223   3.434   4.165 -0.0920 -0.4273 -0.2955
11099TIP3    H154788   4.282   3.456   4.093  0.1680  1.3023  0.4078
11099TIP3    H254789   4.238   3.502   4.230 -1.4985 -1.0328  0.7072
11100TIP3   OH254790   3.953   0.558   6.228  0.0096 -0.0971  0.2475
11100TIP3    H154791   4.007   0.480   6.215 -1.2925 -0.8982 -0.6576
11100TIP3    H254792   3.910   0.543   6.312 -1.2755 -1.0596 -0.5354
11101TIP3   OH254793   4.807   6.672  14.459  0.0372 -0.2400  0.4052
11101TIP3    H154794   4.828   6.675  14.552 -2.0601 -0.0201  0.9136
11101TIP3    H254795   4.779   6.582  14.443 -0.0932 -0.1500  0.1113
11102TIP3   OH254796   5.119   4.461   4.863  0.1168  0.0590  0.1208
11102TIP3    H154797   5.149   4.427   4.778  0.3118 -0.4999  0.4103
11102TIP3    H254798   5.027   4.481   4.849 -0.2697 -1.5179  0.2116
11103TIP3   OH254799   0.480   0.621  14.713  0.6796  0.0641 -0.0567
11103TIP3    H154800   0.469   0.551  14.778 -1.7846  0.8642  0.4868
11103TIP3    H254801   0.514   0.695  14.763 -0.3001  0.3853  0.1464
11104TIP3   OH254802   6.065   4.744  13.929  0.4802 -0.0976 -0.0796
11104TIP3    H154803   6.122   4.817  13.904  1.1529 -0.0533  1.4908
11104TIP3    H254804   5.980   4.765  13.891  1.0008  0.8535 -0.7362
11105TIP3   OH254805   5.884   4.756   0.628  0.0254 -0.1317  0.6750
11105TIP3    H154806   5.972   4.752   0.590 -0.5303 -1.3245 -0.5629
11105TIP3    H254807   5.879   4.844   0.667  1.9298 -0.2414  1.2532
11106TIP3   OH254808   6.778   2.432   2.153  0.2306 -0.2941 -0.0059
11106TIP3    H154809   6.754   2.396   2.067 -0.4048  0.3629 -0.1143
11106TIP3    H254810   6.759   2.526   2.146  2.0694  0.1300  0.1930
11107TIP3   OH254811   5.753   0.296   5.835 -0.3149 -0.1935 -0.1745
11107TIP3    H154812   5.756   0.201   5.836 -0.6959 -0.2187 -1.0638
11107TIP3    H254813   5.845   0.323   5.827 -0.2721 -0.4984 -0.7114
11108TIP3   OH254814   6.295   6.403   3.088 -0.2173 -0.3253 -0.4418
11108TIP3    H154815   6.379   6.387   3.046 -1.0284 -0.6033 -2.0852
11108TIP3    H254816   6.294   6.497   3.107  0.6558 -0.4152  0.0799
11109TIP3   OH254817   6.006   2.300   2.739 -0.3167 -0.2463  0.3463
11109TIP3    H154818   5.999   2.392   2.764  0.5177 -0.6444  2.1911
11109TIP3    H254819   5.923   2.261   2.767 -0.9287  0.0299 -0.9967
11110TIP3   OH254820   0.452   6.589  14.766  0.6286 -0.3992 -0.4671
11110TIP3    H154821   0.525   6.539  14.804  0.5828  0.6110  1.0449
11110TIP3    H254822   0.379   6.527  14.763  0.9506 -0.8092  0.1007
11111TIP3   OH254823   5.732   5.317  10.828  0.1068 -0.2593 -0.2548
11111TIP3    H154824   5.642   5.303  10.858 -0.1029 -0.0499 -0.7837
11111TIP3    H254825   5.723   5.337  10.735  0.7018 -0.2339 -0.3054
11112TIP3   OH254826   0.065   3.449   5.889  0.0935 -0.3459  0.0420
11112TIP3    H154827   0.063   3.357   5.863 -1.9783  0.1099 -1.7191
11112TIP3    H254828   0.085   3.447   5.982 -0.9997 -2.6443  0.3055
11113TIP3   OH254829   6.456   1.409   5.318  0.3729 -0.2509  0.4168
11113TIP3    H154830   6.379   1.386   5.369  0.9904 -0.0346  1.4787
11113TIP3    H254831   6.427   1.405   5.227 -0.5022 -1.6006  0.7282
11114TIP3   OH254832   2.652   0.417  12.711  0.8028 -0.0733 -0.1124
11114TIP3    H154833   2.598   0.340  12.692  1.6974 -0.9697  0.7980
11114TIP3    H254834   2.742   0.384  12.704  1.2188  1.1330 -0.6099
11115TIP3   OH254835   0.664   2.827  14.880  0.4175  0.0673 -0.9703
11115TIP3    H154836   0.603   2.806  14.951  1.5536  1.6952  0.5666
11115TIP3    H254837   0.718   2.899  14.914  2.8342 -0.9038 -2.4597
11116TIP3   OH254838   2.588   6.172  13.473  0.4493 -0.7711 -0.6601
11116TIP3    H154839   2.569   6.079  13.481  0.4130 -0.8041 -1.1053
11116TIP3    H254840   2.624   6.182  13.385 -1.5001 -0.0500 -1.4351
11117TIP3   OH254841   6.243   5.080  14.617 -0.2833  0.1274  0.2996
11117TIP3    H154842   6.241   4.985  14.622 -2.4168 -0.0522 -1.7993
11117TIP3    H254843   6.183   5.110  14.685 -0.4418 -0.0786  0.2481
11118TIP3   OH254844   5.012   2.286   0.886  0.7174  0.2966  0.3879
11118TIP3    H154845   5.106   2.284   0.869  0.7599 -0.8320  0.6526
11118TIP3    H254846   4.986   2.376   0.867  1.6229  0.3215 -0.8803
11119TIP3   OH254847   0.144   4.218   5.755 -0.2425  0.2056 -0.0960
11119TIP3    H154848   0.121   4.126   5.748  0.1398 -0.0115  1.1208
11119TIP3    H254849   0.062   4.265   5.741 -0.3381 -0.2842 -1.2686
11120TIP3   OH254850   6.464   5.915   5.367 -0.6061 -0.2534 -0.0956
11120TIP3    H154851   6.520   5.936   5.442 -1.7273  0.7690  0.4751
11120TIP3    H254852   6.486   5.824   5.347  1.2278  0.0933  0.1211
11121TIP3   OH254853   0.510   5.109   2.743  0.1675 -0.2357  0.2628
11121TIP3    H154854   0.434   5.080   2.795  0.1718 -1.0346 -0.1676
11121TIP3    H254855   0.505   5.205   2.745 -0.6459 -0.2756  0.5483
11122TIP3   OH254856   1.437   1.647   0.301 -0.0533 -0.5095 -0.0674
11122TIP3    H154857   1.392   1.564   0.318 -0.7795 -0.1724 -0.3074
11122TIP3    H254858   1.498   1.656   0.375  0.1519 -1.3291 -0.1214
11123TIP3   OH254859   6.049   5.637  12.927  0.5107 -0.8499 -0.1065
11123TIP3    H154860   6.132   5.591  12.941 -0.4774 -2.0438  2.6434
11123TIP3    H254861   5.983   5.567  12.926 -0.5791  0.1561 -1.1793
11124TIP3   OH254862   5.651   1.663   3.646  0.3419 -0.0346  0.3824
11124TIP3    H154863   5.617   1.750   3.668  2.5492  0.7935  0.8142
11124TIP3    H254864   5.691   1.675   3.560 -0.4550 -0.9961 -0.1457
11125TIP3   OH254865   5.952   0.690  12.546  0.0223  0.2131  0.4748
11125TIP3    H154866   6.035   0.644  12.535  0.9324  1.8745 -0.0170
11125TIP3    H254867   5.916   0.655  12.628  1.9666  0.5417  1.5370
11126TIP3   OH254868   4.878   0.379   3.128 -0.1796 -0.1489  0.2741
11126TIP3    H154869   4.966   0.372   3.164 -0.3902  0.0292  0.8213
11126TIP3    H254870   4.822   0.402   3.202 -0.2966  2.4083 -0.5035
11127TIP3   OH254871   4.743   3.734  12.260 -0.3972  0.2606 -0.0806
11127TIP3    H154872   4.706   3.710  12.175  0.2803  1.3917 -0.7214
11127TIP3    H254873   4.712   3.823  12.275 -1.4411 -0.3185  1.4237
11128TIP3   OH254874   5.279   6.456   1.507  0.7473  0.1116  0.0978
11128TIP3    H154875   5.203   6.447   1.449  0.8837 -1.8821  0.1421
11128TIP3    H254876   5.257   6.529   1.564 -1.2773 -0.5739  0.2721
11129TIP3   OH254877   5.001   3.395  14.041 -0.2846 -0.2686  0.1881
11129TIP3    H154878   4.935   3.400  13.972 -1.4973 -0.6371  1.2880
11129TIP3    H254879   4.951   3.386  14.122  1.1216 -0.7636  1.0391
11130TIP3   OH254880   1.729   4.837   3.384 -0.3021  0.1808  0.1911
11130TIP3    H154881   1.673   4.886   3.445 -0.5640 -0.7510  0.7218
11130TIP3    H254882   1.742   4.753   3.427  1.4674  0.3459  0.0468
11131TIP3   OH254883   6.073   2.389  10.597  0.3471  0.0303  0.5501
11131TIP3    H154884   6.099   2.307  10.640 -1.9896 -0.4505  1.1989
11131TIP3    H254885   6.089   2.456  10.663  1.7129  0.0556  0.2269
11132TIP3   OH254886   5.608   2.780  15.740  0.0636 -0.7462 -0.2137
11132TIP3    H154887   5.521   2.754  15.709 -0.1404  0.6847 -0.9683
11132TIP3    H254888   5.603   2.777  15.835 -1.4382  1.0733 -0.1834
11133TIP3   OH254889   3.431   0.166   3.515  0.0557 -0.1043 -0.6193
11133TIP3    H154890   3.406   0.240   3.461  2.7612  0.4187 -1.3288
11133TIP3    H254891   3.505   0.198   3.567 -0.1272 -1.6832  0.7131
11134TIP3   OH254892   3.314   6.115   1.914 -0.2813  0.7526 -0.1393
11134TIP3    H154893   3.298   6.191   1.969 -1.1353  0.6317 -0.2060
11134TIP3    H254894   3.229   6.096   1.874 -0.2968 -0.7631  0.5427
11135TIP3   OH254895   5.545   3.520  14.349  0.0340 -0.2426 -0.0498
11135TIP3    H154896   5.625   3.554  14.308  0.3277 -1.5037 -0.5720
11135TIP3    H254897   5.474   3.562  14.301  0.3284  1.6965  1.0861
11136TIP3   OH254898   3.363   1.350  11.440  0.4065  0.0965 -0.3414
11136TIP3    H154899   3.329   1.433  11.406  0.1041  0.7615  1.5106
11136TIP3    H254900   3.398   1.372  11.526 -0.2903 -1.8393  0.4717
11137TIP3   OH254901   5.289   5.531   3.701  0.2186 -0.3554 -0.3786
11137TIP3    H154902   5.385   5.540   3.704  0.2137 -0.6020  0.7219
11137TIP3    H254903   5.272   5.499   3.612  1.1906 -0.6483 -0.4811
11138TIP3   OH254904   5.933   5.859  14.579  0.2696  0.2226 -0.4879
11138TIP3    H154905   5.916   5.929  14.642 -2.0343 -0.4112 -0.3287
11138TIP3    H254906   5.931   5.904  14.494 -1.2565  0.3918 -0.3943
11139TIP3   OH254907   6.361   6.669   1.108  0.4012  0.4372  0.2446
11139TIP3    H154908   6.275   6.710   1.117 -0.3433 -1.3711  2.1019
11139TIP3    H254909   6.422   6.742   1.098 -1.2026  1.8066  0.0455
11140TIP3   OH254910   3.204   3.540  17.208  0.4544  0.1339  0.5533
11140TIP3    H154911   3.163   3.607  17.153 -1.6284 -1.6802 -0.2592
11140TIP3    H254912   3.287   3.521  17.164 -0.2410  0.1743 -0.8513
11141TIP3   OH254913   1.677   3.211   4.967  0.4803 -0.2073 -0.3687
11141TIP3    H154914   1.589   3.239   4.940  0.0191 -1.3176 -0.0697
11141TIP3    H254915   1.662   3.136   5.023  1.5928  0.1526  0.4501
11142TIP3   OH254916   4.015   5.026  15.045 -0.0766 -0.0767  0.6523
11142TIP3    H154917   3.962   5.103  15.064  1.2088  0.8775  0.5088
11142TIP3    H254918   3.951   4.956  15.027 -1.2726  1.1442 -0.0258
11143TIP3   OH254919   1.580   4.575   6.135  0.6764  0.2599  0.0419
11143TIP3    H154920   1.659   4.627   6.123 -0.0400  1.0476 -1.6447
11143TIP3    H254921   1.576   4.557   6.229  1.9072  1.7078  0.4030
11144TIP3   OH254922   6.821   1.869   0.161 -0.3361 -0.1395  0.8106
11144TIP3    H154923   6.836   1.881   0.068  0.8927  1.6919  1.1945
11144TIP3    H254924   6.752   1.803   0.166 -1.0500  0.3558 -1.4086
11145TIP3   OH254925   1.646   1.841   2.902  0.1561  0.6798 -0.1651
11145TIP3    H154926   1.644   1.755   2.945 -1.0427  1.5378  1.6126
11145TIP3    H254927   1.737   1.852   2.876  0.8481 -0.1296  1.7293
11146TIP3   OH254928   3.277   0.029  16.357  0.2458 -0.6471 -0.2632
11146TIP3    H154929   3.364   0.056  16.327  0.3750  0.5044  1.0002
11146TIP3    H254930   3.262   0.082  16.436 -2.4460  0.7299 -1.5510
11147TIP3   OH254931   3.842   6.716  13.357  0.3865  0.1990 -0.4677
11147TIP3    H154932   3.829   6.772  13.434  2.3896  0.0613  0.0101
11147TIP3    H254933   3.802   6.765  13.285 -1.2428  0.4807  0.5597
11148TIP3   OH254934   5.677   6.100   4.683  0.1799 -0.1589  0.2317
11148TIP3    H154935   5.678   6.099   4.587 -1.7629 -1.0474  0.1529
11148TIP3    H254936   5.736   6.171   4.707  0.3732  0.3797 -1.6357
11149TIP3   OH254937   1.780   1.624   4.204 -0.1800  0.5478  0.0287
11149TIP3    H154938   1.695   1.665   4.185 -1.3173 -1.2465  0.9375
11149TIP3    H254939   1.825   1.621   4.120 -2.2227 -1.0003 -1.1065
11150TIP3   OH254940   1.831   4.298   4.638  0.0099  0.1737 -0.3567
11150TIP3    H154941   1.889   4.370   4.611  1.2900 -0.0754  1.5427
11150TIP3    H254942   1.871   4.220   4.600 -0.3633  0.2527 -0.9187
11151TIP3   OH254943   6.226   4.379   3.297  0.1494  0.0311  0.4059
11151TIP3    H154944   6.195   4.465   3.267  1.7606  0.6027  0.2799
11151TIP3    H254945   6.188   4.317   3.235 -1.2856  0.5920  0.6739
11152TIP3   OH254946   5.200   3.925  11.261  0.3191  0.1246 -0.5246
11152TIP3    H154947   5.198   3.894  11.171  1.2929  0.9217 -0.8468
11152TIP3    H254948   5.261   3.866  11.306 -1.8785 -1.7282  0.2461
11153TIP3   OH254949   6.324   6.459   4.572  0.5342  0.3082  0.0600
11153TIP3    H154950   6.403   6.509   4.592  0.9215  0.5871 -1.9196
11153TIP3    H254951   6.258   6.526   4.551  0.1015  0.0479  0.5554
11154TIP3   OH254952   6.057   1.586  12.842  0.1885 -0.4857  0.3266
11154TIP3    H154953   6.007   1.598  12.761  3.2303 -1.1864 -1.8452
11154TIP3    H254954   6.036   1.663  12.895 -1.1206  0.5508 -1.5741
11155TIP3   OH254955   2.910   5.300   4.153  0.3456 -0.0806 -0.0590
11155TIP3    H154956   2.887   5.216   4.115 -0.8346 -0.2071  0.8787
11155TIP3    H254957   2.960   5.345   4.084  2.7620 -2.2644  0.0960
11156TIP3   OH254958   4.867   1.206   4.684  0.5360  0.1316  0.2355
11156TIP3    H154959   4.836   1.177   4.770 -0.0850  1.4901  0.4930
11156TIP3    H254960   4.940   1.147   4.664 -0.4681 -1.3976  0.8416
11157TIP3   OH254961   2.953   3.684   5.618 -0.1653  0.5799 -0.2004
11157TIP3    H154962   3.020   3.743   5.652 -0.5307  1.2513 -0.6067
11157TIP3    H254963   2.948   3.614   5.682  1.1989  0.3025 -0.3638
11158TIP3   OH254964   5.576   5.241  14.636  0.1787  0.1369 -0.3151
11158TIP3    H154965   5.485   5.269  14.648  0.3514  0.3580  0.5162
11158TIP3    H254966   5.579   5.207  14.546 -0.9602 -0.7725 -0.0262
11159TIP3   OH254967   5.810   4.938   0.396 -0.2684  0.3893  0.2376
11159TIP3    H154968   5.838   4.984   0.475  1.3153 -1.0285  0.5614
11159TIP3    H254969   5.864   4.859   0.393  0.7247  1.0041 -2.9729
11160TIP3   OH254970   2.317   5.395   2.396  0.7387  0.1036  0.5452
11160TIP3    H154971   2.284   5.367   2.310 -0.2863  0.0598  0.9394
11160TIP3    H254972   2.338   5.313   2.441  0.2166  0.0752  0.7410
11161TIP3   OH254973   5.339   0.380   5.882  0.1785 -0.5384 -0.2506
11161TIP3    H154974   5.343   0.302   5.828  1.4471 -1.0457  0.5276
11161TIP3    H254975   5.424   0.422   5.870 -0.2591  0.3936 -0.1770
11162TIP3   OH254976   4.777   3.779   1.165 -0.2382  0.2971  0.0707
11162TIP3    H154977   4.764   3.749   1.075  0.8468  0.1228 -0.0415
11162TIP3    H254978   4.762   3.873   1.161 -1.5025  0.1005 -0.0177
11163TIP3   OH254979   5.497   5.303   6.646 -0.0098 -0.3618 -0.1173
11163TIP3    H154980   5.546   5.343   6.575  0.1152  0.0931  0.2181
11163TIP3    H254981   5.450   5.376   6.687 -0.9073 -0.7746 -0.3841
11164TIP3   OH254982   2.035   2.980  13.613 -0.4608  0.0965 -0.6645
11164TIP3    H154983   2.061   2.904  13.665 -0.6392 -0.2844 -1.1195
11164TIP3    H254984   2.002   3.043  13.676  0.2369  0.0312 -0.2164
11165TIP3   OH254985   4.733   0.105  10.770  0.4260  0.2759  0.4332
11165TIP3    H154986   4.645   0.089  10.737 -0.4113 -1.0644  3.0761
11165TIP3    H254987   4.731   0.195  10.803 -0.0864  0.1100  0.8590
11166TIP3   OH254988   6.012   4.252   1.671  0.1172  0.3865  0.3304
11166TIP3    H154989   6.060   4.320   1.624  0.1087  0.2435  0.1173
11166TIP3    H254990   6.071   4.176   1.670  0.2811  0.5011  0.8844
11167TIP3   OH254991   1.112   5.003   5.205  0.7629 -0.6645  0.3123
11167TIP3    H154992   1.159   5.075   5.162 -0.7322 -0.0308 -0.3360
11167TIP3    H254993   1.105   4.935   5.137 -0.2081 -0.3004  0.0259
11168TIP3   OH254994   4.245   5.964  11.275  0.5925 -0.8035  0.5832
11168TIP3    H154995   4.198   6.040  11.240 -0.0060 -1.3569  0.1590
11168TIP3    H254996   4.200   5.942  11.356  0.3246 -1.1312  0.3477
11169TIP3   OH254997   6.136   2.672  16.976 -0.1194  0.0293  0.0608
11169TIP3    H154998   6.128   2.620  16.897 -0.7471  0.1457  0.0406
11169TIP3    H254999   6.224   2.653  17.009  0.3219  0.3492 -0.9146
11170TIP3   OH255000   0.953   6.477   5.339  0.4110  0.6335 -0.0886
11170TIP3    H155001   0.999   6.398   5.314 -0.3424 -0.1791  1.0039
11170TIP3    H255002   1.022   6.540   5.360  1.0515 -0.4664  1.2574
11171TIP3   OH255003   5.576   2.763  16.493  0.5488  0.4294 -0.0361
11171TIP3    H155004   5.625   2.768  16.574  1.5014  0.2592 -0.5828
11171TIP3    H255005   5.550   2.853  16.475 -0.2694  0.3769  0.7976
11172TIP3   OH255006   2.131   1.215   4.568 -0.3805 -0.1040 -0.0258
11172TIP3    H155007   2.215   1.179   4.539  0.0192  1.6748 -1.2121
11172TIP3    H255008   2.134   1.307   4.542 -2.9812 -0.1438 -0.7634
11173TIP3   OH255009   2.681   3.772  14.855 -0.2565  0.2643  0.0337
11173TIP3    H155010   2.748   3.790  14.922  1.8232 -2.5215 -1.0608
11173TIP3    H255011   2.629   3.701  14.893 -0.8693  0.5915 -0.1977
11174TIP3   OH255012   0.563   3.317  15.112 -0.0154  0.0739 -0.0332
11174TIP3    H155013   0.472   3.337  15.132  0.1532  0.2502  0.5658
11174TIP3    H255014   0.614   3.376  15.168  0.4658  0.5298 -0.9264
11175TIP3   OH255015   0.475   1.077   4.649  0.4618 -0.4248 -0.5608
11175TIP3    H155016   0.553   1.077   4.705 -0.7860  1.5952  1.3737
11175TIP3    H255017   0.476   1.163   4.606 -0.3307 -0.6525 -1.0583
11176TIP3   OH255018   4.915   4.400   5.348 -0.6814 -0.0241 -0.2808
11176TIP3    H155019   4.959   4.366   5.270 -1.6722 -0.6769 -0.5803
11176TIP3    H255020   4.917   4.327   5.410  0.2403  0.5448  0.3711
11177TIP3   OH255021   2.178   0.204   1.437  0.1772  0.3264 -0.3660
11177TIP3    H155022   2.220   0.274   1.486 -0.4069  0.9406 -0.7334
11177TIP3    H255023   2.110   0.247   1.386  1.5984 -0.0763 -2.7615
11178TIP3   OH255024   3.425   5.168   4.789  0.2024  1.0423 -0.0489
11178TIP3    H155025   3.336   5.193   4.767  0.0956  0.8708  0.1794
11178TIP3    H255026   3.479   5.205   4.720 -0.3011 -0.9081 -1.5635
11179TIP3   OH255027   4.785   0.402  12.701  0.4168 -0.2035  0.5239
11179TIP3    H155028   4.737   0.469  12.652  2.3271  0.9524  0.1607
11179TIP3    H255029   4.799   0.332  12.638  2.0204  0.8661 -0.3550
11180TIP3   OH255030   0.684   2.276   1.178  0.6149  0.1416 -0.2261
11180TIP3    H155031   0.738   2.281   1.257  0.4153  1.5308 -0.1549
11180TIP3    H255032   0.648   2.364   1.168 -0.6257 -0.4253 -0.9907
11181TIP3   OH255033   4.609   2.670   2.714  0.1648  0.1096  0.1208
11181TIP3    H155034   4.542   2.736   2.696  0.5696  0.9057  1.4456
11181TIP3    H255035   4.568   2.609   2.775  0.3394  0.0699  0.2002
11182TIP3   OH255036   1.454   5.368  16.767 -0.3787  0.5258  0.4505
11182TIP3    H155037   1.531   5.328  16.808 -0.3200 -0.5218 -0.6045
11182TIP3    H255038   1.383   5.306  16.784 -0.5033  0.4186 -0.3983
11183TIP3   OH255039   2.151   4.190   2.683  0.0541 -0.3861  0.1969
11183TIP3    H155040   2.103   4.253   2.628 -0.2109 -0.0271  0.8270
11183TIP3    H255041   2.185   4.242   2.755 -1.4508 -1.1708  1.5581
11184TIP3   OH255042   1.552   6.695   0.899 -0.3816  0.1250  0.0475
11184TIP3    H155043   1.501   6.615   0.913 -2.7368  1.6729  1.0650
11184TIP3    H255044   1.534   6.719   0.808  0.5210 -0.6020 -0.3314
11185TIP3   OH255045   5.605   3.973   0.367  0.2246  0.3912  0.2725
11185TIP3    H155046   5.535   3.934   0.419 -0.7408  2.1447  0.3611
11185TIP3    H255047   5.685   3.930   0.398 -0.5648 -0.0990  1.7119
11186TIP3   OH255048   2.146   2.532  13.144  0.3611  0.0857 -0.0177
11186TIP3    H155049   2.195   2.450  13.157  0.6591  0.2450 -0.1212
11186TIP3    H255050   2.135   2.567  13.233  0.3972  0.0285  0.0097
11187TIP3   OH255051   1.498   5.133   1.868  0.1105 -0.4964 -0.0213
11187TIP3    H155052   1.489   5.227   1.881 -0.8708 -0.5509 -0.2696
11187TIP3    H255053   1.447   5.093   1.938  0.7265 -0.8525  0.2318
11188TIP3   OH255054   3.946   2.689   5.868  0.2589 -0.0255  0.5313
11188TIP3    H155055   3.971   2.770   5.823 -2.4784  0.9363  0.6004
11188TIP3    H255056   4.013   2.678   5.936  1.2725  1.5664 -0.1599
11189TIP3   OH255057   1.650   0.104  15.812  0.3620 -0.1583 -0.3701
11189TIP3    H155058   1.666   0.109  15.718  0.0635 -0.7634 -0.4618
11189TIP3    H255059   1.580   0.040  15.821  0.6554 -0.4025  0.2909
11190TIP3   OH255060   3.599   4.672   1.373 -0.5114 -0.0159  0.7076
11190TIP3    H155061   3.622   4.579   1.378 -1.2092 -0.3988 -1.7572
11190TIP3    H255062   3.674   4.717   1.411  0.3011 -1.5386  1.0096
11191TIP3   OH255063   4.648   5.763   2.604 -0.4922 -0.0462 -0.2211
11191TIP3    H155064   4.696   5.683   2.583  0.1450 -0.2075  1.6373
11191TIP3    H255065   4.574   5.734   2.657 -0.5356  0.5415  0.0513
11192TIP3   OH255066   1.870   0.958   2.967  0.2998  0.5593  0.2674
11192TIP3    H155067   1.957   0.969   3.004  0.0490  1.6422  0.5655
11192TIP3    H255068   1.814   0.939   3.042  0.5069 -1.7497 -0.0888
11193TIP3   OH255069   4.861   6.548   4.627  0.0965 -0.4373  0.9640
11193TIP3    H155070   4.899   6.460   4.633  0.9866 -0.1410  0.0283
11193TIP3    H255071   4.864   6.568   4.533 -1.5779 -0.0335  0.9701
11194TIP3   OH255072   0.203   2.311  16.883 -0.3722 -0.4624 -0.1796
11194TIP3    H155073   0.295   2.335  16.892 -0.6944  1.2177 -0.9917
11194TIP3    H255074   0.196   2.271  16.796 -0.2625 -1.4324  0.2457
11195TIP3   OH255075   4.047   6.190  14.856 -0.0672 -0.2624  0.2851
11195TIP3    H155076   4.107   6.256  14.820  1.2907 -1.0856  0.9782
11195TIP3    H255077   4.028   6.132  14.782  0.5839 -0.4060  0.2227
11196TIP3   OH255078   4.154   6.651   3.938  0.1539 -0.2626 -0.3640
11196TIP3    H155079   4.223   6.591   3.965 -0.3221 -0.9881 -0.7174
11196TIP3    H255080   4.200   6.720   3.890  0.7141 -0.3225  0.0719
11197TIP3   OH255081   2.159   3.133   2.332  0.4143  0.1520  0.1398
11197TIP3    H155082   2.093   3.139   2.401  0.4096  0.5169  0.1027
11197TIP3    H255083   2.180   3.039   2.328 -0.4725 -0.0440 -0.2043
11198TIP3   OH255084   1.746   1.130  15.173 -0.6049  0.7939 -0.0728
11198TIP3    H155085   1.841   1.139  15.183 -0.3298 -1.4881 -0.2207
11198TIP3    H255086   1.715   1.220  15.160  1.2781  1.8277  1.8514
11199TIP3   OH255087   1.411   1.268   3.342  0.7079  0.3537  0.2299
11199TIP3    H155088   1.414   1.208   3.267  1.3737  0.4883  0.1409
11199TIP3    H255089   1.354   1.224   3.405 -0.4047  0.5509 -0.6144
11200TIP3   OH255090   3.897   4.480  11.165 -0.3636  0.2183  0.2568
11200TIP3    H155091   3.861   4.393  11.181 -2.2918  0.6267 -1.4578
11200TIP3    H255092   3.855   4.536  11.231  0.5506 -0.0254  1.0801
11201TIP3   OH255093   4.621   4.252   5.123  0.0277 -0.4837  0.7269
11201TIP3    H155094   4.564   4.256   5.047 -0.2215 -0.2641  0.9269
11201TIP3    H255095   4.619   4.160   5.150 -1.3513 -0.2308  1.5851
11202TIP3   OH255096   4.557   3.513  12.846 -0.5142 -0.6028 -0.0502
11202TIP3    H155097   4.514   3.573  12.786 -0.8536  0.0058  0.7748
11202TIP3    H255098   4.626   3.566  12.887  0.0877 -1.1699 -0.3128
11203TIP3   OH255099   5.895   4.229   0.540  0.5818  0.3057  0.2702
11203TIP3    H155100   5.976   4.194   0.502 -0.3023  0.7923 -2.2332
11203TIP3    H255101   5.913   4.323   0.553  0.1522  0.6012 -1.1561
11204TIP3   OH255102   4.132   2.684  10.909  0.3901  0.0093 -0.5014
11204TIP3    H155103   4.039   2.700  10.895  0.0979 -1.5221 -0.4918
11204TIP3    H255104   4.172   2.691  10.822 -0.2986 -2.5703 -1.1087
11205TIP3   OH255105   2.115   4.149   0.007 -0.1059 -0.2566 -0.2511
11205TIP3    H155106   2.089   4.183   0.093 -2.3051  1.7890 -1.5950
11205TIP3    H255107   2.089   4.057   0.008  0.8864 -0.5529  1.6019
11206TIP3   OH255108   4.233   4.608  13.194 -0.1097 -0.4679  0.2124
11206TIP3    H155109   4.185   4.538  13.239 -1.8070  0.1772 -0.4806
11206TIP3    H255110   4.270   4.566  13.116  3.0623 -1.6527  2.1703
11207TIP3   OH255111   3.870   3.795  15.106 -0.0453 -0.1360  0.0295
11207TIP3    H155112   3.922   3.873  15.126 -0.9791  0.5994 -0.3115
11207TIP3    H255113   3.927   3.741  15.053  0.6376  0.2955  0.3062
11208TIP3   OH255114   4.550   4.759  15.835 -0.0669  0.3871  0.7452
11208TIP3    H155115   4.546   4.676  15.788  0.6366  1.1159 -0.6765
11208TIP3    H255116   4.612   4.812  15.785 -0.3978  1.7240  1.6866
11209TIP3   OH255117   2.165   3.629   4.109  0.5229  0.1106 -0.1246
11209TIP3    H155118   2.144   3.589   4.024  0.9834 -1.1035  0.3136
11209TIP3    H255119   2.109   3.707   4.113  0.1075 -0.1015 -1.3122
11210TIP3   OH255120   6.573   6.571  13.742 -0.2240 -0.2810  0.1580
11210TIP3    H155121   6.579   6.503  13.675 -0.3253  0.0037 -0.1443
11210TIP3    H255122   6.562   6.652  13.693  0.7553  0.0632  0.4809
11211TIP3   OH255123   2.883   4.916   1.691 -0.5295  0.0851  0.4564
11211TIP3    H155124   2.966   4.903   1.736  0.8180  0.0347 -1.8387
11211TIP3    H255125   2.906   4.916   1.598 -3.2009 -0.6268 -0.3221
11212TIP3   OH255126   0.728   6.062  12.167 -0.2242 -0.4509  0.1112
11212TIP3    H155127   0.803   6.088  12.221  0.5560  0.3815 -1.3282
11212TIP3    H255128   0.747   5.972  12.140  0.0785 -0.3655  0.0408
11213TIP3   OH255129   2.381   1.319  16.400  0.3437 -0.5369 -0.0007
11213TIP3    H155130   2.433   1.399  16.412 -0.6943  0.0607  0.6032
11213TIP3    H255131   2.340   1.329  16.314 -2.3720  1.1557  1.3567
11214TIP3   OH255132   1.516   0.134   2.620  0.4482 -0.1360  0.0912
11214TIP3    H155133   1.538   0.043   2.642  1.5759  0.0535 -0.1713
11214TIP3    H255134   1.487   0.172   2.703  1.0537 -0.4435  0.4554
11215TIP3   OH255135   4.803   2.434   1.191  0.1035 -0.5128  0.0298
11215TIP3    H155136   4.849   2.350   1.198  0.1160 -0.7571 -2.1175
11215TIP3    H255137   4.849   2.492   1.252  0.4180 -1.9118  1.1790
11216TIP3   OH255138   4.948   0.925   5.328  0.7412 -0.3074 -0.4833
11216TIP3    H155139   4.949   0.960   5.418  2.0764  2.3850 -1.4210
11216TIP3    H255140   4.995   0.842   5.334 -0.1840 -0.7542  1.4609
11217TIP3   OH255141   0.281   4.562  16.344 -0.4474 -0.6570  0.1084
11217TIP3    H155142   0.298   4.655  16.327 -0.5719 -0.1992  2.2505
11217TIP3    H255143   0.249   4.559  16.434  1.3435 -2.9959  0.7663
11218TIP3   OH255144   0.465   6.063   2.999  0.1788 -0.4321 -0.9587
11218TIP3    H155145   0.407   6.132   2.967  1.4373  1.1626  0.0602
11218TIP3    H255146   0.504   6.099   3.079  0.3483 -2.6166  0.0247
11219TIP3   OH255147   5.021   0.133   4.575 -0.1385 -0.6100  0.1520
11219TIP3    H155148   5.042   0.041   4.565 -0.8145 -0.5277 -2.9695
11219TIP3    H255149   4.938   0.134   4.624  0.5634 -1.5289  1.4056
11220TIP3   OH255150   0.086   0.428  11.844  0.2249  0.7465 -0.3577
11220TIP3    H155151   0.040   0.497  11.796  0.1341  1.5262  0.7958
11220TIP3    H255152   0.109   0.363  11.778 -2.1685  0.5219 -1.0478
11221TIP3   OH255153   5.074   0.405   3.975 -0.0023 -0.2402  0.4049
11221TIP3    H155154   5.079   0.398   4.070  0.7285 -1.9868  0.2720
11221TIP3    H255155   5.044   0.319   3.945 -0.4062  0.3318 -0.9406
11222TIP3   OH255156   1.508   2.616  13.924 -0.4310 -0.4378  0.0465
11222TIP3    H155157   1.520   2.633  14.017  3.1114 -1.7846 -0.0097
11222TIP3    H255158   1.550   2.690  13.880  2.2531 -2.0467 -0.3146
11223TIP3   OH255159   0.644   0.282  15.721 -0.2901  0.5830 -0.2316
11223TIP3    H155160   0.625   0.192  15.695 -1.6543  0.7149  0.2509
11223TIP3    H255161   0.559   0.325  15.723  0.0543  1.2806  1.8377
11224TIP3   OH255162   0.012   1.288  12.770  0.3576  0.1766 -0.0514
11224TIP3    H155163   0.095   1.335  12.772  0.9749 -0.8012 -1.2123
11224TIP3    H255164  -0.004   1.271  12.677 -0.4772 -0.7708  0.2445
11225TIP3   OH255165   1.799   4.649   1.777 -0.0398  0.2002 -0.2791
11225TIP3    H155166   1.894   4.658   1.766 -0.0875 -0.9173 -1.8633
11225TIP3    H255167   1.789   4.568   1.828 -0.1664 -0.4568 -1.3224
11226TIP3   OH255168   3.896   2.719   3.141  0.2354  0.6664 -0.0501
11226TIP3    H155169   3.955   2.648   3.166  1.9459  2.0315 -0.0407
11226TIP3    H255170   3.953   2.787   3.104 -1.2626  2.2400  0.3623
11227TIP3   OH255171   2.287   5.775   0.176  0.5282  0.5274 -0.1646
11227TIP3    H155172   2.334   5.858   0.170  1.7337 -0.1337 -0.3571
11227TIP3    H255173   2.312   5.740   0.262 -1.0560  0.9666  0.5072
11228TIP3   OH255174   5.101   2.924   6.376 -0.1015  0.8349  0.0998
11228TIP3    H155175   5.124   2.913   6.468 -0.9523 -1.2358  0.1227
11228TIP3    H255176   5.168   2.983   6.341  1.6995 -0.2741  1.4965
11229TIP3   OH255177   4.884   0.929   0.404 -0.2292 -0.7216 -0.2971
11229TIP3    H155178   4.977   0.920   0.425 -0.1206  0.8746  0.0171
11229TIP3    H255179   4.864   0.853   0.350  1.1760 -1.2710 -0.0806
11230TIP3   OH255180   1.334   1.458   3.964 -0.5757  0.0539 -0.4562
11230TIP3    H155181   1.284   1.535   3.935  0.0373  0.3550 -0.7373
11230TIP3    H255182   1.312   1.449   4.057 -1.4762 -0.0752 -0.6727
11231TIP3   OH255183   6.242   0.271   1.096  0.4769 -0.7547 -0.3788
11231TIP3    H155184   6.236   0.318   1.179  0.3125  0.8893 -1.2833
11231TIP3    H255185   6.330   0.288   1.065 -0.0231  0.1236 -1.3664
11232TIP3   OH255186   4.414   0.692  12.933 -0.2769  0.0139  0.3951
11232TIP3    H155187   4.497   0.721  12.971  0.0990  0.2422 -0.5791
11232TIP3    H255188   4.426   0.598  12.917  0.1313  0.2242 -0.5809
11233TIP3   OH255189   3.151   4.103  11.716  0.0524 -0.5855 -0.6148
11233TIP3    H155190   3.084   4.069  11.655  0.3182  0.1457 -1.3275
11233TIP3    H255191   3.104   4.115  11.798 -0.8018  0.2972 -1.2186
11234TIP3   OH255192   5.816   4.525   6.861 -0.5690  0.4300 -0.3780
11234TIP3    H155193   5.863   4.608   6.850  0.0976  0.1949  0.5690
11234TIP3    H255194   5.724   4.550   6.868 -0.3792  1.0839 -0.1443
11235TIP3   OH255195   4.214   5.036  13.185 -0.0378 -0.1608  0.0649
11235TIP3    H155196   4.121   5.059  13.183 -0.4060 -1.6075 -0.1433
11235TIP3    H255197   4.241   5.055  13.275 -0.3950  0.7128  0.0030
11236TIP3   OH255198   3.786   4.198   4.866  0.1867  0.0082 -0.1158
11236TIP3    H155199   3.830   4.244   4.795  0.9770  0.3284  0.5579
11236TIP3    H255200   3.857   4.162   4.919 -0.3887 -2.5160 -0.9103
11237TIP3   OH255201   3.308   0.510  15.531  0.4732 -0.1724  0.8085
11237TIP3    H155202   3.286   0.418  15.548 -0.3856  0.0788  1.1360
11237TIP3    H255203   3.344   0.542  15.614 -0.3269  0.0917  1.0610
11238TIP3   OH255204   5.188   0.880   0.164 -0.4672  0.2401  0.2901
11238TIP3    H155205   5.110   0.902   0.113  0.7382  0.6759 -1.4711
11238TIP3    H255206   5.223   0.802   0.122  0.0625  0.0659  1.0403
11239TIP3   OH255207   3.873   3.684  12.877  0.0649 -0.3768  0.8886
11239TIP3    H155208   3.951   3.629  12.870 -0.0569 -0.3616 -1.1340
11239TIP3    H255209   3.854   3.711  12.787 -0.5717  2.0099  1.6621
11240TIP3   OH255210   0.291   2.870  15.907  0.0636 -0.0063 -0.8432
11240TIP3    H155211   0.331   2.884  15.821  0.1607 -1.0745 -0.9777
11240TIP3    H255212   0.353   2.909  15.968  0.8977 -0.8681 -1.1197
11241TIP3   OH255213   6.711   5.253  17.102 -0.0940  0.2465  1.2646
11241TIP3    H155214   6.755   5.242  17.018 -0.5005  1.0187  0.9467
11241TIP3    H255215   6.728   5.171  17.148  1.4108  0.4011  1.0372
11242TIP3   OH255216   3.411   6.540   3.001 -0.2292 -0.5039  0.2565
11242TIP3    H155217   3.409   6.474   2.932  0.1805 -0.0784 -0.1810
11242TIP3    H255218   3.446   6.618   2.957 -1.2205  0.1614  0.6276
11243TIP3   OH255219   6.479   6.267  12.144 -0.4555 -0.5397  0.4214
11243TIP3    H155220   6.467   6.289  12.236  1.8692 -2.0220  1.1470
11243TIP3    H255221   6.537   6.336  12.110  0.2682 -1.0492  0.5994
11244TIP3   OH255222   1.573   3.010  10.501 -1.0199 -0.1528 -0.5050
11244TIP3    H155223   1.655   2.974  10.468 -0.2758 -0.4781  1.5468
11244TIP3    H255224   1.597   3.057  10.581 -2.7364  0.3379 -0.2248
11245TIP3   OH255225   3.764   5.671   4.221  0.1946 -0.1968 -0.1365
11245TIP3    H155226   3.810   5.718   4.152  1.1111 -0.0417  0.5602
11245TIP3    H255227   3.748   5.584   4.184  1.9011 -0.5774 -0.0796
11246TIP3   OH255228   2.312   5.925   2.251 -0.2177 -0.4282 -0.0332
11246TIP3    H155229   2.395   5.909   2.295 -1.0891  0.3606  2.0297
11246TIP3    H255230   2.246   5.883   2.307 -1.7135  3.2878  1.3226
11247TIP3   OH255231   2.201   5.911   0.552 -0.1054 -0.3481  0.2173
11247TIP3    H155232   2.181   5.999   0.522  1.0144  0.6985  2.3187
11247TIP3    H255233   2.291   5.895   0.522 -0.3745 -0.8814 -0.3334
11248TIP3   OH255234   3.941   6.528  15.642  0.3686  0.0255 -0.5048
11248TIP3    H155235   3.953   6.466  15.570  0.6140  1.4593 -1.7474
11248TIP3    H255236   3.846   6.533  15.654  0.3693 -1.1626  0.1591
11249TIP3   OH255237   1.763   0.350  14.230  0.0247 -0.1513 -0.5418
11249TIP3    H155238   1.737   0.326  14.319 -0.2099  1.5109 -0.1243
11249TIP3    H255239   1.846   0.396  14.240  0.0636 -0.0651 -1.1967
11250TIP3   OH255240   5.306   5.084   2.131  0.6687  0.0071  0.0073
11250TIP3    H155241   5.397   5.110   2.142  0.6268 -0.0963  0.6037
11250TIP3    H255242   5.305   4.990   2.151  0.1772  0.2986  1.4428
11251TIP3   OH255243   1.754   2.574   3.280  0.5983 -0.4026 -0.0889
11251TIP3    H155244   1.771   2.536   3.366  1.8278  0.3161  0.0058
11251TIP3    H255245   1.828   2.632   3.263 -0.6153  1.0523 -0.7429
11252TIP3   OH255246   2.480   5.011  14.146 -0.2401 -0.1706 -0.4095
11252TIP3    H155247   2.515   4.970  14.225 -2.4972 -0.6693  0.4031
11252TIP3    H255248   2.478   5.104  14.166  0.2634 -0.1656 -0.3513
11253TIP3   OH255249   5.009   3.314   4.202 -0.4456 -0.2825  0.0223
11253TIP3    H155250   4.958   3.313   4.283  0.0595 -1.0208  0.3397
11253TIP3    H255251   5.079   3.250   4.216 -0.4405 -0.5433 -1.0595
11254TIP3   OH255252   2.170   2.442  11.742 -0.6630 -0.3757 -0.3153
11254TIP3    H155253   2.115   2.364  11.750 -1.0708 -0.0138  0.6032
11254TIP3    H255254   2.169   2.481  11.830  0.6344 -0.0716 -0.4104
11255TIP3   OH255255   2.946   4.383   3.308  0.0291  0.9869 -0.1893
11255TIP3    H155256   3.022   4.441   3.312  0.3694  0.7282 -2.0715
11255TIP3    H255257   2.883   4.430   3.252  0.3629 -0.4670 -1.8485
11256TIP3   OH255258   4.561   6.445   5.560 -0.1507  0.0250 -0.6569
11256TIP3    H155259   4.648   6.467   5.594 -0.8047 -0.4060  1.4099
11256TIP3    H255260   4.519   6.530   5.546  0.2773  0.2168 -0.8258
11257TIP3   OH255261   1.865   5.153  10.951  0.5965 -0.1554 -0.0394
11257TIP3    H155262   1.871   5.247  10.931  0.0131  0.1622  1.2046
11257TIP3    H255263   1.847   5.113  10.866  1.7842  0.7494 -0.7502
11258TIP3   OH255264   1.113   4.847  13.131 -0.1852  0.6605 -0.6225
11258TIP3    H155265   1.096   4.755  13.110 -0.3910  0.2684  1.1193
11258TIP3    H255266   1.174   4.844  13.204 -0.1408  1.9195 -0.5937
11259TIP3   OH255267   4.332   1.620  13.557  0.2077  0.0510  0.3050
11259TIP3    H155268   4.353   1.587  13.470  0.2403 -0.0030  0.3342
11259TIP3    H255269   4.238   1.601  13.568  0.4916 -1.1422  0.8167
11260TIP3   OH255270   3.899   1.394   2.695  0.3071  0.7431 -0.7266
11260TIP3    H155271   3.896   1.450   2.773 -0.6657  0.0446 -0.2443
11260TIP3    H255272   3.825   1.335   2.706  0.9432 -0.2189 -1.5452
11261TIP3   OH255273   5.347   1.211   5.443 -0.5281 -0.1963 -0.3966
11261TIP3    H155274   5.409   1.151   5.402  1.9267  0.2310  2.3335
11261TIP3    H255275   5.333   1.175   5.531 -0.5950  2.0616  0.6044
11262TIP3   OH255276   2.854   3.823   2.832  0.5653  0.1579 -0.0128
11262TIP3    H155277   2.849   3.774   2.913 -1.0499  0.8393  0.3275
11262TIP3    H255278   2.764   3.844   2.809  0.7747 -1.5283 -2.9533
11263TIP3   OH255279   5.712   4.082  13.682  0.0806 -0.1648 -0.7949
11263TIP3    H155280   5.714   3.999  13.634  0.6135 -0.2960 -0.5461
11263TIP3    H255281   5.710   4.057  13.774 -2.2050  0.0563 -0.7230
11264TIP3   OH255282   4.455   3.391   2.878 -0.2003  0.5227  0.0322
11264TIP3    H155283   4.535   3.437   2.852  0.7196 -1.2929 -0.5201
11264TIP3    H255284   4.387   3.459   2.877  1.8546  3.0638  4.0229
11265TIP3   OH255285   0.888   4.369  16.092 -0.3176  0.2843  0.4570
11265TIP3    H155286   0.972   4.366  16.138 -0.3024  0.4641  0.4451
11265TIP3    H255287   0.841   4.291  16.121 -1.4076  1.7037  2.8924
11266TIP3   OH255288   3.140   2.201   3.350 -0.1724  0.1651 -0.3592
11266TIP3    H155289   3.153   2.285   3.393 -0.6491 -0.3989  0.9491
11266TIP3    H255290   3.069   2.160   3.400 -3.2489  0.8547 -3.7055
11267TIP3   OH255291   5.870   4.410  15.050 -0.4022  0.2369  0.3361
11267TIP3    H155292   5.869   4.470  15.125 -1.4547 -0.1613  0.6466
11267TIP3    H255293   5.930   4.341  15.076  0.4562  0.8919  0.1652
11268TIP3   OH255294   3.207   4.459   5.750 -0.3630  0.1206  0.3307
11268TIP3    H155295   3.296   4.474   5.783 -0.5465 -0.7222  1.2712
11268TIP3    H255296   3.152   4.462   5.829 -0.7837 -2.2475  0.1842
11269TIP3   OH255297   5.134   4.269  13.655  0.4246  0.4298 -0.4893
11269TIP3    H155298   5.103   4.180  13.643  0.9693 -0.0361  1.2695
11269TIP3    H255299   5.229   4.263  13.647  0.4973  0.7584  0.0482
11270TIP3   OH255300   4.050   4.655   2.547  0.9405  0.1566  0.2516
11270TIP3    H155301   4.044   4.567   2.510 -1.2802 -0.0054  0.8946
11270TIP3    H255302   4.104   4.644   2.625 -0.5630 -0.9810  1.1863
11271TIP3   OH255303   6.393   5.260  13.539 -0.6585 -0.0836 -0.0353
11271TIP3    H155304   6.487   5.254  13.522 -0.2357 -0.1446  2.0325
11271TIP3    H255305   6.380   5.349  13.572 -1.0634 -0.4763  0.9238
11272TIP3   OH255306   1.189   6.558  12.326  0.1094 -0.2803  0.4163
11272TIP3    H155307   1.270   6.586  12.369  0.3855 -0.2205 -0.1353
11272TIP3    H255308   1.166   6.630  12.268  1.4925 -1.6022 -1.9472
11273TIP3   OH255309   4.650   4.097  15.345 -0.0244  0.3182 -1.0626
11273TIP3    H155310   4.689   4.049  15.272  0.0599  0.6632 -1.2445
11273TIP3    H255311   4.589   4.034  15.384 -0.4736  0.3048 -1.7620
11274TIP3   OH255312   3.056   1.978   5.647 -0.1463  0.4526  0.3869
11274TIP3    H155313   3.122   1.914   5.672  0.5295 -0.3419 -2.9817
11274TIP3    H255314   3.047   1.969   5.552 -3.0547  2.5217  0.3079
11275TIP3   OH255315   3.064   2.435  12.882 -0.4225 -0.3195  0.4483
11275TIP3    H155316   3.111   2.353  12.896 -0.2962 -0.0106  2.0210
11275TIP3    H255317   2.990   2.432  12.943 -0.0756  0.9788  0.9782
11276TIP3   OH255318   1.494   2.084   4.676  0.5909 -0.5277  0.3020
11276TIP3    H155319   1.467   2.084   4.585  1.3145 -1.6912  0.0661
11276TIP3    H255320   1.525   1.995   4.692  2.2031  0.1484  1.1542
11277TIP3   OH255321   6.478   0.542   0.103 -0.6002 -0.0514  0.1289
11277TIP3    H155322   6.560   0.577   0.066 -0.3728  0.4376  1.0736
11277TIP3    H255323   6.465   0.591   0.183 -1.4029 -0.6971  0.4062
11278TIP3   OH255324   1.259   5.526  12.677  0.1785  0.3833  0.6923
11278TIP3    H155325   1.262   5.494  12.587  0.2899  0.9582  0.4880
11278TIP3    H255326   1.349   5.518  12.708  0.2772  0.8269  0.5237
11279TIP3   OH255327   1.864   3.301   4.005  0.2678  0.1519  0.6998
11279TIP3    H155328   1.780   3.290   3.961 -0.1654  1.9906  0.9652
11279TIP3    H255329   1.852   3.262   4.092  0.4868 -1.7058 -0.0688
11280TIP3   OH255330   3.150   6.204   5.971  0.1256  0.4545  0.1851
11280TIP3    H155331   3.160   6.155   6.052  0.5971 -1.6235 -1.0398
11280TIP3    H255332   3.237   6.205   5.932 -0.5147 -0.7066 -1.3881
11281TIP3   OH255333   0.959   2.430   4.984  0.1264 -0.3607  0.4716
11281TIP3    H155334   0.976   2.510   4.934  0.4927  0.6210  2.0692
11281TIP3    H255335   0.927   2.367   4.920 -2.6121  1.8163 -0.4934
11282TIP3   OH255336   4.986   6.321   0.515 -0.1166  0.0746 -0.2102
11282TIP3    H155337   4.990   6.381   0.589  0.8156  2.2301 -1.9133
11282TIP3    H255338   5.060   6.261   0.528 -0.0119  0.3801  0.6247
11283TIP3   OH255339   5.421   1.242  12.272 -0.5565  0.3710 -0.7867
11283TIP3    H155340   5.475   1.289  12.336  0.0151  0.5643 -1.3971
11283TIP3    H255341   5.460   1.264  12.188  0.2295 -1.8115 -1.0527
11284TIP3   OH255342   0.528   0.723   0.885  0.5929  0.0980 -0.2185
11284TIP3    H155343   0.564   0.811   0.891 -0.6023  0.5693  0.3055
11284TIP3    H255344   0.435   0.736   0.867  0.5540 -1.0749 -0.9539
11285TIP3   OH255345   0.216   0.992  11.775 -0.7395  0.7555  0.3949
11285TIP3    H155346   0.146   0.949  11.725 -0.3957 -0.1168  0.6314
11285TIP3    H255347   0.170   1.037  11.846 -1.2257  1.9378 -0.6360
11286TIP3   OH255348   2.180   0.789   0.130 -0.5588  0.5340 -0.0013
11286TIP3    H155349   2.146   0.878   0.129 -2.5327 -0.1676  0.1189
11286TIP3    H255350   2.105   0.734   0.106  0.0157 -1.2756  2.0615
11287TIP3   OH255351   4.466   0.167  16.700 -0.7417 -0.4682 -0.0011
11287TIP3    H155352   4.518   0.091  16.672 -1.2364 -0.6296 -0.4861
11287TIP3    H255353   4.514   0.242  16.665  0.0442 -0.5040  0.9377
11288TIP3   OH255354   5.083   6.678   4.716 -0.3199  0.9378 -0.3682
11288TIP3    H155355   5.008   6.637   4.673 -0.7219 -0.5074  1.5953
11288TIP3    H255356   5.145   6.606   4.730  1.4905  2.0860 -1.8958
11289TIP3   OH255357   3.761   5.210  14.489 -0.0878 -0.4998 -0.3103
11289TIP3    H155358   3.672   5.197  14.456 -0.9603  2.0689  0.7667
11289TIP3    H255359   3.787   5.125  14.523 -2.5971 -1.0706  0.3813
11290TIP3   OH255360   4.836   0.682  15.971 -0.4123  0.0126 -0.3290
11290TIP3    H155361   4.826   0.592  15.941  1.6138 -0.0374 -0.9804
11290TIP3    H255362   4.914   0.714  15.925  0.1935  1.3743  1.5309
11291TIP3   OH255363   2.156   6.543  11.621  0.0342  0.5140  0.5840
11291TIP3    H155364   2.210   6.586  11.555 -1.5349  0.6570 -0.6625
11291TIP3    H255365   2.183   6.584  11.704  2.0584  0.3028  0.0831
11292TIP3   OH255366   5.583   2.682  14.780 -0.5193 -0.1531  0.4237
11292TIP3    H155367   5.657   2.683  14.840 -0.7197  1.6233  0.6803
11292TIP3    H255368   5.506   2.677  14.836 -0.6707  0.4440  0.2736
11293TIP3   OH255369   3.975   2.328  14.737 -0.3748 -0.0273  0.2742
11293TIP3    H155370   3.940   2.365  14.818 -0.4816  1.9326 -0.6085
11293TIP3    H255371   3.924   2.248  14.723 -0.3253 -0.4228  2.1386
11294TIP3   OH255372   1.162   5.554  12.372  0.2830 -0.3073  0.4813
11294TIP3    H155373   1.149   5.573  12.280  1.1673 -0.6757  0.2698
11294TIP3    H255374   1.133   5.463  12.382  0.3100 -0.3090  0.5441
11295TIP3   OH255375   2.600   1.991  13.511  0.9528 -0.0538 -0.4378
11295TIP3    H155376   2.552   1.909  13.501  0.0821 -0.0016  2.4664
11295TIP3    H255377   2.685   1.974  13.468  0.1979 -1.8548 -1.3506
11296TIP3   OH255378   5.196   5.595   1.730  0.0416 -0.2802  0.1155
11296TIP3    H155379   5.179   5.501   1.737 -1.4274 -0.1411 -0.9234
11296TIP3    H255380   5.223   5.607   1.639 -0.7299  0.4089 -0.0348
11297TIP3   OH255381   5.006   3.936   0.484 -0.0220  0.4528 -0.0661
11297TIP3    H155382   4.978   4.016   0.440  0.0335  1.0156  0.9065
11297TIP3    H255383   5.078   3.903   0.429  1.8457  2.5607  0.9310
11298TIP3   OH255384   1.594   5.556   1.115 -0.1204  0.5682 -0.6058
11298TIP3    H155385   1.538   5.622   1.156  0.7489  1.2322 -0.4658
11298TIP3    H255386   1.662   5.539   1.180  0.5869  0.7395 -1.2866
11299TIP3   OH255387   3.278   6.571   5.805  0.0220  0.0691 -0.4907
11299TIP3    H155388   3.338   6.639   5.774  1.9928  1.2005  4.8205
11299TIP3    H255389   3.212   6.618   5.855 -0.6688 -1.7223  0.3574
11300TIP3   OH255390   3.897   3.445  17.203 -0.0921  0.2102  0.4443
11300TIP3    H155391   3.924   3.529  17.164 -2.9094  0.5947 -0.9407
11300TIP3    H255392   3.885   3.465  17.296 -2.6194  2.0044 -0.1567
11301TIP3   OH255393   3.236   6.403   1.161 -0.1005  0.5057 -0.1661
11301TIP3    H155394   3.271   6.375   1.245 -0.1202 -0.1665 -0.3826
11301TIP3    H255395   3.310   6.397   1.101  0.3302  2.4140  0.0876
11302TIP3   OH255396   3.144   5.070  14.370 -0.5646 -0.4616  0.0808
11302TIP3    H155397   3.201   5.073  14.447 -1.2245 -1.7307  0.6601
11302TIP3    H255398   3.178   4.997  14.318  0.9773  1.4823 -1.7809
11303TIP3   OH255399   4.476   1.410   1.226 -0.2312  1.2757 -0.3158
11303TIP3    H155400   4.528   1.415   1.146 -0.1037  0.8866 -0.2620
11303TIP3    H255401   4.387   1.389   1.196  0.3548 -1.8670 -0.2465
11304TIP3   OH255402   3.947   6.331   6.206 -0.1113  0.0613  0.1164
11304TIP3    H155403   4.032   6.294   6.184 -0.5277 -0.9145  0.1243
11304TIP3    H255404   3.967   6.418   6.241  0.7408  0.5649 -1.5578
11305TIP3   OH255405   5.805   3.566   5.547  0.3870  0.1093  0.0073
11305TIP3    H155406   5.773   3.588   5.459  1.5276  0.7428 -0.2671
11305TIP3    H255407   5.831   3.650   5.584  2.6245 -0.4355 -0.1566
11306TIP3   OH255408   2.040   6.356   0.148  0.5075  0.4616 -0.2242
11306TIP3    H155409   1.966   6.356   0.210 -0.6273 -0.6756 -1.5123
11306TIP3    H255410   2.001   6.380   0.064  1.4546 -0.9357 -1.0988
11307TIP3   OH255411   3.996   2.659  13.798 -0.6247 -0.5775 -0.1560
11307TIP3    H155412   3.982   2.739  13.848 -0.5140 -1.4757  1.3922
11307TIP3    H255413   4.075   2.620  13.836 -1.3410 -2.0050 -0.0474
11308TIP3   OH255414   1.094   4.841   2.188  0.2059 -0.9431 -0.5786
11308TIP3    H155415   1.057   4.810   2.270  3.5042 -0.8032  1.0957
11308TIP3    H255416   1.146   4.768   2.156  2.8808  0.5509  0.0793
11309TIP3   OH255417   6.708   2.374  12.181  0.6757 -0.0235 -0.1812
11309TIP3    H155418   6.637   2.435  12.203  0.2858 -0.1888 -0.9672
11309TIP3    H255419   6.773   2.389  12.250  1.2468  2.3321 -1.1356
11310TIP3   OH255420   4.202   3.706  15.382 -0.7454  0.5336  0.0983
11310TIP3    H155421   4.217   3.712  15.477  0.6944  1.1902 -0.1519
11310TIP3    H255422   4.151   3.625  15.372  0.7921 -0.6439  1.2532
11311TIP3   OH255423   1.413   2.527   3.696 -0.3079 -0.1277 -0.0400
11311TIP3    H155424   1.505   2.522   3.671 -0.4723 -0.5588 -0.5800
11311TIP3    H255425   1.414   2.528   3.792  0.1605 -2.4528  0.0316
11312TIP3   OH255426   5.404   3.173   5.628  0.1788  0.3160  0.4570
11312TIP3    H155427   5.325   3.228   5.628  0.6357  0.9957  1.6602
11312TIP3    H255428   5.472   3.230   5.592  0.0277 -0.4797 -1.2221
11313TIP3   OH255429   3.486   4.198  12.350 -0.1366  0.5070  0.0398
11313TIP3    H155430   3.506   4.199  12.256  0.8715 -1.7179  0.1617
11313TIP3    H255431   3.391   4.202  12.354 -0.1627  1.9258 -0.9951
11314TIP3   OH255432   5.015   3.571  15.183  0.0852  0.2110  0.1985
11314TIP3    H155433   5.032   3.481  15.209  1.4404  0.3348 -0.1332
11314TIP3    H255434   4.945   3.565  15.118 -0.1906 -0.5431  0.5615
11315TIP3   OH255435   1.895   0.082   2.324 -1.1906  0.5974 -0.1135
11315TIP3    H155436   1.807   0.045   2.324 -1.6196  1.5324 -1.5237
11315TIP3    H255437   1.891   0.153   2.388 -0.8821 -0.5609  1.2430
11316TIP3   OH255438   1.949   4.359   3.720  0.5881  0.2972 -0.5738
11316TIP3    H155439   1.864   4.323   3.747  1.8102 -1.9468  0.5996
11316TIP3    H255440   1.976   4.415   3.792  0.7830 -0.2529 -0.2090
11317TIP3   OH255441   1.048   6.451   6.123 -0.3258  0.0335 -0.1594
11317TIP3    H155442   1.058   6.357   6.136 -1.8728 -0.1847 -0.4315
11317TIP3    H255443   1.036   6.486   6.211  2.4409  0.3229  0.2055
11318TIP3   OH255444   4.830   5.936   1.301  0.2064  0.4264  0.1143
11318TIP3    H155445   4.884   6.000   1.255 -0.8324  0.4605 -1.1353
11318TIP3    H255446   4.875   5.852   1.286 -1.4394 -0.0208 -3.4554
11319TIP3   OH255447   0.604   3.434  11.528  0.3668  0.1750  0.2057
11319TIP3    H155448   0.541   3.362  11.538 -0.5009  0.6153 -1.6903
11319TIP3    H255449   0.553   3.513  11.543  0.4761  0.5275 -1.1527
11320TIP3   OH255450   4.313   4.765   2.091  0.2613 -0.2952 -0.3592
11320TIP3    H155451   4.340   4.711   2.166 -1.4292 -0.0292  0.4879
11320TIP3    H255452   4.389   4.821   2.073  0.3523  0.3952  1.8664
11321TIP3   OH255453   6.082   1.026  17.149  1.1124  0.0743 -0.2981
11321TIP3    H155454   6.018   1.023  17.078  0.9284 -2.8891 -0.1300
11321TIP3    H255455   6.046   0.968  17.216  2.9074  0.0917  0.7451
11322TIP3   OH255456   1.556   0.865  15.095 -0.2724 -0.5640 -0.2915
11322TIP3    H155457   1.556   0.769  15.091  0.5756 -0.8061  2.9373
11322TIP3    H255458   1.566   0.885  15.188  0.6150  2.6780 -0.9713
11323TIP3   OH255459   5.727   4.977  13.885  0.7536  0.1212  0.1078
11323TIP3    H155460   5.753   4.894  13.927  1.4735  0.3216  0.0740
11323TIP3    H255461   5.759   5.044  13.946 -0.1936  0.3670  0.3386
11324TIP3   OH255462   4.642   5.240   5.040 -0.8598 -0.3459  0.1394
11324TIP3    H155463   4.647   5.335   5.033 -0.8077 -0.3536  0.0700
11324TIP3    H255464   4.731   5.210   5.022 -0.8065 -0.3899  0.4583
11325TIP3   OH255465   0.542   6.151   4.757 -0.2068  0.5397 -0.7731
11325TIP3    H155466   0.551   6.076   4.816 -0.1261  1.1202 -0.0217
11325TIP3    H255467   0.595   6.128   4.681 -0.7769 -0.4746 -0.8789
11326TIP3   OH255468   5.218   0.204   4.765 -0.1964  0.5176 -0.0495
11326TIP3    H155469   5.289   0.260   4.733  1.5337 -2.1238 -1.2201
11326TIP3    H255470   5.210   0.136   4.698 -0.2280 -2.1859  2.5087
11327TIP3   OH255471   3.839   1.097   2.082  0.2418  0.7665  0.7750
11327TIP3    H155472   3.776   1.093   2.154 -0.6652 -0.8695 -0.0699
11327TIP3    H255473   3.920   1.128   2.124 -1.0337  2.8394  1.9029
11328TIP3   OH255474   2.297   5.359  15.301  0.2276 -0.5327 -0.3920
11328TIP3    H155475   2.255   5.402  15.374  0.7907  0.4774 -0.6358
11328TIP3    H255476   2.368   5.308  15.340 -0.8922 -1.8898 -0.0281
11329TIP3   OH255477   1.059   0.564   3.974 -0.4377 -0.2249 -0.3988
11329TIP3    H155478   1.055   0.588   3.882 -0.8887  1.5912  0.0565
11329TIP3    H255479   1.133   0.504   3.980 -1.1080 -1.3041 -2.1107
11330TIP3   OH255480   2.994   4.673  11.130  0.1223  0.1050 -0.5592
11330TIP3    H155481   2.899   4.679  11.139  0.1238  1.8104 -1.3053
11330TIP3    H255482   3.026   4.661  11.219 -0.7281  0.6826 -0.1667
11331TIP3   OH255483   0.839   5.462   0.823  0.0865  0.2359 -0.1438
11331TIP3    H155484   0.743   5.466   0.818  0.0000 -1.0755  0.1491
11331TIP3    H255485   0.858   5.465   0.917  0.2357 -0.9930 -0.1241
11332TIP3   OH255486   4.641   6.786  16.605 -0.6060 -0.1803 -0.3776
11332TIP3    H155487   4.587   6.716  16.641  0.4668 -0.5182  0.5916
11332TIP3    H255488   4.622   6.785  16.511  1.2127 -3.4276 -0.8369
11333TIP3   OH255489   2.320   6.350   3.496  0.0175 -0.5413  0.3750
11333TIP3    H155490   2.306   6.305   3.413  1.7235 -0.6235  0.0769
11333TIP3    H255491   2.371   6.289   3.549  0.6942  0.2738  0.7001
11334TIP3   OH255492   5.518   1.755  14.180  0.0791 -0.1089 -0.6875
11334TIP3    H155493   5.572   1.821  14.223 -0.5029 -1.0466  1.6421
11334TIP3    H255494   5.446   1.804  14.141  0.0018  0.7250  0.4517
11335TIP3   OH255495   1.612   3.449   4.679  0.0369 -0.2544 -0.1787
11335TIP3    H155496   1.580   3.456   4.589 -0.5029 -0.8046 -0.0364
11335TIP3    H255497   1.595   3.535   4.717  0.8080  0.1674 -0.7708
11336TIP3   OH255498   5.613   4.785  11.845 -0.6296 -0.5221 -0.2971
11336TIP3    H155499   5.587   4.750  11.930  1.2710  0.3541  0.6747
11336TIP3    H255500   5.635   4.876  11.861 -2.2582  0.2963 -2.1713
11337TIP3   OH255501   2.258   4.150  16.742  0.5493  0.1586  0.1775
11337TIP3    H155502   2.327   4.205  16.703 -0.3249  1.0087 -0.2277
11337TIP3    H255503   2.255   4.073  16.686 -0.9373  1.5262 -1.7877
11338TIP3   OH255504   1.086   3.225  12.385  0.2539  0.7303  0.3171
11338TIP3    H155505   1.111   3.296  12.326 -1.1475  1.5382  0.6417
11338TIP3    H255506   1.026   3.266  12.447 -2.5966 -1.1777 -0.9343
11339TIP3   OH255507   4.825   0.085   3.077  0.3392 -0.2554 -0.1296
11339TIP3    H155508   4.759   0.080   3.008  1.3087 -1.5570 -0.9977
11339TIP3    H255509   4.782   0.136   3.147 -1.3766 -0.5967 -0.8750
11340TIP3   OH255510   2.650   1.881   0.483 -0.3966  0.3676  0.0759
11340TIP3    H155511   2.643   1.793   0.447 -1.3006 -0.7726  2.7860
11340TIP3    H255512   2.742   1.905   0.468 -0.3777 -0.5950 -1.5801
11341TIP3   OH255513   6.687   4.757   2.605  0.5199 -0.9708  0.0822
11341TIP3    H155514   6.719   4.667   2.599 -0.6102 -1.3676 -0.3868
11341TIP3    H255515   6.639   4.759   2.688 -1.9197 -1.6889 -1.2103
11342TIP3   OH255516   4.010   6.050  16.821 -0.4553  0.3076  0.0108
11342TIP3    H155517   3.948   6.086  16.884  1.8491  1.8658  1.5176
11342TIP3    H255518   4.071   6.122  16.804  3.4992 -2.2710  1.9637
11343TIP3   OH255519   4.175   3.870   1.755 -0.0076 -0.0448 -0.8127
11343TIP3    H155520   4.174   3.938   1.687 -1.0053 -0.5000 -1.2688
11343TIP3    H255521   4.166   3.788   1.707 -0.0267 -0.4227 -0.1734
11344TIP3   OH255522   6.204   0.745   2.023 -0.1861 -0.2234  0.2024
11344TIP3    H155523   6.248   0.663   2.045 -0.2617 -0.7645 -1.5374
11344TIP3    H255524   6.174   0.779   2.107 -0.2783 -2.0335  0.9476
11345TIP3   OH255525   3.087   3.004  13.078 -0.1209 -0.2796  0.5157
11345TIP3    H155526   3.013   2.957  13.039 -0.3562  0.0415  0.5729
11345TIP3    H255527   3.053   3.041  13.159 -0.4180  1.3669 -0.3159
11346TIP3   OH255528   0.402   5.912   0.436  0.4635 -0.5194  0.7961
11346TIP3    H155529   0.312   5.925   0.466  0.8521  2.1137  1.1018
11346TIP3    H255530   0.439   5.847   0.496 -0.9366 -0.8841  1.2917
11347TIP3   OH255531   0.880   4.804   5.849 -0.0718  0.5177 -0.0263
11347TIP3    H155532   0.804   4.768   5.803 -0.6788  1.0752  0.5232
11347TIP3    H255533   0.850   4.819   5.938  0.6432  0.8834  0.1644
11348TIP3   OH255534   5.923   0.929   3.239  0.1626  0.3337 -0.2064
11348TIP3    H155535   5.955   0.954   3.152 -0.0646 -1.6864 -0.9215
11348TIP3    H255536   5.837   0.891   3.223  0.6080 -1.1556  0.7143
11349TIP3   OH255537   0.580   4.864  15.780 -0.0455 -0.3331  0.1517
11349TIP3    H155538   0.509   4.886  15.840  0.2325  1.9674 -0.2482
11349TIP3    H255539   0.575   4.932  15.712  0.5452 -2.0089 -1.6539
11350TIP3   OH255540   3.588   5.520  13.047  0.1056  0.1463 -0.1671
11350TIP3    H155541   3.638   5.441  13.027 -0.4703 -0.4180  0.5462
11350TIP3    H255542   3.498   5.500  13.022 -0.4268 -0.1827  1.8123
11351TIP3   OH255543   6.275   1.662  11.166  0.4829 -0.2412 -0.0314
11351TIP3    H155544   6.366   1.692  11.159  0.2457  1.1274  1.9170
11351TIP3    H255545   6.276   1.600  11.239 -0.1115 -0.3254 -0.0960
11352TIP3   OH255546   0.827   0.379  16.135  0.5844  0.2945 -0.1722
11352TIP3    H155547   0.851   0.366  16.044 -0.3224  2.2930 -0.7480
11352TIP3    H255548   0.827   0.474  16.147  2.4374  0.0888  2.4157
11353TIP3   OH255549   4.201   4.921   2.418 -0.4788  0.1740 -0.5030
11353TIP3    H155550   4.196   4.903   2.511 -0.5237 -2.2193 -0.8975
11353TIP3    H255551   4.122   4.883   2.381 -0.7373  1.5740 -1.4763
11354TIP3   OH255552   2.962   4.859   3.868  0.2036 -0.1636 -0.1133
11354TIP3    H155553   2.911   4.931   3.830 -0.1161  0.3228  1.1675
11354TIP3    H255554   2.905   4.822   3.936 -0.5606 -3.1663 -2.2186
11355TIP3   OH255555   1.123   2.285   0.579  0.6137  0.0028 -0.0837
11355TIP3    H155556   1.160   2.289   0.491 -0.6745  2.5923 -0.6039
11355TIP3    H255557   1.199   2.291   0.638  1.3940 -0.5885 -1.0085
11356TIP3   OH255558   3.111   1.734   0.150 -0.3248 -0.6039  0.3113
11356TIP3    H155559   3.051   1.779   0.091  0.6299 -1.1816 -1.1715
11356TIP3    H255560   3.056   1.672   0.198 -1.3880  1.0151  1.2535
11357TIP3   OH255561   6.639   1.861  12.954  0.1396 -0.2756  0.0312
11357TIP3    H155562   6.571   1.865  13.021  0.8238  2.5926  0.6782
11357TIP3    H255563   6.591   1.847  12.872 -0.9870 -0.7051  0.7357
11358TIP3   OH255564   3.449   2.191   1.461  0.4521  0.2516  0.6333
11358TIP3    H155565   3.502   2.206   1.382  2.3882  0.8327  1.9449
11358TIP3    H255566   3.436   2.279   1.497  0.3576 -0.0702  1.3985
11359TIP3   OH255567   1.653   1.888   4.372 -0.4384  0.0881 -0.3146
11359TIP3    H155568   1.557   1.880   4.374 -0.4374 -0.2161 -1.0345
11359TIP3    H255569   1.672   1.922   4.284 -0.0438  2.7766  0.7201
11360TIP3   OH255570   4.675   4.402   4.303  0.0620  0.3725 -0.8557
11360TIP3    H155571   4.634   4.448   4.377  0.5136  0.2207 -0.5098
11360TIP3    H255572   4.680   4.468   4.234 -1.5718  0.1707 -1.2166
11361TIP3   OH255573   1.133   5.010  11.582  0.0416 -0.2406  0.5743
11361TIP3    H155574   1.227   5.012  11.562 -0.3038 -0.1300 -1.1849
11361TIP3    H255575   1.110   4.917  11.573 -0.3925  0.0009 -0.9902
11362TIP3   OH255576   3.511   0.299  16.255  0.1703 -0.1109 -0.0295
11362TIP3    H155577   3.418   0.293  16.233  0.2177 -0.8291 -0.0814
11362TIP3    H255578   3.555   0.319  16.172 -0.0318  1.3555  0.1968
11363TIP3   OH255579   5.235   5.347   4.328 -0.1783  0.0355 -0.3137
11363TIP3    H155580   5.151   5.337   4.282  0.2407  0.2401 -1.1374
11363TIP3    H255581   5.211   5.387   4.412 -1.0310 -0.9782 -0.0555
11364TIP3   OH255582   1.446   6.003   1.949 -0.5039 -0.4309  0.1110
11364TIP3    H155583   1.356   6.032   1.937 -0.4855  0.0619  1.0906
11364TIP3    H255584   1.441   5.907   1.950 -0.9418 -0.4153 -0.3298
11365TIP3   OH255585   3.742   5.880  16.847  0.1513  0.9096  0.1934
11365TIP3    H155586   3.825   5.926  16.837 -0.5641  2.1002 -0.5678
11365TIP3    H255587   3.684   5.921  16.782 -1.8609  2.0607  2.5494
11366TIP3   OH255588   0.973   1.718  16.939 -0.6028 -0.4190 -0.3685
11366TIP3    H155589   0.909   1.738  16.871 -2.6080 -1.1814  1.2084
11366TIP3    H255590   0.991   1.624  16.929 -2.2165 -0.9479  1.1114
11367TIP3   OH255591   6.117   3.626   2.635  0.0507 -0.0862 -0.0391
11367TIP3    H155592   6.152   3.542   2.604  0.3974  0.9791 -2.8265
11367TIP3    H255593   6.195   3.682   2.645 -0.3814  0.8037 -1.3641
11368TIP3   OH255594   5.203   0.937   1.038 -0.9215  0.1436  0.8538
11368TIP3    H155595   5.255   0.866   1.076 -0.8110 -0.7970 -0.9452
11368TIP3    H255596   5.258   1.015   1.046 -0.9587  0.0086  2.6802
11369TIP3   OH255597   4.573   2.041   2.535 -0.1880  0.2004 -0.3511
11369TIP3    H155598   4.626   2.119   2.552 -0.4730  0.7983 -2.0972
11369TIP3    H255599   4.483   2.073   2.532 -0.1241  0.3429 -3.6929
11370TIP3   OH255600   2.074   0.624   5.428 -0.3718  0.0777 -0.5090
11370TIP3    H155601   2.007   0.571   5.472  0.3602 -0.1550  0.3816
11370TIP3    H255602   2.128   0.560   5.381 -1.6387  0.3994 -2.4960
11371TIP3   OH255603   4.628   2.677   3.108  0.1765  0.0118  0.1158
11371TIP3    H155604   4.714   2.700   3.143 -0.3451 -0.5919  1.9070
11371TIP3    H255605   4.618   2.733   3.031  2.6478 -0.7642 -0.8697
11372TIP3   OH255606   3.968   1.305   5.619  0.0270  0.3783 -0.1043
11372TIP3    H155607   4.034   1.241   5.642  0.3339  0.3948 -0.9007
11372TIP3    H255608   3.887   1.255   5.613  0.4938 -0.2197 -2.0586
11373TIP3   OH255609   2.059   4.594   0.302 -0.1141 -0.4651 -0.4966
11373TIP3    H155610   2.007   4.522   0.337 -2.0681  0.4290 -1.4029
11373TIP3    H255611   1.995   4.650   0.258  1.5164  1.2044 -0.8381
11374TIP3   OH255612   5.240   2.580  12.733  0.2374 -0.5578  0.6203
11374TIP3    H155613   5.324   2.540  12.710  0.5384  0.2609  0.2732
11374TIP3    H255614   5.229   2.651  12.671  0.1099  0.4298  1.7309
11375TIP3   OH255615   1.919   6.045   2.838  0.1738 -0.0611  0.3821
11375TIP3    H155616   1.968   5.991   2.900 -0.4671  0.9678  1.8369
11375TIP3    H255617   1.881   6.114   2.891 -1.7235 -0.0354 -0.9180
11376TIP3   OH255618   1.463   2.350  12.106 -0.0164  0.1943  0.2424
11376TIP3    H155619   1.534   2.316  12.051 -0.5687 -1.5615  0.5384
11376TIP3    H255620   1.457   2.288  12.178 -1.2381  0.8282  0.7173
11377TIP3   OH255621   2.347   4.594   5.880 -0.3315 -0.6408 -0.4558
11377TIP3    H155622   2.384   4.511   5.911  0.4667 -0.2820 -0.4217
11377TIP3    H255623   2.331   4.645   5.959  1.6609  0.2559 -0.5672
11378TIP3   OH255624   4.116   1.070  14.958 -0.4061  0.1460 -0.5377
11378TIP3    H155625   4.140   0.989  15.002 -0.8079  0.7682  0.9151
11378TIP3    H255626   4.082   1.043  14.873  1.2677 -1.0558 -0.8778
11379TIP3   OH255627   6.528   3.520   4.939 -0.0566  0.5145  0.3572
11379TIP3    H155628   6.561   3.483   5.021  1.3128  0.7451 -0.0727
11379TIP3    H255629   6.491   3.605   4.965 -1.3521 -0.2171  1.0139
11380TIP3   OH255630   4.253   3.485  11.535  0.1710  0.1715 -0.5700
11380TIP3    H155631   4.308   3.413  11.564 -1.1847 -1.1694 -1.1664
11380TIP3    H255632   4.170   3.473  11.582  0.3576  2.1954  0.3913
11381TIP3   OH255633   5.387   4.190  13.572 -0.5327  0.0510  0.3865
11381TIP3    H155634   5.388   4.285  13.564  0.0215  0.1102  1.0255
11381TIP3    H255635   5.443   4.159  13.501  0.5747  0.3052  1.1048
11382TIP3   OH255636   3.894   1.882  15.518 -0.5344  0.4184  0.1462
11382TIP3    H155637   3.924   1.891  15.608 -1.4423 -0.3161  0.5404
11382TIP3    H255638   3.974   1.877  15.466  0.0601  3.3802  0.5938
11383TIP3   OH255639   2.450   6.799  14.493 -0.4253  0.1481 -0.4178
11383TIP3    H155640   2.392   6.822  14.566  0.7488  4.1548 -0.4722
11383TIP3    H255641   2.534   6.778  14.536 -0.7823 -1.6710 -0.5258
11384TIP3   OH255642   6.015   4.318   2.826 -1.0868  0.4597 -0.3589
11384TIP3    H155643   6.056   4.269   2.755 -0.7570 -1.0547  0.8173
11384TIP3    H255644   5.929   4.277   2.837 -1.3039  0.9590 -0.1440
11385TIP3   OH255645   0.386   3.740  17.090  0.0107 -0.0918  0.3736
11385TIP3    H155646   0.471   3.784  17.087 -0.3961  0.6679 -0.3776
11385TIP3    H255647   0.354   3.742  16.999 -0.9192 -0.1550  0.6874
11386TIP3   OH255648   4.644   4.754  13.533  0.3493 -0.0042  0.6165
11386TIP3    H155649   4.739   4.756  13.550  0.3135  0.6602  0.7683
11386TIP3    H255650   4.609   4.696  13.601  0.6918 -0.5772  0.3123
11387TIP3   OH255651   1.338   3.627  16.991  0.0092 -0.4857  0.1733
11387TIP3    H155652   1.357   3.660  17.078 -0.8521 -1.6878  0.8437
11387TIP3    H255653   1.255   3.579  17.001  0.1907 -1.1266 -1.1800
11388TIP3   OH255654   6.134   3.782   3.293  0.1151  0.3505 -0.1937
11388TIP3    H155655   6.085   3.845   3.346 -0.0617 -0.1484  0.2482
11388TIP3    H255656   6.203   3.751   3.352 -0.9315 -1.2559  0.2419
11389TIP3   OH255657   0.750   4.151  13.217  0.3533  0.1443 -0.0969
11389TIP3    H155658   0.705   4.236  13.212 -1.2305 -0.6434  0.1574
11389TIP3    H255659   0.793   4.141  13.132 -0.0372  0.8829 -0.3873
11390TIP3   OH255660   1.391   5.220   3.107  0.4148  0.0498 -0.2189
11390TIP3    H155661   1.339   5.156   3.058 -0.1170  0.7532 -0.5981
11390TIP3    H255662   1.331   5.294   3.122  0.6421 -0.0274  1.2601
11391TIP3   OH255663   0.537   3.089   0.270 -0.2098  0.3060  0.8105
11391TIP3    H155664   0.540   3.006   0.222 -0.7901  1.1432 -0.7258
11391TIP3    H255665   0.622   3.093   0.315 -0.1428 -1.0737  0.8504
11392TIP3   OH255666   1.244   6.586   5.955 -0.3723  0.8662  0.1675
11392TIP3    H155667   1.167   6.548   5.999 -0.7464  0.6362 -0.6693
11392TIP3    H255668   1.311   6.587   6.023 -0.6407 -0.4164  0.4845
11393TIP3   OH255669   4.419   4.204   5.703 -0.3859  0.1434 -0.0974
11393TIP3    H155670   4.436   4.127   5.757  1.2147 -0.1056 -0.9167
11393TIP3    H255671   4.484   4.200   5.634 -2.0253  0.7477 -1.7708
11394TIP3   OH255672   5.869   0.092  14.916  0.4964 -0.6622  0.3618
11394TIP3    H155673   5.923   0.057  14.987  0.7822  1.7085  1.4071
11394TIP3    H255674   5.930   0.105  14.844  0.7250 -0.7458  0.5384
11395TIP3   OH255675   0.118   5.595   1.915  0.3242 -0.0704  0.5573
11395TIP3    H155676   0.079   5.669   1.962 -1.0951  0.1549 -0.9024
11395TIP3    H255677   0.212   5.615   1.913 -0.1250  2.3214 -0.7738
11396TIP3   OH255678   4.956   4.153   5.486  0.1330 -0.0183 -0.0749
11396TIP3    H155679   5.042   4.119   5.461  1.4137  1.0797  2.5574
11396TIP3    H255680   4.895   4.085   5.458  1.9870 -1.5531 -0.6170
11397TIP3   OH255681   1.636   0.718  16.554  0.1299 -0.2102 -0.1542
11397TIP3    H155682   1.708   0.687  16.499  0.4915  0.9416 -0.3413
11397TIP3    H255683   1.659   0.807  16.577 -0.6670 -0.2295  0.7862
11398TIP3   OH255684   1.167   4.108   5.632 -0.1433 -0.4055 -0.1745
11398TIP3    H155685   1.216   4.086   5.711  2.6044  1.2126 -1.3002
11398TIP3    H255686   1.118   4.187   5.655  0.1892 -0.2746  0.0971
11399TIP3   OH255687   2.418   0.382  15.293 -0.5502 -0.1521  0.2416
11399TIP3    H155688   2.425   0.476  15.308  2.4543  0.2499 -2.6104
11399TIP3    H255689   2.495   0.345  15.337 -1.6527 -1.3568  1.2721
11400TIP3   OH255690   2.936   6.621   3.643 -0.0625 -0.4371 -0.3003
11400TIP3    H155691   2.916   6.584   3.557  0.4956  1.7458 -1.4710
11400TIP3    H255692   3.021   6.664   3.631  0.4759 -0.8616  1.6424
11401TIP3   OH255693   2.621   2.240  17.260  0.0806  0.1844 -0.1580
11401TIP3    H155694   2.668   2.181  17.201  1.1290 -0.9585  1.7288
11401TIP3    H255695   2.690   2.288  17.305 -0.7093  1.1951  0.0072
11402TIP3   OH255696   6.054   1.280   2.637 -0.2312  0.2160  0.3100
11402TIP3    H155697   6.125   1.275   2.702  0.3566 -0.6525 -0.3582
11402TIP3    H255698   5.976   1.302   2.688  0.6904  2.2403  0.9267
11403TIP3   OH255699   4.941   0.473  15.492  0.0084  0.1656  0.1900
11403TIP3    H155700   4.896   0.411  15.549  0.2494  0.8157  1.1026
11403TIP3    H255701   4.869   0.517  15.444 -0.1262 -1.4382 -1.1797
11404TIP3   OH255702   2.257   6.304   3.876 -0.1005  0.2489  0.2838
11404TIP3    H155703   2.317   6.375   3.899  0.3163  0.2144 -0.6843
11404TIP3    H255704   2.226   6.272   3.961  0.6695  0.7610  0.7795
11405TIP3   OH255705   1.581   3.808   3.535 -0.6667 -0.2209 -0.2620
11405TIP3    H155706   1.636   3.832   3.460  0.0318 -3.7130 -1.0665
11405TIP3    H255707   1.633   3.743   3.583 -1.7518  0.7452  2.4102
11406TIP3   OH255708   2.925   3.941  16.955 -0.5258 -0.7529  0.1210
11406TIP3    H155709   2.850   3.970  16.903 -1.0680 -2.3797 -0.0524
11406TIP3    H255710   2.923   3.997  17.033 -0.3747  0.9452 -1.0381
11407TIP3   OH255711   2.160   0.324  15.034  0.2521  0.1145  0.5493
11407TIP3    H155712   2.120   0.303  14.950  1.3135  2.3847 -0.6285
11407TIP3    H255713   2.254   0.308  15.021  0.2988 -0.6998  1.7358
11408TIP3   OH255714   2.014   5.883   0.133  0.1690 -0.2537 -0.1346
11408TIP3    H155715   2.022   5.973   0.165 -2.7822 -0.1977  0.7150
11408TIP3    H255716   2.096   5.841   0.160  0.7894  1.6628  1.1729
11409TIP3   OH255717   2.186   2.103   0.611  0.1368  0.4996  0.0698
11409TIP3    H155718   2.209   2.160   0.685  2.2871 -0.2845  0.0918
11409TIP3    H255719   2.270   2.087   0.567 -0.5769 -1.6467 -0.6331
11410TIP3   OH255720   5.771   0.678  11.809 -0.2689 -0.5659 -0.6169
11410TIP3    H155721   5.696   0.696  11.865 -1.0712  0.5216 -1.9714
11410TIP3    H255722   5.830   0.626  11.863 -1.6080 -0.7012  0.7627
11411TIP3   OH255723   3.060   6.366   2.704  0.4598 -0.4803 -0.1055
11411TIP3    H155724   3.126   6.315   2.750 -0.2827 -1.4418 -0.0760
11411TIP3    H255725   2.991   6.380   2.769  0.0180 -0.6734 -0.5308
11412TIP3   OH255726   4.759   4.406   1.020 -0.2100 -0.0076  0.0771
11412TIP3    H155727   4.733   4.322   1.059  0.1945  1.1795  3.1466
11412TIP3    H255728   4.847   4.390   0.986  0.4039 -0.5512  1.8123
11413TIP3   OH255729   1.135   5.825   3.427 -0.3557  0.1352 -0.3825
11413TIP3    H155730   1.209   5.854   3.480 -1.4830  1.7808  0.3861
11413TIP3    H255731   1.058   5.852   3.477 -1.4681  0.0306 -1.9641
11414TIP3   OH255732   0.106   5.482   3.616 -0.0639  0.4237  0.2320
11414TIP3    H155733   0.096   5.431   3.535  0.5003 -0.5716  0.7789
11414TIP3    H255734   0.197   5.510   3.615 -0.6484  2.4793 -0.6519
11415TIP3   OH255735   3.628   1.984  12.268 -0.3785 -0.1485  0.2892
11415TIP3    H155736   3.715   1.964  12.235  0.1754 -1.0424  2.1557
11415TIP3    H255737   3.643   2.042  12.343 -1.2580 -1.1837  1.3148
11416TIP3   OH255738   4.004   6.767   3.434  0.4634 -0.2022  0.2574
11416TIP3    H155739   4.099   6.765   3.421  0.4136 -1.9754 -0.1663
11416TIP3    H255740   3.969   6.728   3.355 -0.6715  0.9179  0.1891
11417TIP3   OH255741   1.217   5.927  16.346 -0.0706  0.1012  0.5541
11417TIP3    H155742   1.152   5.983  16.304 -0.0050 -0.6341 -0.5873
11417TIP3    H255743   1.221   5.957  16.437 -1.5693  0.5379  0.4913
11418TIP3   OH255744   6.046   3.093   5.814  0.2118 -0.4531 -0.1962
11418TIP3    H155745   6.072   3.149   5.741 -3.8381  1.6557 -0.2797
11418TIP3    H255746   6.103   3.120   5.886  0.6857  1.3403 -1.1675
11419TIP3   OH255747   6.718   3.648   4.288 -0.0100 -0.7143  0.2552
11419TIP3    H155748   6.766   3.638   4.370 -1.4210 -0.9670  1.0729
11419TIP3    H255749   6.645   3.706   4.310  0.1595  0.0392 -1.0729
11420TIP3   OH255750   4.213   6.451  14.332  0.2447  0.1251 -0.4902
11420TIP3    H155751   4.158   6.490  14.400 -0.2861 -0.3176 -0.6568
11420TIP3    H255752   4.242   6.368  14.370  0.5342  0.2055 -0.5323
11421TIP3   OH255753   3.768   4.633   5.312 -0.8393  0.2828  0.3243
11421TIP3    H155754   3.733   4.590   5.234  0.4678  0.1694 -0.2186
11421TIP3    H255755   3.710   4.708   5.326  0.0844  1.5106 -1.9999
11422TIP3   OH255756   0.530   3.945  15.884 -0.0359  0.0803 -0.3780
11422TIP3    H155757   0.464   3.966  15.951  0.3157 -0.0891  0.0317
11422TIP3    H255758   0.493   3.870  15.837  0.4995 -1.0096  0.8349
11423TIP3   OH255759   6.066   1.848  11.185 -0.0759  0.0543  0.6250
11423TIP3    H155760   5.987   1.802  11.156  0.4257  0.2177 -1.0781
11423TIP3    H255761   6.138   1.792  11.157  0.5271  1.5248 -0.9857
11424TIP3   OH255762   5.330   2.857  12.136 -0.0317 -0.3090  0.4259
11424TIP3    H155763   5.282   2.939  12.126  1.0705  0.3113  0.0606
11424TIP3    H255764   5.419   2.878  12.108  0.1674 -1.7457 -0.0851
11425TIP3   OH255765   2.526   0.794  12.424  0.3116  0.4818 -0.7630
11425TIP3    H155766   2.461   0.727  12.403  1.0546 -0.2216 -0.8532
11425TIP3    H255767   2.565   0.765  12.506 -0.5149  1.6907  0.1024
11426TIP3   OH255768   3.768   2.613  13.304 -0.0822  0.3642  0.4072
11426TIP3    H155769   3.826   2.605  13.228 -1.5719  1.8912 -0.9618
11426TIP3    H255770   3.794   2.541  13.361  1.7294 -0.2666 -1.0908
11427TIP3   OH255771   0.768   0.602  11.978 -0.0914  0.0273 -0.0675
11427TIP3    H155772   0.862   0.614  11.983  0.0381 -0.9783  0.0861
11427TIP3    H255773   0.756   0.508  11.971 -1.1599 -0.0207  1.8984
11428TIP3   OH255774   1.975   3.853  11.414 -0.3884 -0.0498 -0.4703
11428TIP3    H155775   1.969   3.921  11.347  0.7655  0.2628 -0.2859
11428TIP3    H255776   2.052   3.877  11.466 -0.1709 -1.2883 -0.1721
11429TIP3   OH255777   3.174   5.115   3.643 -0.6243 -0.6337  0.4418
11429TIP3    H155778   3.263   5.148   3.654 -1.1230  1.1164 -0.3078
11429TIP3    H255779   3.177   5.025   3.676  1.3303 -0.5195  0.7051
11430TIP3   OH255780   3.254   4.382  13.375  0.7178  0.1567 -0.0450
11430TIP3    H155781   3.194   4.420  13.312 -0.9344 -1.1571  0.6599
11430TIP3    H255782   3.337   4.374  13.328  0.8038  3.3015 -0.6106
11431TIP3   OH255783   0.069   3.421   2.557  0.1926  0.1134  0.4549
11431TIP3    H155784   0.110   3.335   2.546 -0.4296 -0.4946  2.5013
11431TIP3    H255785  -0.019   3.410   2.522  0.0332 -0.1672  0.9371
11432TIP3   OH255786   6.663   0.829   0.877 -0.1280 -0.0116  0.0566
11432TIP3    H155787   6.572   0.840   0.902 -0.5120 -1.7513 -0.4156
11432TIP3    H255788   6.668   0.863   0.787 -0.9816 -2.2300 -0.9137
11433TIP3   OH255789   0.668   6.097   4.532  0.1124 -0.3293  0.2302
11433TIP3    H155790   0.594   6.086   4.472  0.1994 -2.9898  0.4634
11433TIP3    H255791   0.707   6.010   4.538  4.5637  1.2735 -1.3840
11434TIP3   OH255792   6.088   3.378  11.269 -0.3381  0.2459 -0.2219
11434TIP3    H155793   6.089   3.447  11.336 -0.7671 -0.6590  0.7478
11434TIP3    H255794   6.012   3.399  11.215  0.4254  1.3925 -0.8977
11435TIP3   OH255795   6.586   0.015   3.665  0.5851  0.5730 -0.4123
11435TIP3    H155796   6.664   0.038   3.717  0.9144 -1.1348 -0.0876
11435TIP3    H255797   6.618  -0.051   3.604 -0.5269  0.1560 -0.5530
11436TIP3   OH255798   5.641   6.756   0.217  0.1037  0.4184  0.2325
11436TIP3    H155799   5.710   6.819   0.237 -0.8181  1.4943  0.1631
11436TIP3    H255800   5.596   6.744   0.301 -0.8351  1.2647 -0.1326
11437TIP3   OH255801   6.798   4.232   1.023 -0.2818 -0.2463  0.2958
11437TIP3    H155802   6.789   4.308   1.080  1.5551  0.8025 -0.6943
11437TIP3    H255803   6.824   4.161   1.081  2.1761  0.9305  0.8087
11438TIP3   OH255804   5.139   4.203   3.175 -0.3227 -0.0560 -0.1981
11438TIP3    H155805   5.198   4.243   3.238  0.1485  0.9905 -1.2575
11438TIP3    H255806   5.164   4.110   3.174  1.6330  0.4290 -0.9206
11439TIP3   OH255807   2.265   3.532  13.545 -0.2523 -0.3513 -0.1460
11439TIP3    H155808   2.213   3.605  13.510 -1.2169 -0.8900  0.1270
11439TIP3    H255809   2.265   3.466  13.476 -0.0833 -0.4280 -0.0737
11440TIP3   OH255810   6.005   4.597   2.676 -0.3655  0.6835 -0.3107
11440TIP3    H155811   6.017   4.666   2.741 -0.4020 -0.0129  0.4538
11440TIP3    H255812   6.025   4.516   2.723 -0.1745  0.1788 -1.2309
11441TIP3   OH255813   1.690   1.075  11.655 -0.3032 -0.7967  0.2957
11441TIP3    H155814   1.693   1.098  11.748 -0.6989  1.0856 -0.1212
11441TIP3    H255815   1.605   1.106  11.625 -0.4916 -2.0614 -0.5554
11442TIP3   OH255816   4.599   2.542   5.608  0.2064 -0.0196  0.2897
11442TIP3    H155817   4.685   2.581   5.620  0.1104  0.3252 -0.0899
11442TIP3    H255818   4.538   2.612   5.633  0.0320  0.1055 -0.4614
11443TIP3   OH255819   3.929   1.803   3.624 -0.2075  0.2787  0.4195
11443TIP3    H155820   3.866   1.731   3.635 -0.5860  0.2935 -1.3911
11443TIP3    H255821   3.877   1.875   3.587  0.9796 -0.0086 -2.0132
11444TIP3   OH255822   4.822   6.293  16.235 -0.2280 -0.7269 -0.0711
11444TIP3    H155823   4.863   6.357  16.177 -0.8446  1.4485  1.7474
11444TIP3    H255824   4.883   6.285  16.309 -1.6468  0.3572  1.2826
11445TIP3   OH255825   4.071   2.779  12.816  0.5217  0.6848 -0.6747
11445TIP3    H155826   3.998   2.777  12.755 -0.0558  0.1221  0.0058
11445TIP3    H255827   4.146   2.807  12.764 -0.0670  0.7422 -1.5061
11446TIP3   OH255828   3.048   5.750  13.475  0.4925 -0.3845 -0.1713
11446TIP3    H155829   3.072   5.842  13.486 -1.2421  0.4767 -2.7780
11446TIP3    H255830   2.995   5.730  13.553 -1.1207  1.6122 -0.6534
11447TIP3   OH255831   3.781   0.799  15.526  0.3134 -0.6777  0.0269
11447TIP3    H155832   3.799   0.801  15.620 -3.2919  0.7642  0.8397
11447TIP3    H255833   3.713   0.865  15.513 -0.0407 -1.5371 -3.4535
11448TIP3   OH255834   4.507   3.362  14.519  0.4851 -0.2556 -0.2605
11448TIP3    H155835   4.476   3.440  14.566  1.6919 -0.6196  1.2222
11448TIP3    H255836   4.441   3.295  14.538  0.0673  0.0654 -0.5481
11449TIP3   OH255837   4.658   3.113   6.382 -0.0739 -0.2772 -0.3390
11449TIP3    H155838   4.691   3.024   6.389  0.6046  0.0121  0.2903
11449TIP3    H255839   4.589   3.118   6.447  0.1944 -0.2137 -0.0579
11450TIP3   OH255840   4.294   2.975  15.836  0.5634  0.1399  0.4458
11450TIP3    H155841   4.307   3.067  15.813  3.8314 -0.3137 -0.1193
11450TIP3    H255842   4.300   2.928  15.753 -0.4016 -0.6313  0.7999
11451TIP3   OH255843   4.393   0.024  14.623  0.0427 -0.1696 -0.0822
11451TIP3    H155844   4.468   0.077  14.650 -0.6312  1.2295 -0.8534
11451TIP3    H255845   4.390   0.034  14.527 -1.1984 -0.0702 -0.0505
11452TIP3   OH255846   3.160   4.105   6.015 -0.0367 -0.7120  0.4216
11452TIP3    H155847   3.081   4.134   6.061 -0.7015  1.3960 -1.8446
11452TIP3    H255848   3.228   4.166   6.043 -0.2703  0.1174 -0.7479
11453TIP3   OH255849   4.938   1.660  15.157  0.2846 -0.0747  0.2170
11453TIP3    H155850   4.956   1.657  15.063  3.2754 -2.6712  0.7233
11453TIP3    H255851   4.968   1.747  15.184  0.5307  0.2542 -1.0409
11454TIP3   OH255852   5.665   2.720  11.844 -0.9490 -0.1490  0.4265
11454TIP3    H155853   5.602   2.793  11.849  0.5554  1.3859 -1.4750
11454TIP3    H255854   5.737   2.755  11.792  0.0732 -2.8779 -0.1198
11455TIP3   OH255855   0.017   5.615   0.914  0.3216  0.3375  0.1175
11455TIP3    H155856  -0.006   5.708   0.902 -0.3490  0.1364 -0.2322
11455TIP3    H255857   0.075   5.595   0.841  0.0786  0.3621 -0.0849
11456TIP3   OH255858   2.812   6.397  11.152 -0.0002  0.3327  0.3650
11456TIP3    H155859   2.853   6.322  11.194  0.7482  0.1600 -0.6329
11456TIP3    H255860   2.885   6.454  11.128 -0.5842  1.5610  1.4204
11457TIP3   OH255861   1.436   1.034   3.192 -0.0307  0.1288 -0.6082
11457TIP3    H155862   1.407   0.981   3.118 -0.9510 -0.5147  0.1939
11457TIP3    H255863   1.398   0.991   3.268  0.8443  0.8247  0.2334
11458TIP3   OH255864   0.981   3.171   6.500 -0.0652  0.2990 -0.0877
11458TIP3    H155865   0.973   3.265   6.517 -1.1632  0.3884 -1.0454
11458TIP3    H255866   0.892   3.138   6.502  0.3063 -0.7348  0.2145
11459TIP3   OH255867   0.489   4.818   2.704 -0.1395 -0.5242 -0.0590
11459TIP3    H155868   0.428   4.805   2.632  0.3055 -0.2953 -0.4775
11459TIP3    H255869   0.490   4.912   2.719 -2.1136 -0.7119  1.9018
11460TIP3   OH255870   2.526   3.318   6.510  0.1792  0.1449 -0.0691
11460TIP3    H155871   2.450   3.372   6.491 -0.6134 -0.8726  0.1581
11460TIP3    H255872   2.493   3.247   6.565  1.6250  0.6996  1.6231
11461TIP3   OH255873   3.429   2.648  11.229  0.1347 -0.0289 -0.0847
11461TIP3    H155874   3.435   2.742  11.214  0.0552  0.1101  0.6950
11461TIP3    H255875   3.336   2.628  11.215 -0.2349  0.3657  1.6056
11462TIP3   OH255876   1.815   4.933   2.524  0.4337  0.3458  0.2411
11462TIP3    H155877   1.825   4.934   2.429  1.5760 -0.7319  0.3258
11462TIP3    H255878   1.737   4.987   2.541  0.7715  1.3359 -1.2217
11463TIP3   OH255879   5.192   5.651   3.300 -0.1612 -0.3551 -0.1184
11463TIP3    H155880   5.171   5.668   3.208  0.6285  0.3540 -0.1785
11463TIP3    H255881   5.149   5.723   3.347  3.7133  2.4683 -0.4230
11464TIP3   OH255882   3.920   2.196  16.723  0.3776  0.1096 -0.1117
11464TIP3    H155883   3.890   2.177  16.634  0.1912  0.8309 -0.2064
11464TIP3    H255884   3.884   2.125  16.776  0.8362 -0.5585 -0.6760
11465TIP3   OH255885   0.277   0.663  15.607 -0.8762  0.3948  0.4097
11465TIP3    H155886   0.316   0.687  15.523 -1.0932 -1.9991 -0.4529
11465TIP3    H255887   0.350   0.628  15.658 -1.3448 -2.0490 -0.4109
11466TIP3   OH255888   3.909   4.196   5.590 -0.1391 -0.1431 -0.3858
11466TIP3    H155889   3.826   4.192   5.638  0.6215 -0.3357  0.9991
11466TIP3    H255890   3.961   4.126   5.630  1.7219  1.8317  0.8743
11467TIP3   OH255891   4.155   3.577  14.007 -0.3005 -0.1443 -0.3843
11467TIP3    H155892   4.130   3.630  13.931 -0.3986  0.8118  0.2894
11467TIP3    H255893   4.206   3.637  14.061  0.5480 -1.0849 -0.1241
11468TIP3   OH255894   0.008   0.442  13.384  0.3558  0.4717  0.6767
11468TIP3    H155895   0.009   0.531  13.349 -1.1959  0.0946 -0.4481
11468TIP3    H255896   0.101   0.418  13.393  0.8217  1.2992 -1.4323
11469TIP3   OH255897   4.161   0.572  15.258  0.0343  0.2855 -0.1820
11469TIP3    H155898   4.132   0.526  15.337  0.9019  2.6875  1.6762
11469TIP3    H255899   4.182   0.502  15.196 -1.7840 -1.6819  1.2747
11470TIP3   OH255900   2.308   3.154   1.418  0.0731 -0.1988 -0.1879
11470TIP3    H155901   2.379   3.144   1.354  1.0897  0.6018  0.7877
11470TIP3    H255902   2.324   3.085   1.482  0.4857  0.5293  0.4981
11471TIP3   OH255903   2.139   6.415   1.500  0.2165 -0.1422 -0.1541
11471TIP3    H155904   2.182   6.436   1.417  1.5147  0.4662  0.6563
11471TIP3    H255905   2.148   6.494   1.553 -0.4092 -0.5974  0.6565
11472TIP3   OH255906   0.751   2.514  14.833  0.2671  0.7069 -0.0284
11472TIP3    H155907   0.741   2.604  14.802 -0.7660  0.5078 -0.3132
11472TIP3    H255908   0.746   2.521  14.928 -0.9727  0.8423 -0.0842
11473TIP3   OH255909   2.559   0.265   4.051 -0.6781 -0.1689  0.0320
11473TIP3    H155910   2.533   0.197   4.114 -0.8982 -0.8322 -0.7541
11473TIP3    H255911   2.653   0.253   4.040 -0.8761 -1.0361 -0.8728
11474TIP3   OH255912   6.806   3.015  15.217  0.5864 -0.1342  0.1205
11474TIP3    H155913   6.792   3.067  15.137  0.0946  0.3535  0.5170
11474TIP3    H255914   6.743   3.050  15.279  2.8545  1.4809  1.6715
11475TIP3   OH255915   4.079   1.632  13.397  0.0657  0.0079  0.5323
11475TIP3    H155916   4.011   1.600  13.456  0.3361 -0.4508  0.6023
11475TIP3    H255917   4.105   1.555  13.346  0.2782  0.2585  0.2594
11476TIP3   OH255918   1.744   4.727  12.191  0.4718  0.3007 -0.0971
11476TIP3    H155919   1.799   4.707  12.115  1.7867 -0.3254  0.9579
11476TIP3    H255920   1.699   4.644  12.210  2.0475 -0.3116  1.2408
11477TIP3   OH255921   5.018   0.443   3.441 -0.5512  0.0467  0.0787
11477TIP3    H155922   4.929   0.419   3.469  0.2028 -1.8785  0.9813
11477TIP3    H255923   5.069   0.443   3.522  0.3127  1.0483 -0.4430
11478TIP3   OH255924   0.058   0.759  11.721 -0.0683 -0.3194  0.6704
11478TIP3    H155925   0.021   0.682  11.678 -1.1505  0.9932 -0.8536
11478TIP3    H255926   0.136   0.781  11.670 -1.1272  0.9994 -0.4677
11479TIP3   OH255927   4.935   3.837   4.955  1.1409 -0.2937  0.0901
11479TIP3    H155928   4.938   3.870   4.866 -0.6426  1.1920  0.5197
11479TIP3    H255929   4.887   3.755   4.949 -0.2864  0.5277 -0.1674
11480TIP3   OH255930   4.837   5.954  15.253 -0.4521  0.2287  0.2573
11480TIP3    H155931   4.926   5.941  15.285 -0.4037  0.3828  0.1907
11480TIP3    H255932   4.787   5.881  15.289 -0.9002  1.5546  2.5442
11481TIP3   OH255933   0.884   3.918  14.914  0.1179  0.1399  0.1866
11481TIP3    H155934   0.790   3.936  14.918  0.2247  0.5337  1.2349
11481TIP3    H255935   0.904   3.915  14.820 -0.7574  0.9861 -0.0465
11482TIP3   OH255936   6.053   1.230  10.770 -0.4884 -0.2389  0.5590
11482TIP3    H155937   6.024   1.140  10.782 -1.6849  0.2392  1.5447
11482TIP3    H255938   6.090   1.255  10.854 -2.1167  0.8222  1.0128
11483TIP3   OH255939   4.812   3.782  16.883  0.2109 -0.1137 -0.1926
11483TIP3    H155940   4.743   3.821  16.831 -0.7479 -0.6030  0.6786
11483TIP3    H255941   4.835   3.701  16.838  0.7602  0.4172 -0.8870
11484TIP3   OH255942   5.306   1.043  11.598  0.0105  0.1392  0.4032
11484TIP3    H155943   5.367   1.109  11.564 -1.2958  2.1023  1.6548
11484TIP3    H255944   5.309   1.056  11.693 -1.0247 -0.9497  0.5995
11485TIP3   OH255945   6.393   5.064   1.779 -0.1020  0.2540  0.1839
11485TIP3    H155946   6.395   5.157   1.756 -2.8476  0.2311 -0.5834
11485TIP3    H255947   6.336   5.059   1.856  1.1523 -0.6969  1.1045
11486TIP3   OH255948   3.936   1.205   0.736 -0.3623  0.2890 -0.2686
11486TIP3    H155949   4.002   1.206   0.666 -0.7359  0.3408 -0.6225
11486TIP3    H255950   3.967   1.137   0.796 -0.0341  0.2436 -0.4823
11487TIP3   OH255951   4.719   0.837  12.534  0.1063  0.0047 -0.8815
11487TIP3    H155952   4.715   0.889  12.615 -0.0459 -0.3464 -0.6606
11487TIP3    H255953   4.685   0.751  12.560 -0.2930  0.0006 -1.4098
11488TIP3   OH255954   6.222   4.515  13.646 -0.1425  0.3927  0.7610
11488TIP3    H155955   6.159   4.585  13.630  0.2942  0.6168 -0.0517
11488TIP3    H255956   6.254   4.531  13.735  0.2702  1.4887  0.4328
11489TIP3   OH255957   3.934   1.955  12.545 -0.0330  0.0817 -0.3220
11489TIP3    H155958   4.021   1.957  12.504 -0.3428 -1.5972 -1.1445
11489TIP3    H255959   3.911   1.862  12.548 -0.6874  0.2416  2.3587
11490TIP3   OH255960   3.546   5.217   4.174 -0.4852 -0.3038 -0.5168
11490TIP3    H155961   3.595   5.135   4.165 -2.5390 -1.4884 -1.7173
11490TIP3    H255962   3.523   5.241   4.084  0.2482  1.7584 -0.2123
11491TIP3   OH255963   6.030   1.240   0.902 -0.2037 -0.1525  0.0295
11491TIP3    H155964   5.951   1.189   0.918  0.5470 -0.7008  2.3149
11491TIP3    H255965   6.073   1.196   0.829 -3.2829  1.8070 -3.2957
11492TIP3   OH255966   6.555   0.497  16.034 -0.1640 -1.2099  0.2481
11492TIP3    H155967   6.562   0.578  16.084 -2.8433  0.1031 -1.2610
11492TIP3    H255968   6.566   0.428  16.099  4.1950  0.1710  1.2997
11493TIP3   OH255969   2.332   6.728  14.976 -0.3792 -0.4756 -0.5703
11493TIP3    H155970   2.363   6.650  15.024  1.0862  0.4434  0.0456
11493TIP3    H255971   2.293   6.783  15.044 -0.8839 -0.4029 -0.9150
11494TIP3   OH255972   5.956   1.387   3.572  0.0642 -0.5127 -0.0438
11494TIP3    H155973   5.984   1.299   3.550 -0.1135 -0.8254  0.9518
11494TIP3    H255974   5.937   1.385   3.666 -2.3985 -0.1063 -0.4410
11495TIP3   OH255975   5.667   3.206   1.453 -0.0606 -0.5198  0.4443
11495TIP3    H155976   5.729   3.275   1.429  2.3387 -2.6113  0.1546
11495TIP3    H255977   5.702   3.169   1.534 -1.0918 -1.5778  0.4307
11496TIP3   OH255978   4.758   2.329  16.349 -0.0393 -0.2180 -0.4187
11496TIP3    H155979   4.774   2.339  16.442 -0.4281 -0.3389 -0.3345
11496TIP3    H255980   4.800   2.246  16.326 -0.6281 -0.5912 -0.1787
11497TIP3   OH255981   2.018   5.189  15.582  1.0003 -0.1440  0.5382
11497TIP3    H155982   2.036   5.280  15.557  1.9636 -0.8468 -1.4837
11497TIP3    H255983   1.924   5.187  15.599  0.3673  0.6120 -2.3992
11498TIP3   OH255984   2.678   5.242   6.125  0.2616  0.3793 -0.0369
11498TIP3    H155985   2.771   5.225   6.109  0.1598  0.9464 -1.3378
11498TIP3    H255986   2.677   5.328   6.167  0.4253 -0.4235  1.6722
11499TIP3   OH255987   5.012   3.607   5.754 -0.0817 -0.2263 -0.3268
11499TIP3    H155988   5.069   3.684   5.748 -1.8729  1.0777 -1.3757
11499TIP3    H255989   5.071   3.536   5.781  1.9558  1.1369 -0.9455
11500TIP3   OH255990   0.750   5.841  14.494 -0.1228  0.2648 -0.1897
11500TIP3    H155991   0.678   5.791  14.533 -1.2592  1.7615 -0.2347
11500TIP3    H255992   0.810   5.859  14.567  0.2396 -1.0323 -0.1580
11501TIP3   OH255993   2.228   3.974  16.525  0.1864 -0.5027  0.0679
11501TIP3    H155994   2.152   3.955  16.470  0.1013 -0.3866  0.1448
11501TIP3    H255995   2.265   4.054  16.488  0.3184 -0.6040 -0.0193
11502TIP3   OH255996   6.094   0.865   3.503 -0.5455 -0.0836  0.1372
11502TIP3    H155997   6.087   0.770   3.506  0.8760 -0.3373 -2.1058
11502TIP3    H255998   6.041   0.891   3.428  1.1841  0.5541 -0.9291
11503TIP3   OH255999   4.753   0.328  15.629 -0.3045 -0.0241  0.2928
11503TIP3    H156000   4.738   0.234  15.621  0.6784 -0.0947 -0.9444
11503TIP3    H256001   4.665   0.366  15.629 -0.6880 -0.7218 -2.5218
11504TIP3   OH256002   2.280   4.668  14.649  0.6301 -0.1004 -0.3937
11504TIP3    H156003   2.340   4.637  14.581  1.1290  1.7344 -0.8560
11504TIP3    H256004   2.320   4.749  14.681 -0.6433  0.1568  0.6487
11505TIP3   OH256005   5.591   5.589   1.698 -0.4159 -0.0815  0.4093
11505TIP3    H156006   5.611   5.498   1.719 -1.2811 -0.0523  1.4501
11505TIP3    H256007   5.550   5.585   1.611  1.6833 -0.3894 -0.6445
11506TIP3   OH256008   3.017   1.824  15.062 -0.3553 -0.4239  0.8625
11506TIP3    H156009   3.006   1.761  15.133  0.6495 -0.6397  0.8426
11506TIP3    H256010   2.958   1.793  14.994 -0.4127 -0.9320  1.1357
11507TIP3   OH256011   5.959   1.034   4.094  0.1810 -0.0565  0.2811
11507TIP3    H156012   5.957   0.988   4.010  0.5189  0.1418  0.1654
11507TIP3    H256013   5.873   1.015   4.133  0.4461 -1.0793  0.3971
11508TIP3   OH256014   5.261   5.406  15.883 -0.2510 -0.3194  0.1265
11508TIP3    H156015   5.183   5.389  15.935 -0.8060  1.6564 -0.0101
11508TIP3    H256016   5.263   5.501  15.871  2.3274 -0.2567  0.3637
11509TIP3   OH256017   3.251   3.012   3.539 -0.7008 -0.5548  0.0461
11509TIP3    H156018   3.234   2.974   3.453 -1.3069  0.0558 -0.1091
11509TIP3    H256019   3.172   3.062   3.559  0.6658  1.9853 -0.4650
11510TIP3   OH256020   6.401   3.434  11.749 -0.0488 -0.6415 -0.1959
11510TIP3    H156021   6.448   3.408  11.671 -0.7774 -0.0356 -0.8556
11510TIP3    H256022   6.433   3.376  11.818  1.3908 -0.4695 -0.6928
11511TIP3   OH256023   2.503   2.892  16.810 -0.4481  0.1628  0.5949
11511TIP3    H156024   2.537   2.877  16.898 -0.1484 -0.9436  0.2975
11511TIP3    H256025   2.560   2.841  16.752 -1.3525 -0.0678 -0.1173
11512TIP3   OH256026   0.078   5.197   3.893  0.8310 -0.2967  0.4556
11512TIP3    H156027   0.144   5.204   3.824 -0.0638 -1.0064 -0.5035
11512TIP3    H256028   0.086   5.107   3.925  0.1923 -0.4611  0.1757
11513TIP3   OH256029   0.054   4.210  16.588 -0.0023  0.3984 -0.5064
11513TIP3    H156030   0.016   4.234  16.673 -0.9530  1.0354 -1.0886
11513TIP3    H256031   0.148   4.222  16.599 -0.1501  0.8575  0.3404
11514TIP3   OH256032   6.683   3.561  12.343 -0.3822 -0.4840  0.0652
11514TIP3    H156033   6.703   3.601  12.258  0.3249 -0.5980  0.1671
11514TIP3    H256034   6.628   3.486  12.321  1.7165 -1.9308 -0.5708
11515TIP3   OH256035   4.246   1.264  11.317 -0.5768 -0.3878  0.7077
11515TIP3    H156036   4.252   1.276  11.222  2.2434  1.3541  0.9814
11515TIP3    H256037   4.202   1.343  11.348 -0.1303 -0.2293  0.9459
11516TIP3   OH256038   4.185   5.476  11.933 -0.3600  0.7265  0.2615
11516TIP3    H156039   4.167   5.386  11.906 -0.6128  0.2638  1.8822
11516TIP3    H256040   4.111   5.526  11.898 -0.5785  0.1952 -0.0605
11517TIP3   OH256041   0.257   0.794   1.336  0.2405 -0.3195 -0.1782
11517TIP3    H156042   0.300   0.740   1.270 -1.0870  0.3514 -1.6761
11517TIP3    H256043   0.248   0.880   1.295  1.2952  0.7617  1.7296
11518TIP3   OH256044   6.422   6.159  14.137 -0.3581  0.1577 -0.1127
11518TIP3    H156045   6.471   6.113  14.069  1.7256  0.3488  1.1569
11518TIP3    H256046   6.359   6.213  14.090  1.8260  1.2340 -1.9804
11519TIP3   OH256047   2.526   5.508  13.062 -0.0397 -0.5709  1.2315
11519TIP3    H156048   2.481   5.506  12.977  0.9010 -0.4082  0.7259
11519TIP3    H256049   2.485   5.580  13.109 -1.7930 -1.7450  1.6114
11520TIP3   OH256050   3.000   6.734  11.231  0.2421 -0.1014 -0.1080
11520TIP3    H156051   2.986   6.702  11.142  1.1414 -0.2130 -0.2196
11520TIP3    H256052   3.046   6.663  11.276  0.4782  0.2504  0.2222
11521TIP3   OH256053   4.549   3.719   4.164 -0.1803 -0.3467 -0.3797
11521TIP3    H156054   4.527   3.729   4.072  0.2446  1.8732 -0.3217
11521TIP3    H256055   4.601   3.639   4.169 -1.1505 -1.0993 -1.8547
11522TIP3   OH256056   3.941   2.851   0.116  0.0153  0.1745 -0.3049
11522TIP3    H156057   3.942   2.759   0.142  0.5504  0.3910  0.5085
11522TIP3    H256058   3.948   2.899   0.199 -0.0964  0.9457 -0.7301
11523TIP3   OH256059   5.638   0.151  14.274  0.3536 -0.7277  0.1657
11523TIP3    H156060   5.675   0.117  14.356  0.0449  1.4932  1.2974
11523TIP3    H256061   5.544   0.154  14.290  0.3591  0.4357  0.0298
11524TIP3   OH256062   6.701   6.085  15.949 -0.0458 -0.6221 -0.7597
11524TIP3    H156063   6.775   6.139  15.976  1.3191 -2.0962 -1.4028
11524TIP3    H256064   6.674   6.121  15.865 -0.2713  0.1017 -0.3867
11525TIP3   OH256065   0.793   1.626   3.202  0.1289  0.3313 -0.2105
11525TIP3    H156066   0.758   1.677   3.128  1.3707 -0.5911 -1.4867
11525TIP3    H256067   0.749   1.541   3.195  0.1000  0.3070  0.2509
11526TIP3   OH256068   5.488   3.680  16.538  0.1476  0.1322 -0.7714
11526TIP3    H156069   5.455   3.618  16.474 -0.1577  0.0232 -0.5099
11526TIP3    H256070   5.483   3.765  16.494  1.2956 -0.1080 -1.4151
11527TIP3   OH256071   2.254   1.295   0.500 -0.2461  0.3024 -0.5632
11527TIP3    H156072   2.313   1.365   0.529  1.5384 -1.2373 -0.2766
11527TIP3    H256073   2.234   1.246   0.580 -0.2787 -0.3780 -0.9820
11528TIP3   OH256074   5.459   6.219  14.853  0.1305  0.0221 -0.0165
11528TIP3    H156075   5.425   6.308  14.850 -2.1667 -0.7447  0.6355
11528TIP3    H256076   5.547   6.225  14.817 -0.4975  2.3041 -1.3720
11529TIP3   OH256077   1.510   6.580  11.342 -0.1412  0.0088 -0.0376
11529TIP3    H156078   1.568   6.564  11.416 -1.3003  0.6193  1.0484
11529TIP3    H256079   1.539   6.664  11.307 -0.6518  0.5705  0.8263
11530TIP3   OH256080   5.499   5.447  14.463 -0.3192  0.0660 -0.2655
11530TIP3    H156081   5.452   5.493  14.394  2.6232  2.2991 -0.9477
11530TIP3    H256082   5.489   5.502  14.540 -1.7585 -1.3173  0.6025
11531TIP3   OH256083   0.842   2.993  12.496 -0.2487  0.1359 -0.3823
11531TIP3    H156084   0.829   2.914  12.443  2.5914 -0.3552 -0.4889
11531TIP3    H256085   0.845   2.961  12.586 -0.2235  0.2761 -0.3330
11532TIP3   OH256086   6.151   3.633  11.726  0.0766 -0.1997 -0.3969
11532TIP3    H156087   6.216   3.694  11.760 -1.4739  0.8161  0.9104
11532TIP3    H256088   6.193   3.547  11.732  1.7085  0.5428 -0.7550
11533TIP3   OH256089   4.875   2.196  16.985  0.3755  0.3356 -0.0670
11533TIP3    H156090   4.846   2.109  16.957  0.9140  0.1717 -0.1306
11533TIP3    H256091   4.966   2.201  16.956  0.1595  1.1720 -0.6258
11534TIP3   OH256092   2.020   1.875   3.644 -0.0183 -0.0271  0.0670
11534TIP3    H156093   2.036   1.801   3.704 -0.7301 -0.6837 -0.5344
11534TIP3    H256094   2.031   1.837   3.557 -1.4461  0.3156 -0.2760
11535TIP3   OH256095   0.918   5.469   0.147  0.1793  0.6480  0.0475
11535TIP3    H156096   0.949   5.397   0.091 -1.1393  1.0761 -1.2915
11535TIP3    H256097   0.918   5.545   0.089 -1.6482  1.0170  0.4804
11536TIP3   OH256098   6.759   0.689  12.984  0.2220 -0.1695 -0.2639
11536TIP3    H156099   6.693   0.709  13.050  1.1458  0.9780  0.3549
11536TIP3    H256100   6.720   0.620  12.931 -1.1143 -0.1199  0.6095
11537TIP3   OH256101   6.432   6.405  16.835  0.1731  0.0370  0.2003
11537TIP3    H156102   6.412   6.355  16.756 -0.1557 -0.1820  0.4205
11537TIP3    H256103   6.347   6.422  16.875  0.3726 -0.3004  0.7818
11538TIP3   OH256104   3.816   2.733   3.565 -0.1293 -0.1544  0.1055
11538TIP3    H156105   3.864   2.804   3.523  1.7063 -1.8760 -0.9085
11538TIP3    H256106   3.834   2.745   3.658  0.6367  0.3839 -0.0978
11539TIP3   OH256107   4.290   3.615   0.299  0.2394  0.3839 -0.2685
11539TIP3    H156108   4.311   3.648   0.386 -2.2883  0.7293  0.2928
11539TIP3    H256109   4.362   3.646   0.243  3.2265 -1.8731  1.9901
11540TIP3   OH256110   5.333   3.924   2.236  0.0668 -0.5304 -0.6825
11540TIP3    H156111   5.424   3.949   2.248  0.6676 -2.0108 -1.8389
11540TIP3    H256112   5.300   3.985   2.169  0.3317 -0.3143 -0.6181
11541TIP3   OH256113   2.548   0.371   6.713 -0.1674 -0.9322 -0.0013
11541TIP3    H156114   2.466   0.411   6.682  0.3068 -1.1329 -1.5738
11541TIP3    H256115   2.525   0.280   6.729 -0.3706 -0.8768  0.0265
11542TIP3   OH256116   5.527   6.440   1.681 -0.2895 -0.3118 -0.4624
11542TIP3    H156117   5.523   6.345   1.677 -1.6789 -0.2364 -1.4232
11542TIP3    H256118   5.495   6.469   1.595 -1.2408  1.0366  0.3192
11543TIP3   OH256119   6.378   1.468   2.558 -0.1119 -0.1614  0.6682
11543TIP3    H156120   6.443   1.432   2.498  0.2147 -0.5095  1.2260
11543TIP3    H256121   6.296   1.467   2.508  0.3624  0.5856 -0.1526
11544TIP3   OH256122   6.566   5.398   5.289 -0.0362 -0.8381 -0.2388
11544TIP3    H156123   6.504   5.365   5.354 -0.1551 -0.5673 -0.2109
11544TIP3    H256124   6.652   5.385   5.329 -0.0860 -1.0280 -0.1909
11545TIP3   OH256125   2.548   6.281  15.525  0.7140  0.7895 -0.1909
11545TIP3    H156126   2.619   6.269  15.462 -0.4131  0.1797 -1.4122
11545TIP3    H256127   2.486   6.211  15.503  0.8965 -0.3327  2.5234
11546TIP3   OH256128   1.318   0.524   6.204  0.3717  0.1011 -0.3904
11546TIP3    H156129   1.296   0.601   6.258  0.5050 -0.0879 -0.0649
11546TIP3    H256130   1.404   0.497   6.235 -0.1138 -0.8094  0.2174
11547TIP3   OH256131   2.398   0.783  16.972  0.5798  0.4284  0.5986
11547TIP3    H156132   2.322   0.765  17.026 -1.5197  0.0892 -2.2240
11547TIP3    H256133   2.472   0.781  17.032 -1.4654 -0.5813  3.2586
11548TIP3   OH256134   1.989   1.789  14.982  0.2397  0.1092 -0.5768
11548TIP3    H156135   2.014   1.705  15.019  1.0728 -0.2983 -1.9811
11548TIP3    H256136   1.999   1.778  14.887  1.2200  2.0470 -0.7516
11549TIP3   OH256137   5.687   4.169   2.622  0.0594 -0.5725 -0.1922
11549TIP3    H156138   5.733   4.088   2.599  1.0226  0.1579 -0.9408
11549TIP3    H256139   5.678   4.215   2.538  1.2277  0.9461  0.4805
11550TIP3   OH256140   6.748   5.918   3.818  0.1607 -0.0131 -0.0462
11550TIP3    H156141   6.717   5.866   3.892 -1.8845 -0.4998 -1.1856
11550TIP3    H256142   6.842   5.902   3.815 -0.1417 -2.2341  0.7215
11551TIP3   OH256143   0.024   4.547   6.541 -0.0210 -0.6461  0.3287
11551TIP3    H156144   0.039   4.620   6.481 -1.0241 -1.0661 -0.4686
11551TIP3    H256145   0.111   4.521   6.570  0.3124  1.7535  1.7453
11552TIP3   OH256146   0.018   5.983  16.215 -0.3356  0.2729 -0.1864
11552TIP3    H156147   0.060   5.903  16.246 -0.9287  0.3114  0.7268
11552TIP3    H256148  -0.053   6.000  16.277  0.0868  1.7868 -0.0612
11553TIP3   OH256149   5.577   1.913   5.478  0.0451  0.7269 -0.1077
11553TIP3    H156150   5.572   1.873   5.565 -0.0957  2.6045  0.7957
11553TIP3    H256151   5.599   2.004   5.495 -1.7121  1.5612 -1.9324
11554TIP3   OH256152   0.046   4.147  11.062  0.1840  0.8519 -0.1967
11554TIP3    H156153   0.058   4.084  10.991  1.4353  1.3468 -0.4371
11554TIP3    H256154   0.031   4.231  11.018 -0.6865  0.8876  0.1311
11555TIP3   OH256155   1.295   1.432   4.524 -0.1453  0.3307 -0.1132
11555TIP3    H156156   1.351   1.470   4.592 -0.4689  0.0421  0.3210
11555TIP3    H256157   1.348   1.436   4.445  1.0897 -1.2760  0.5584
11556TIP3   OH256158   2.720   6.289  14.300  0.7061 -0.4678  0.5491
11556TIP3    H156159   2.694   6.198  14.288 -2.6557  0.3889  0.4359
11556TIP3    H256160   2.699   6.331  14.216 -2.7638  1.3217  2.0941
11557TIP3   OH256161   6.374   5.732   5.031  0.1280 -0.0243  0.2060
11557TIP3    H156162   6.279   5.737   5.042 -0.0466 -1.8964  0.0217
11557TIP3    H256163   6.408   5.733   5.121 -0.1938 -0.8120  0.3458
11558TIP3   OH256164   1.076   1.357  16.787  0.3846  0.2090 -0.1868
11558TIP3    H156165   1.007   1.407  16.830  0.5807  0.1774  0.1696
11558TIP3    H256166   1.101   1.411  16.712  1.8097  1.5405  1.1605
11559TIP3   OH256167   0.109   4.842   5.455 -0.2637  0.1809 -0.1136
11559TIP3    H156168   0.051   4.877   5.388  1.1534 -0.4585 -1.7294
11559TIP3    H256169   0.195   4.835   5.413  0.7572 -0.0002  1.8369
11560TIP3   OH256170   0.953   4.389  15.794 -0.2180 -0.6248  0.6975
11560TIP3    H156171   0.952   4.294  15.780  0.4974 -0.7512  1.4504
11560TIP3    H256172   0.916   4.401  15.881 -2.6567  0.0021 -0.3267
11561TIP3   OH256173   1.134   1.977  15.685 -0.4266 -0.6294  0.0965
11561TIP3    H156174   1.106   1.898  15.639 -1.2689 -1.3593  1.7936
11561TIP3    H256175   1.210   1.950  15.736 -1.2525 -0.6221  1.3869
11562TIP3   OH256176   3.087   1.927  14.590  0.1564  0.2324  0.0627
11562TIP3    H156177   3.092   1.833  14.573 -3.3201 -0.0864  0.1268
11562TIP3    H256178   3.055   1.965  14.508 -1.1269  0.9158  0.8453
11563TIP3   OH256179   2.612   3.318   0.188 -0.2144 -0.1231  0.4633
11563TIP3    H156180   2.652   3.381   0.128 -0.2038 -0.0835  0.5113
11563TIP3    H256181   2.683   3.260   0.215 -0.4525 -0.8559 -0.4578
11564TIP3   OH256182   1.249   6.613   3.619  0.1281 -0.1017  0.1576
11564TIP3    H156183   1.180   6.553   3.646 -1.7991  1.2688 -1.4013
11564TIP3    H256184   1.222   6.643   3.532  3.1554 -0.1266 -0.9143
11565TIP3   OH256185   0.832   5.942  12.979  0.2515  0.3615 -0.1656
11565TIP3    H156186   0.863   5.852  12.984  1.3519  0.5531 -2.2636
11565TIP3    H256187   0.912   5.995  12.976 -0.3275  1.2403 -0.8450
11566TIP3   OH256188   6.422   3.509   0.879  0.1746  0.4456 -0.0207
11566TIP3    H156189   6.491   3.493   0.814 -1.2979 -0.7430 -1.3797
11566TIP3    H256190   6.359   3.564   0.833 -0.1400  0.9284  0.9750
11567TIP3   OH256191   0.846   2.193  15.005  0.1658  0.2248 -1.5635
11567TIP3    H156192   0.880   2.277  15.036 -1.9623  0.3261  0.9049
11567TIP3    H256193   0.890   2.128  15.060 -1.2087  0.1432 -0.4664
11568TIP3   OH256194   4.072   2.977   0.936  0.4535 -0.5390  0.2611
11568TIP3    H156195   4.116   2.954   0.853 -1.2324 -0.4238 -0.7078
11568TIP3    H256196   4.028   2.896   0.962  2.1798 -1.0119  1.8861
11569TIP3   OH256197   3.399   4.624   0.583 -0.6609  0.0012  0.5157
11569TIP3    H156198   3.412   4.539   0.626 -2.0361 -0.4811  0.0317
11569TIP3    H256199   3.423   4.607   0.491 -1.1634  0.0676  0.3704
11570TIP3   OH256200   0.375   4.905  13.306  0.1188  0.1814  0.5199
11570TIP3    H156201   0.402   4.844  13.238 -2.6713 -1.2784  0.5859
11570TIP3    H256202   0.408   4.990  13.277  0.5172 -0.6780 -1.7436
11571TIP3   OH256203   6.145   6.185  15.591 -0.3858 -0.1327 -0.3084
11571TIP3    H156204   6.098   6.139  15.521 -1.4469 -0.4329  0.5823
11571TIP3    H256205   6.232   6.146  15.591  0.4932  1.4824 -3.0318
11572TIP3   OH256206   6.278   2.943  13.939  0.2357  0.4817  0.2353
11572TIP3    H156207   6.258   3.036  13.927  0.4431  0.5243  0.2204
11572TIP3    H256208   6.373   2.939  13.942  0.2156  0.5319  2.4038
11573TIP3   OH256209   1.580   4.764  13.085 -0.1749 -0.1562  0.7111
11573TIP3    H156210   1.555   4.844  13.039  1.1326 -0.9774 -1.5755
11573TIP3    H256211   1.505   4.705  13.073 -0.1470 -0.1032  0.2423
11574TIP3   OH256212   3.017   4.215   3.631  0.7775  0.4162 -0.0577
11574TIP3    H156213   2.957   4.219   3.705  0.3378  0.8156 -0.4262
11574TIP3    H256214   3.093   4.267   3.659  0.2395  1.2961 -0.2116
11575TIP3   OH256215   0.094   3.367   4.651 -0.0722  0.0463  0.3889
11575TIP3    H156216   0.174   3.419   4.655 -1.3715  2.2980 -1.1305
11575TIP3    H256217   0.034   3.409   4.713 -0.2334 -1.4483  1.3078
11576TIP3   OH256218   4.014   0.385   5.717  0.1244 -0.0823  0.0255
11576TIP3    H156219   4.056   0.300   5.713  0.0418 -0.2446  1.7494
11576TIP3    H256220   3.920   0.366   5.713  0.1095 -0.0672  0.2892
11577TIP3   OH256221   3.915   2.740   5.099  0.1778 -0.3279 -0.0912
11577TIP3    H156222   3.966   2.820   5.091 -0.0630 -0.3046 -1.5160
11577TIP3    H256223   3.946   2.683   5.029 -1.4888 -0.4437 -0.7915
11578TIP3   OH256224   4.159   0.793  12.824 -0.7422  0.1374  0.2853
11578TIP3    H156225   4.234   0.741  12.853 -1.7523 -0.3895  2.1403
11578TIP3    H256226   4.189   0.835  12.744  1.3640 -0.4325  0.6959
11579TIP3   OH256227   6.319   0.400   3.849  0.3530  0.0690  0.5270
11579TIP3    H156228   6.332   0.424   3.757 -2.1081  0.1612  0.1347
11579TIP3    H256229   6.365   0.317   3.858  1.9887  0.8459 -0.3337
11580TIP3   OH256230   1.752   3.574  14.020  0.2280  0.7860  0.1127
11580TIP3    H156231   1.699   3.495  14.030 -1.4712  1.5988 -1.6981
11580TIP3    H256232   1.841   3.541  14.004  0.1864 -0.6335  2.3190
11581TIP3   OH256233   1.001   2.158   2.449 -0.6367 -0.3746 -0.1157
11581TIP3    H156234   1.064   2.148   2.521  1.3408 -0.0797 -1.7264
11581TIP3    H256235   0.916   2.135   2.488  0.0764  1.3536  2.7302
11582TIP3   OH256236   0.589   0.449   0.172 -0.2051  0.4300  0.5121
11582TIP3    H156237   0.595   0.455   0.076 -0.0387 -2.7763  0.2253
11582TIP3    H256238   0.495   0.455   0.191 -0.3464 -0.2312  0.0250
11583TIP3   OH256239   0.664   4.905  13.426  0.5255 -0.1002  0.6152
11583TIP3    H156240   0.661   4.845  13.352 -0.9381 -0.0536  0.6111
11583TIP3    H256241   0.645   4.851  13.502 -3.6183  0.6641  0.3471
11584TIP3   OH256242   3.810   5.756   2.809  0.2781 -0.0834 -0.1412
11584TIP3    H156243   3.847   5.843   2.823 -0.6035  0.0460  1.6700
11584TIP3    H256244   3.774   5.759   2.721  1.6054  0.8626 -0.6781
11585TIP3   OH256245   5.896   4.686  12.305 -0.2063 -0.1629  0.3487
11585TIP3    H156246   5.901   4.646  12.218 -1.4776  0.6638 -0.1366
11585TIP3    H256247   5.828   4.636  12.351 -0.4878  0.2403  0.3829
11586TIP3   OH256248   5.955   0.173  13.289  0.6362 -0.5522  1.0365
11586TIP3    H156249   5.881   0.130  13.332 -2.0428  0.3214 -2.2698
11586TIP3    H256250   5.929   0.265  13.282  1.1071 -0.5419 -1.8024
11587TIP3   OH256251   3.527   1.633   3.072 -0.1981 -0.4646  1.0274
11587TIP3    H156252   3.515   1.542   3.097 -1.4598 -0.0815  1.8904
11587TIP3    H256253   3.440   1.673   3.083  0.5150  1.0312  1.4766
11588TIP3   OH256254   2.190   5.479   4.473  0.4950 -0.2425  0.0431
11588TIP3    H156255   2.150   5.408   4.523  1.8138 -1.8258 -1.0570
11588TIP3    H256256   2.154   5.559   4.512 -3.9671 -1.4517 -0.9831
11589TIP3   OH256257   6.727   6.581   5.523 -0.3748 -0.1808  0.1032
11589TIP3    H156258   6.753   6.671   5.505 -0.4182  0.2368  1.9326
11589TIP3    H256259   6.809   6.533   5.530 -0.3192 -0.1009  0.0081
11590TIP3   OH256260   1.480   2.298  14.535 -0.1287 -0.1756 -0.5872
11590TIP3    H156261   1.442   2.233  14.595 -1.0204  0.9962  0.1653
11590TIP3    H256262   1.489   2.377  14.588 -1.4292  1.0636 -2.1209
11591TIP3   OH256263   6.342   6.291   1.108  0.1358  0.1503  0.3659
11591TIP3    H156264   6.428   6.321   1.138  0.1786 -0.2514  0.6467
11591TIP3    H256265   6.354   6.198   1.088  0.3305  0.6005 -1.7491
11592TIP3   OH256266   3.667   4.300   3.702  0.0717  0.1833  0.6085
11592TIP3    H156267   3.719   4.349   3.638  0.5996 -1.0980  0.0275
11592TIP3    H256268   3.631   4.367   3.760  0.6725  1.2625 -0.2311
11593TIP3   OH256269   3.985   5.168  12.155 -0.0833  0.1453  0.1699
11593TIP3    H156270   4.074   5.189  12.185 -0.7185  3.4398  0.2062
11593TIP3    H256271   3.986   5.185  12.061 -0.9910  1.8300  0.4183
11594TIP3   OH256272   5.422   2.864  15.124 -0.1720  0.0599  0.3509
11594TIP3    H156273   5.462   2.943  15.088  0.4636 -0.6527 -0.5721
11594TIP3    H256274   5.363   2.896  15.192  2.0678  1.1799  1.9155
11595TIP3   OH256275   4.955   2.302   4.399 -0.8014  0.8512 -0.1373
11595TIP3    H156276   4.912   2.285   4.315 -0.6540  5.1037 -1.3290
11595TIP3    H256277   4.885   2.333   4.456 -0.8580 -1.7994  1.3926
11596TIP3   OH256278   1.926   0.172  14.059 -0.3537 -0.0102 -0.7611
11596TIP3    H156279   1.922   0.216  14.145  0.9528  0.3227 -0.8416
11596TIP3    H256280   1.893   0.238  13.997  0.6366  0.5064 -0.7541
11597TIP3   OH256281   5.125   0.334  13.338 -0.4528 -0.4149 -0.1596
11597TIP3    H156282   5.180   0.261  13.367  0.3509  0.4615  0.5939
11597TIP3    H256283   5.116   0.322  13.244  2.4771  0.3225 -0.6370
11598TIP3   OH256284   5.388   5.666   2.638  0.3196 -0.3306 -0.2383
11598TIP3    H156285   5.480   5.645   2.652 -0.2414 -2.1754  1.2244
11598TIP3    H256286   5.374   5.652   2.545  1.4820 -0.1124 -0.4635
11599TIP3   OH256287   4.313   0.676   5.398 -0.2580 -0.0000  0.1237
11599TIP3    H156288   4.280   0.592   5.431  0.4964 -0.7058 -0.8497
11599TIP3    H256289   4.405   0.660   5.379 -0.5215  0.5075 -1.7730
11600TIP3   OH256290   3.945   4.822  15.307 -0.1817  0.3651 -0.7872
11600TIP3    H156291   3.869   4.784  15.351  0.7196  1.3284  1.7903
11600TIP3    H256292   3.910   4.858  15.226 -2.6171  1.3013  0.5670
11601TIP3   OH256293   3.884   5.647   5.655  0.1759  0.2399  0.0669
11601TIP3    H156294   3.856   5.739   5.660  1.2349  0.5687  0.1129
11601TIP3    H256295   3.915   5.626   5.743  0.2943 -0.0471 -0.0406
11602TIP3   OH256296   0.532   6.511  17.064 -0.3589 -0.2323 -0.2049
11602TIP3    H156297   0.573   6.595  17.086 -0.5758 -0.3698  0.7381
11602TIP3    H256298   0.599   6.446  17.085 -1.2780 -0.5159  2.0498
11603TIP3   OH256299   5.629   4.208  11.006 -0.1213  0.3357  0.5646
11603TIP3    H156300   5.677   4.236  11.084  0.0166  1.1813  0.1924
11603TIP3    H256301   5.693   4.159  10.955  0.1228  0.7649  0.4505
11604TIP3   OH256302   6.322   6.372  11.487 -0.4213 -0.2948 -0.4508
11604TIP3    H156303   6.300   6.385  11.579 -2.5024 -0.6802 -0.8594
11604TIP3    H256304   6.290   6.284  11.466 -0.7934  0.1245 -1.7572
11605TIP3   OH256305   4.885   4.371   4.506 -0.3439  0.6294 -0.1492
11605TIP3    H156306   4.892   4.422   4.586 -1.5228  2.9091 -1.3935
11605TIP3    H256307   4.795   4.386   4.476 -0.1593 -0.7632 -1.5234
11606TIP3   OH256308   3.555   1.378  13.945 -0.5144  0.0884 -0.0746
11606TIP3    H156309   3.496   1.399  14.017  1.1873  2.7755  0.6778
11606TIP3    H256310   3.510   1.411  13.867 -0.5502  1.0002  0.3227
11607TIP3   OH256311   5.237   4.454  14.317 -0.4822  0.1150 -0.3133
11607TIP3    H156312   5.156   4.501  14.297 -0.3318  0.2461 -0.6130
11607TIP3    H256313   5.305   4.521  14.314 -0.5367  0.2832  1.3237
11608TIP3   OH256314   6.197   3.221  13.943 -0.2158 -0.0017 -0.4220
11608TIP3    H156315   6.149   3.278  13.883 -1.0864 -0.1590  0.1264
11608TIP3    H256316   6.224   3.278  14.015  2.5964  0.6779 -1.8481
11609TIP3   OH256317   0.963   1.816   6.089 -0.0651 -0.5640  0.2522
11609TIP3    H156318   0.897   1.878   6.058  0.5680  0.0549  0.1088
11609TIP3    H256319   0.941   1.733   6.046 -0.8135 -0.4018  0.3070
11610TIP3   OH256320   1.736   6.568  12.441  0.1686  0.4270  0.0775
11610TIP3    H156321   1.780   6.485  12.422 -0.0368  0.0526  1.1553
11610TIP3    H256322   1.646   6.555  12.410 -0.3806 -0.4663  1.8983
11611TIP3   OH256323   4.319   5.231  16.757 -0.0971 -0.1064 -0.2129
11611TIP3    H156324   4.266   5.176  16.699  0.0119 -0.7268  0.2585
11611TIP3    H256325   4.276   5.316  16.757  0.2986  0.1374 -1.7779
11612TIP3   OH256326   0.587   5.842   1.891  0.0965 -0.1590 -0.1019
11612TIP3    H156327   0.673   5.881   1.908 -0.0986  1.1873 -1.8977
11612TIP3    H256328   0.597   5.798   1.807 -0.6883 -0.9784  0.2176
11613TIP3   OH256329   1.954   1.110   4.349  0.5915  0.0580 -0.1259
11613TIP3    H156330   1.917   1.187   4.305 -0.4218 -0.6436 -0.5468
11613TIP3    H256331   2.039   1.097   4.307  0.5739  0.6858 -0.3679
11614TIP3   OH256332   1.907   6.439  12.229  0.0464 -0.2568 -0.0503
11614TIP3    H156333   1.837   6.393  12.183 -1.1317 -0.2912  1.6933
11614TIP3    H256334   1.975   6.373  12.243  0.1562 -0.3985 -1.1330
11615TIP3   OH256335   4.437   2.180  14.885 -0.0290  0.4037  0.0975
11615TIP3    H156336   4.342   2.183  14.898  0.0072  0.4381  0.3634
11615TIP3    H256337   4.455   2.247  14.819  0.1051  2.1450  1.8331
11616TIP3   OH256338   5.389   2.264  16.769  0.4186  0.1162  0.0078
11616TIP3    H156339   5.428   2.265  16.857 -0.7378  0.6302  0.5493
11616TIP3    H256340   5.398   2.354  16.738 -1.2484  0.5338  0.6043
11617TIP3   OH256341   0.171   5.840   2.695 -0.2963  0.2069 -0.0965
11617TIP3    H156342   0.143   5.759   2.652 -3.5784 -0.0280  2.1059
11617TIP3    H256343   0.216   5.810   2.774 -3.1646  0.3127  1.7223
11618TIP3   OH256344   3.405   4.407  11.867  0.2903 -0.4874  0.6964
11618TIP3    H156345   3.329   4.383  11.920 -2.0224  0.1649 -2.0904
11618TIP3    H256346   3.397   4.502  11.856  0.8559 -0.5705 -0.5664
11619TIP3   OH256347   5.190   4.637  12.977 -0.1452 -0.3130  0.4873
11619TIP3    H156348   5.155   4.684  13.052 -1.2466 -1.3513  0.6683
11619TIP3    H256349   5.173   4.544  12.997 -2.2919 -0.5563 -1.8375
11620TIP3   OH256350   1.099   6.593   1.228  1.1458  0.3919 -0.5223
11620TIP3    H156351   1.066   6.642   1.304  2.3758  0.5715 -0.0787
11620TIP3    H256352   1.180   6.553   1.259  0.5386 -1.3900 -1.0903
11621TIP3   OH256353   5.857   5.785   2.497  0.2859  0.4057  0.0052
11621TIP3    H156354   5.791   5.810   2.432 -0.1942 -1.3955 -0.2625
11621TIP3    H256355   5.815   5.716   2.548  1.3708  0.4290  0.9512
11622TIP3   OH256356   3.782   3.445   5.485 -0.2782 -0.5106  0.0818
11622TIP3    H156357   3.842   3.389   5.534 -0.4836 -0.9420 -0.1557
11622TIP3    H256358   3.731   3.490   5.553  0.6171  0.2102  0.2957
11623TIP3   OH256359   2.537   0.045  14.797  0.2250 -0.2776  0.8639
11623TIP3    H156360   2.573  -0.021  14.855 -1.0409  0.3045  2.3905
11623TIP3    H256361   2.446   0.055  14.825  0.2997  1.9024  0.5148
11624TIP3   OH256362   1.493   3.043   1.461 -0.2020  0.0387  0.5210
11624TIP3    H156363   1.482   3.106   1.532  2.3360  1.4566 -0.2241
11624TIP3    H256364   1.490   3.096   1.381  0.2977 -1.0283 -0.2255
11625TIP3   OH256365   1.312   6.081   2.699  0.2115  0.4734  0.0910
11625TIP3    H156366   1.343   6.166   2.668  0.6741 -0.6740 -3.0428
11625TIP3    H256367   1.356   6.068   2.783  1.1417  2.7284  0.0321
11626TIP3   OH256368   2.015   1.751   4.296  0.0559  0.6181  0.4675
11626TIP3    H156369   2.075   1.703   4.239  0.2318  0.8939  0.4187
11626TIP3    H256370   1.927   1.721   4.269  0.1346  0.7679  0.0304
11627TIP3   OH256371   4.940   2.032  12.207 -0.2106 -0.3212  0.1675
11627TIP3    H156372   4.976   2.117  12.230  0.4018 -0.5398  0.0389
11627TIP3    H256373   4.912   1.994  12.290  0.3431 -0.3679  0.3323
11628TIP3   OH256374   6.054   0.570   4.120  0.3504 -0.5519 -0.1884
11628TIP3    H156375   5.964   0.601   4.125  0.7160  0.5644 -0.2751
11628TIP3    H256376   6.080   0.583   4.029  0.9312  0.1391  0.0626
11629TIP3   OH256377   2.775   4.138  12.180 -0.3419 -0.7198 -0.5603
11629TIP3    H156378   2.826   4.218  12.167 -1.1222  0.0964  1.0635
11629TIP3    H256379   2.729   4.124  12.097  0.4707  0.0259 -1.1445
11630TIP3   OH256380   4.687   0.420   4.027  0.0728 -0.5449  0.2479
11630TIP3    H156381   4.610   0.367   4.048  0.5943 -1.4555 -0.0693
11630TIP3    H256382   4.759   0.356   4.023  0.9311  0.3382  0.9951
11631TIP3   OH256383   2.296   2.971   3.862 -0.2246 -0.4190 -0.0392
11631TIP3    H156384   2.280   2.913   3.936 -1.0239  0.1349  0.2396
11631TIP3    H256385   2.258   3.055   3.889 -1.8179 -0.5741 -1.6296
11632TIP3   OH256386   6.649   5.291   5.972 -0.4603  0.7746 -0.3689
11632TIP3    H156387   6.732   5.265   6.013 -0.7026  0.7488  0.1110
11632TIP3    H256388   6.624   5.372   6.017 -1.5807 -0.1425  0.7231
11633TIP3   OH256389   0.536   5.516  11.381  0.1929 -0.8873  0.1562
11633TIP3    H156390   0.540   5.611  11.374  0.6407 -0.7534  1.8006
11633TIP3    H256391   0.461   5.498  11.437  0.9336 -1.4063  1.0210
11634TIP3   OH256392   1.290   4.993  11.014  0.4327 -0.0419 -0.0840
11634TIP3    H156393   1.362   4.930  11.018 -1.4730 -2.3149  0.8658
11634TIP3    H256394   1.297   5.042  11.095  0.9915 -0.1229 -0.0762
11635TIP3   OH256395   1.728   5.961  13.596  0.5110  0.4423  0.3189
11635TIP3    H156396   1.746   6.053  13.580  0.3522  0.0660 -2.5684
11635TIP3    H256397   1.793   5.914  13.544  0.7255 -1.1083  1.8918
11636TIP3   OH256398   4.176   1.339   2.886  0.2600  0.7892  0.0274
11636TIP3    H156399   4.264   1.337   2.850  0.8315  0.1798  1.3936
11636TIP3    H256400   4.122   1.293   2.821  0.9437  1.0897 -0.7731
11637TIP3   OH256401   3.894   0.189  14.926 -0.4484  0.2484 -0.1957
11637TIP3    H156402   3.826   0.179  14.858  0.4935 -0.4745 -1.0598
11637TIP3    H256403   3.976   0.190  14.877  0.3714 -1.8403  1.0216
11638TIP3   OH256404   3.304   2.391   4.594  0.5166 -0.2837 -0.3924
11638TIP3    H156405   3.272   2.461   4.650  0.6221 -0.0577 -0.6103
11638TIP3    H256406   3.399   2.392   4.607  0.3219 -2.3010  1.8366
11639TIP3   OH256407   6.569   6.761  13.055 -0.0766 -0.0588 -0.0618
11639TIP3    H156408   6.637   6.711  13.010 -1.5130 -1.9800 -0.2002
11639TIP3    H256409   6.561   6.842  13.004  3.4872  1.2259  1.1512
11640TIP3   OH256410   5.066   5.994   4.927  0.1001 -0.2397 -0.2642
11640TIP3    H156411   5.033   5.905   4.914 -3.2909  0.9891 -1.0028
11640TIP3    H256412   5.046   6.039   4.845  1.1078  1.4278  0.3551
11641TIP3   OH256413   2.347   0.473  12.612 -0.1494 -0.0630 -0.6114
11641TIP3    H156414   2.403   0.475  12.534  0.9033  0.2764  0.1231
11641TIP3    H256415   2.380   0.399  12.663 -0.0739  0.4011  0.0310
11642TIP3   OH256416   1.131   4.112   1.369  0.2130 -0.4267  0.1654
11642TIP3    H156417   1.134   4.017   1.381  0.8968 -0.4208  0.0910
11642TIP3    H256418   1.152   4.147   1.455  2.0794 -0.3650 -0.2815
11643TIP3   OH256419   0.863   5.538   2.307  0.2007  0.0578 -0.0413
11643TIP3    H156420   0.847   5.571   2.218  0.0332  0.1645  0.0264
11643TIP3    H256421   0.921   5.463   2.295 -0.1182 -0.1536 -0.2724
11644TIP3   OH256422   2.018   3.928   0.830  0.2277 -0.3600 -0.4303
11644TIP3    H156423   1.934   3.886   0.848 -0.4869  0.4092 -1.7823
11644TIP3    H256424   2.002   3.980   0.752  1.7942  0.3419 -0.3200
11645TIP3   OH256425   0.083   6.437   4.926 -0.4950 -0.8359 -0.2970
11645TIP3    H156426   0.173   6.458   4.900 -0.9072 -1.0360 -2.0217
11645TIP3    H256427   0.090   6.353   4.971  0.3539 -0.1285  0.9478
11646TIP3   OH256428   0.043   0.919   2.059  0.3322  0.2234 -0.2686
11646TIP3    H156429   0.128   0.908   2.102 -0.6166 -1.1169  1.3748
11646TIP3    H256430   0.006   0.998   2.098  0.5147  0.3913 -0.4370
11647TIP3   OH256431   3.141   5.737   1.974 -0.0039 -0.1492  0.0727
11647TIP3    H156432   3.204   5.777   2.034 -0.0132 -1.5289  1.0580
11647TIP3    H256433   3.056   5.760   2.010 -0.0426  0.2159 -0.2425
11648TIP3   OH256434   0.823   4.840   4.129 -0.4052 -0.7476  0.0614
11648TIP3    H156435   0.836   4.756   4.084 -1.5636 -0.2180 -1.3173
11648TIP3    H256436   0.771   4.818   4.206  0.0492 -1.4083  0.1929
11649TIP3   OH256437   5.471   2.801  10.611  0.4346  0.0329  0.2759
11649TIP3    H156438   5.438   2.882  10.649 -1.1439 -1.6439  2.7541
11649TIP3    H256439   5.430   2.797  10.524  0.9863  2.0632 -0.1361
11650TIP3   OH256440   5.867   2.828   2.257 -0.0978  0.2153  0.4302
11650TIP3    H156441   5.785   2.875   2.246 -1.3673 -1.4063  2.3372
11650TIP3    H256442   5.911   2.835   2.171 -2.0125  1.4544 -0.5002
11651TIP3   OH256443   3.826   5.157  12.376  0.3200 -0.5753 -0.8190
11651TIP3    H156444   3.740   5.117  12.367 -0.5118  1.1374 -0.8329
11651TIP3    H256445   3.872   5.135  12.295 -0.5595 -0.4570 -1.3585
11652TIP3   OH256446   5.168   0.712   4.995 -1.0085  0.1643 -0.5386
11652TIP3    H156447   5.235   0.758   4.945 -0.2173  0.5367  0.8066
11652TIP3    H256448   5.178   0.620   4.971  0.3602  0.1426  0.0275
11653TIP3   OH256449   4.923   4.728  11.202 -0.3494 -0.1799  0.6918
11653TIP3    H156450   4.842   4.693  11.240 -0.3358 -2.5687 -1.2627
11653TIP3    H256451   4.967   4.651  11.165  2.4121  1.1886  0.8981
11654TIP3   OH256452   3.668   2.669   4.887  0.2091 -0.2911 -0.0367
11654TIP3    H156453   3.641   2.595   4.941  0.0193 -0.6236 -0.5753
11654TIP3    H256454   3.764   2.662   4.883  0.2865  0.1896  0.8881
11655TIP3   OH256455   6.354   5.243   4.015 -0.2604  0.2860  0.2050
11655TIP3    H156456   6.417   5.281   4.076  0.8730  0.2335 -0.8903
11655TIP3    H256457   6.396   5.162   3.986 -0.9086  0.1764 -0.4383
11656TIP3   OH256458   2.192   5.185  11.557 -0.0597 -0.5733  0.3782
11656TIP3    H156459   2.177   5.279  11.556  1.5482 -0.2973  0.5472
11656TIP3    H256460   2.107   5.147  11.533 -0.3760  0.9482 -1.0511
11657TIP3   OH256461   5.914   0.550  11.991 -0.1731  0.0950  0.6895
11657TIP3    H156462   5.879   0.463  12.008 -0.2959  0.0157  0.0681
11657TIP3    H256463   5.860   0.608  12.045 -0.5335 -0.1469  0.5946
11658TIP3   OH256464   0.080   5.218   0.374  0.2181  0.7398 -0.4359
11658TIP3    H156465   0.105   5.134   0.333  0.6569  0.5598  0.1937
11658TIP3    H256466   0.037   5.193   0.455 -1.3009  1.0790 -1.1021
11659TIP3   OH256467   5.473   6.203  12.364 -0.5014  0.0682  0.3653
11659TIP3    H156468   5.381   6.223  12.345  0.0373  1.7282 -0.7258
11659TIP3    H256469   5.510   6.285  12.394  0.3136 -0.9471  2.3065
11660TIP3   OH256470   6.126   4.594   2.408 -0.6703 -0.1426  0.0997
11660TIP3    H156471   6.063   4.593   2.481 -0.4232 -0.6227  0.3105
11660TIP3    H256472   6.073   4.619   2.332 -0.7452  1.3420  0.5969
11661TIP3   OH256473   2.789   6.585  16.304 -0.2487 -0.3415 -0.6233
11661TIP3    H156474   2.718   6.539  16.349  0.0064 -0.9484 -0.8354
11661TIP3    H256475   2.841   6.515  16.263  1.1330  0.0038  0.4635
11662TIP3   OH256476   6.383   2.974   4.538  0.0757 -0.4510 -0.6944
11662TIP3    H156477   6.372   2.903   4.602  0.3260 -1.0967 -1.3405
11662TIP3    H256478   6.431   2.932   4.466 -0.6588  0.1202 -1.5315
11663TIP3   OH256479   5.913   0.054  12.288  0.2936  0.3989 -0.1146
11663TIP3    H156480   5.930  -0.037  12.262 -0.0108  0.4202 -0.3946
11663TIP3    H256481   5.925   0.104  12.207 -0.4839  0.4882 -0.1752
11664TIP3   OH256482   4.073   3.040   2.748 -0.4087  0.1203 -0.2349
11664TIP3    H156483   3.991   3.089   2.739 -0.4543 -0.2707 -2.4876
11664TIP3    H256484   4.046   2.954   2.781 -0.6003  0.7127  1.2591
11665TIP3   OH256485   3.300   4.331   5.524  0.4238  0.3643 -0.0636
11665TIP3    H156486   3.384   4.297   5.552 -0.1272 -1.1242 -0.1000
11665TIP3    H256487   3.265   4.376   5.600  1.2297  0.9445 -0.0367
11666TIP3   OH256488   5.672   3.032   2.570 -0.3967  0.4181 -0.2811
11666TIP3    H156489   5.676   2.938   2.591  1.3458  0.5184 -0.0269
11666TIP3    H256490   5.691   3.036   2.477  0.0772  0.5625 -0.1774
11667TIP3   OH256491   3.322   6.006   5.358 -0.1884 -0.2283 -0.0880
11667TIP3    H156492   3.368   6.089   5.345 -0.1082 -0.2369  0.1329
11667TIP3    H256493   3.387   5.950   5.401 -0.0858 -0.5621 -0.6772
11668TIP3   OH256494   1.742   6.602   2.913  0.1246  0.7620  0.2935
11668TIP3    H156495   1.723   6.688   2.952 -0.4366  0.2968  1.0675
11668TIP3    H256496   1.721   6.539   2.982  0.4997 -0.0064 -0.2794
11669TIP3   OH256497   3.110   4.491   2.881  0.6053  0.7516 -0.0445
11669TIP3    H156498   3.112   4.408   2.928  1.3740  0.4854 -0.5427
11669TIP3    H256499   3.046   4.544   2.929 -0.6847 -0.4802 -0.3435
11670TIP3   OH256500   1.938   2.356  16.590 -0.3269 -0.3526 -0.2335
11670TIP3    H156501   1.955   2.262  16.584  2.0361  0.0386 -0.4866
11670TIP3    H256502   1.879   2.365  16.665  0.3352 -1.9183  0.5173
11671TIP3   OH256503   2.889   6.180  17.095 -0.1496  0.5876  0.0538
11671TIP3    H156504   2.936   6.097  17.101  0.6724  1.0817  0.6579
11671TIP3    H256505   2.952   6.241  17.058 -0.9744  0.7923 -1.0445
11672TIP3   OH256506   5.273   2.288   0.244 -0.1383 -0.1506  0.2860
11672TIP3    H156507   5.256   2.196   0.222  0.7791  0.4632 -3.8518
11672TIP3    H256508   5.363   2.287   0.278 -0.0295 -0.7637  0.0066
11673TIP3   OH256509   0.427   3.529   5.188 -0.4029 -0.0360 -0.5508
11673TIP3    H156510   0.450   3.476   5.264  1.1703  1.0216 -0.2387
11673TIP3    H256511   0.461   3.481   5.113 -0.7507 -0.4254 -0.4581
11674TIP3   OH256512   6.601   3.489  13.719 -0.2049  0.2170  0.1798
11674TIP3    H156513   6.551   3.478  13.800  0.9837 -2.4849  0.6756
11674TIP3    H256514   6.544   3.453  13.651 -0.4138  0.6583  0.1164
11675TIP3   OH256515   1.151   0.980  16.065 -0.0351  0.3931  0.7983
11675TIP3    H156516   1.188   0.988  16.153  0.0661  1.0831  0.6944
11675TIP3    H256517   1.120   1.068  16.043  0.1229  0.2770  0.0662
11676TIP3   OH256518   2.242   2.681  10.828  0.2149 -0.2934 -0.7764
11676TIP3    H156519   2.325   2.635  10.820 -0.9844 -2.8866  0.2985
11676TIP3    H256520   2.212   2.692  10.738  1.6202  0.5754 -1.1673
11677TIP3   OH256521   5.485   5.772   6.108 -0.2735  0.1509  0.3084
11677TIP3    H156522   5.470   5.718   6.185  1.1591  1.7883  1.8249
11677TIP3    H256523   5.458   5.860   6.134  0.8514  0.8637 -0.8095
11678TIP3   OH256524   2.624   0.218  13.637 -0.6327  0.4295  0.9275
11678TIP3    H156525   2.559   0.148  13.639 -2.7292  2.2599  0.8530
11678TIP3    H256526   2.687   0.195  13.706 -1.7518 -1.0393  1.5109
11679TIP3   OH256527   1.695   0.523   0.679  0.2018 -0.1004 -0.1034
11679TIP3    H156528   1.611   0.558   0.648 -0.3553  1.8528  3.1328
11679TIP3    H256529   1.757   0.594   0.664  0.7958 -0.6904 -0.4682
11680TIP3   OH256530   1.460   2.531  15.582  0.6394 -0.7900  1.0634
11680TIP3    H156531   1.532   2.527  15.518  1.9575 -0.7906  2.4750
11680TIP3    H256532   1.438   2.440  15.599  1.8828 -0.8843  2.2904
11681TIP3   OH256533   0.397   2.320   4.325 -0.3014  0.0864  0.2607
11681TIP3    H156534   0.322   2.374   4.348  1.0188  1.7989  0.7940
11681TIP3    H256535   0.380   2.236   4.366 -0.7411  1.2589  2.6397
11682TIP3   OH256536   6.001   6.125  12.226 -0.6518 -0.1424  0.1861
11682TIP3    H156537   5.978   6.153  12.314 -0.1107 -2.3965  1.1114
11682TIP3    H256538   6.072   6.062  12.239  0.7923  0.9011 -2.0173
11683TIP3   OH256539   1.558   1.047   4.485 -0.3829 -0.4874 -0.3710
11683TIP3    H156540   1.592   1.048   4.575  1.2477  0.3758 -0.9492
11683TIP3    H256541   1.626   1.002   4.435 -1.2963 -0.9990 -1.1832
11684TIP3   OH256542   6.180   0.692  15.473 -0.0106 -0.3326 -0.1080
11684TIP3    H156543   6.271   0.680  15.501  0.0623 -0.2446 -0.3051
11684TIP3    H256544   6.168   0.787  15.471  0.4701 -0.2838 -1.9118
11685TIP3   OH256545   2.862   6.508   3.412 -0.6254 -0.1845 -0.2865
11685TIP3    H156546   2.846   6.428   3.462  1.2260 -0.7808 -0.5906
11685TIP3    H256547   2.900   6.478   3.329  1.3042  1.0281  0.1021
11686TIP3   OH256548   5.347   2.750   2.725  0.2541  0.2960  0.1152
11686TIP3    H156549   5.254   2.741   2.702  0.4090 -1.6785  0.0749
11686TIP3    H256550   5.394   2.722   2.647  0.9170  1.4194  0.0915
11687TIP3   OH256551   3.345   3.530   1.448 -0.1718  0.0630 -0.6372
11687TIP3    H156552   3.400   3.607   1.429 -1.2245  1.4396  1.4764
11687TIP3    H256553   3.384   3.493   1.527  0.2822 -1.6158 -1.5993
11688TIP3   OH256554   5.325   1.711  10.274  0.1795  0.1950 -0.6879
11688TIP3    H156555   5.355   1.621  10.259 -0.2105 -0.1418  0.3866
11688TIP3    H256556   5.285   1.708  10.361  2.1724  1.9054  0.3787
11689TIP3   OH256557   5.360   2.290   3.669 -0.0150 -0.0061 -0.0363
11689TIP3    H156558   5.350   2.224   3.738 -1.9661 -0.1739 -0.3990
11689TIP3    H256559   5.271   2.325   3.657  0.8878  2.4540 -0.1146
11690TIP3   OH256560   5.164   5.729   6.419  0.5070 -0.2183  0.0381
11690TIP3    H156561   5.232   5.667   6.393  0.4366  0.2474 -1.3094
11690TIP3    H256562   5.200   5.773   6.497  1.5439 -0.3226 -0.3728
11691TIP3   OH256563   3.856   6.327  14.597 -0.0538  0.1627 -0.2327
11691TIP3    H156564   3.776   6.276  14.585  0.1017 -0.7130  2.0370
11691TIP3    H256565   3.925   6.262  14.604  0.8309  0.8955 -1.6180
11692TIP3   OH256566   1.651   0.036  16.964  0.5727 -0.8037 -0.0757
11692TIP3    H156567   1.691   0.004  16.884 -0.6092  0.7540 -1.3689
11692TIP3    H256568   1.582   0.096  16.934 -0.4858 -0.8422  2.0904
11693TIP3   OH256569   2.627   6.306  10.547 -0.6673  0.8176 -0.4701
11693TIP3    H156570   2.615   6.333  10.456  1.3704 -1.8479 -1.6792
11693TIP3    H256571   2.719   6.277  10.552 -1.7748 -3.2259  1.1349
11694TIP3   OH256572   5.189   4.727   2.890 -0.6711  0.1188  0.1872
11694TIP3    H156573   5.139   4.673   2.952 -2.4035 -0.0128 -1.2228
11694TIP3    H256574   5.249   4.666   2.848  0.6248  0.2393  1.7936
11695TIP3   OH256575   0.907   1.920  11.578 -0.4926 -0.0513  0.1312
11695TIP3    H156576   0.951   1.854  11.633  0.6356  0.2503 -0.3790
11695TIP3    H256577   0.816   1.919  11.608 -0.0498 -0.3655  1.5448
11696TIP3   OH256578   6.465   3.523  13.947 -0.2799  0.1247 -0.0166
11696TIP3    H156579   6.387   3.574  13.922 -0.3914 -0.8377 -1.8181
11696TIP3    H256580   6.435   3.463  14.015 -0.6533  0.9881  0.5976
11697TIP3   OH256581   3.541   4.658  14.478  0.0584 -0.4761 -0.0649
11697TIP3    H156582   3.466   4.600  14.485 -0.1631 -0.0158  2.1998
11697TIP3    H256583   3.505   4.745  14.496  0.6288  0.2034 -2.0022
11698TIP3   OH256584   6.295   3.070  11.117 -0.0302  0.1534 -0.0761
11698TIP3    H156585   6.311   3.159  11.084  0.6467 -0.5964 -1.8824
11698TIP3    H256586   6.382   3.031  11.127 -0.3545 -0.6023 -0.1381
11699TIP3   OH256587   1.355   1.937   4.886  0.2381 -0.0131  0.6684
11699TIP3    H156588   1.435   1.897   4.919 -0.1873 -0.3671  1.2960
11699TIP3    H256589   1.383   2.018   4.844  0.9455 -0.2467  0.6811
11700TIP3   OH256590   4.937   2.091   3.133 -0.1074  0.3965  0.4440
11700TIP3    H156591   4.948   2.093   3.038  0.9064 -0.4937  0.5259
11700TIP3    H256592   5.022   2.062   3.167  0.2140  2.5947  1.7696
11701TIP3   OH256593   3.412   6.519  14.953  0.1814  0.8344  0.7614
11701TIP3    H156594   3.357   6.581  15.000  2.3639  1.8208  2.2077
11701TIP3    H256595   3.434   6.452  15.019  0.1327  0.0744  0.0198
11702TIP3   OH256596   4.460   4.527  12.810  0.7376 -0.4640  0.0207
11702TIP3    H156597   4.466   4.622  12.820 -2.0181 -0.2377  0.4465
11702TIP3    H256598   4.549   4.495  12.824  1.7982  2.0593 -0.4631
11703TIP3   OH256599   6.099   4.139   4.870 -0.0468  0.1438  0.2904
11703TIP3    H156600   6.088   4.049   4.902 -0.9218 -0.1034 -0.6645
11703TIP3    H256601   6.122   4.189   4.948 -2.1768 -0.4132  1.3575
11704TIP3   OH256602   3.667   0.672   5.203 -0.1968  0.7114 -0.0647
11704TIP3    H156603   3.656   0.696   5.112 -2.3569  0.1319  0.0002
11704TIP3    H256604   3.646   0.579   5.206  0.5278  0.5631  0.9179
11705TIP3   OH256605   1.581   3.927  15.275 -0.5520 -0.3816 -0.2317
11705TIP3    H156606   1.515   3.958  15.337 -0.5669 -0.9667  0.0533
11705TIP3    H256607   1.662   3.971  15.302 -0.7237 -0.0316 -0.2854
11706TIP3   OH256608   4.458   6.431  16.156 -0.0104 -0.1731  0.3006
11706TIP3    H156609   4.395   6.471  16.216 -1.1113 -2.5449  0.8609
11706TIP3    H256610   4.541   6.476  16.174 -0.3965 -0.4990  3.3316
11707TIP3   OH256611   4.955   3.066  15.300 -0.1041 -0.4034  0.2146
11707TIP3    H156612   4.900   3.023  15.366  0.0681  0.6326  1.0492
11707TIP3    H256613   4.917   3.039  15.216 -0.1692 -1.9495  0.7087
11708TIP3   OH256614   5.142   2.983   2.243  0.1938 -0.0502  1.0029
11708TIP3    H156615   5.053   2.949   2.240  0.3814 -0.4701 -0.6250
11708TIP3    H256616   5.198   2.906   2.234  0.7064  0.2936  1.1652
11709TIP3   OH256617   4.961   1.025  12.609 -0.3780  0.2373  0.0004
11709TIP3    H156618   4.872   0.991  12.620 -0.6417  0.8223 -0.2454
11709TIP3    H256619   4.955   1.116  12.637  0.0105  0.4379 -0.5445
11710TIP3   OH256620   5.967   2.112  12.034  0.0123  0.7718 -0.1283
11710TIP3    H156621   6.023   2.046  12.074 -0.4468  0.9856  0.8838
11710TIP3    H256622   6.028   2.167  11.984  0.3456 -0.6736 -1.3931
11711TIP3   OH256623   0.673   5.543   1.042 -0.1452 -0.0304 -0.0471
11711TIP3    H156624   0.645   5.630   1.072 -0.8818 -0.1682 -0.3123
11711TIP3    H256625   0.766   5.539   1.063  0.0822  1.1359 -0.7464
11712TIP3   OH256626   4.339   2.864   5.992 -0.1275  0.0712 -0.2315
11712TIP3    H156627   4.278   2.938   6.005  1.1359  0.9407  0.9966
11712TIP3    H256628   4.285   2.786   6.006 -1.0350  0.8087  0.5213
11713TIP3   OH256629   6.641   1.859   4.219 -0.1792 -0.2571  0.5146
11713TIP3    H156630   6.671   1.827   4.133  0.1049 -2.2143  1.2807
11713TIP3    H256631   6.592   1.785   4.255 -1.1754  0.9144  1.6184
11714TIP3   OH256632   2.871   0.041   2.605  0.1577 -0.2386  0.0116
11714TIP3    H156633   2.887  -0.032   2.545  0.3029  0.4521 -0.8099
11714TIP3    H256634   2.862   0.117   2.548 -1.1569  0.2091  0.7686
11715TIP3   OH256635   3.217   3.676  13.660  0.5378  0.1641  0.1082
11715TIP3    H156636   3.216   3.772  13.654 -0.8277  0.2608  1.2584
11715TIP3    H256637   3.309   3.654  13.672  0.7183  1.4764  1.4090
11716TIP3   OH256638   2.465   6.726  16.392 -0.0113  0.3044 -0.4225
11716TIP3    H156639   2.432   6.708  16.480  0.1866 -0.3560 -0.4757
11716TIP3    H256640   2.438   6.650  16.340  0.9417  0.0863 -0.6314
11717TIP3   OH256641   4.835   0.134  16.023 -0.5717 -0.2416  0.2238
11717TIP3    H156642   4.930   0.132  16.016 -0.6298  0.8852 -1.4915
11717TIP3    H256643   4.818   0.189  16.100  0.2180  1.9198 -1.0449
11718TIP3   OH256644   0.121   6.032  14.335  0.3255  0.2236  0.0980
11718TIP3    H156645   0.213   6.047  14.359  1.0935 -0.7020 -2.0103
11718TIP3    H256646   0.119   5.940  14.306 -0.9466  0.5973 -1.0993
11719TIP3   OH256647   4.121   1.420  16.205  0.4490 -0.0568 -0.1387
11719TIP3    H156648   4.077   1.335  16.205 -0.3228  0.2670 -2.4847
11719TIP3    H256649   4.208   1.402  16.168  1.5309 -0.2791  2.2782
11720TIP3   OH256650   5.655   6.398  14.716  0.1576 -0.1948 -0.1503
11720TIP3    H156651   5.663   6.479  14.765 -0.2818  0.8740 -1.7615
11720TIP3    H256652   5.745   6.377  14.688  0.4613 -0.9992  1.3286
11721TIP3   OH256653   1.278   5.692   2.883  0.1411 -0.1320  0.0806
11721TIP3    H156654   1.336   5.659   2.815  0.4946 -0.2806  0.4522
11721TIP3    H256655   1.334   5.701   2.960 -0.3898 -0.5664  0.5248
11722TIP3   OH256656   1.879   4.625   6.229  0.2626 -0.4200  0.1156
11722TIP3    H156657   1.847   4.704   6.273 -0.2344  0.0542 -1.0251
11722TIP3    H256658   1.970   4.645   6.207  0.0300  0.0231 -0.5088
11723TIP3   OH256659   2.975   4.675   1.963  0.0928  0.0161 -0.0509
11723TIP3    H156660   3.028   4.598   1.982  1.8534  0.9958 -0.7536
11723TIP3    H256661   3.026   4.723   1.898 -1.7626  0.9352 -0.8981
11724TIP3   OH256662   1.230   4.158  17.008  0.1532  0.1874 -0.6462
11724TIP3    H156663   1.324   4.143  17.003  0.0999 -0.4741  0.0911
11724TIP3    H256664   1.191   4.086  16.959 -0.0077 -0.4277  0.3521
11725TIP3   OH256665   3.488   2.933  11.390  0.7130  0.3539 -0.3927
11725TIP3    H156666   3.539   3.012  11.402 -1.0623  1.7188 -1.3330
11725TIP3    H256667   3.468   2.931  11.296 -1.8348  0.5194  0.0704
11726TIP3   OH256668   6.056   3.970  15.314 -0.3727  0.1955  0.4370
11726TIP3    H156669   6.003   3.919  15.252  0.6777  0.5280 -0.7800
11726TIP3    H256670   6.105   3.904  15.363 -0.4194 -0.0396  0.1708
11727TIP3   OH256671   4.683   5.071  16.155  0.1168  0.5116 -0.7957
11727TIP3    H156672   4.611   5.025  16.112 -1.9889  2.0240  0.8582
11727TIP3    H256673   4.727   5.118  16.085  2.1394 -3.4403 -2.5004
11728TIP3   OH256674   2.604   6.150  15.151 -0.0269 -0.3431 -0.0670
11728TIP3    H156675   2.520   6.142  15.196  0.2396 -0.6907  0.3701
11728TIP3    H256676   2.594   6.098  15.071 -0.3779 -0.0115 -0.2464
11729TIP3   OH256677   1.706   0.417  10.838  0.5791 -0.3885  0.7790
11729TIP3    H156678   1.744   0.388  10.921  0.8816 -0.6046  0.5671
11729TIP3    H256679   1.758   0.373  10.771  0.5463  0.0477  0.4662
11730TIP3   OH256680   5.291   6.132  10.817  0.2607  0.1642 -0.4326
11730TIP3    H156681   5.231   6.071  10.775 -1.6653  0.7020  1.3718
11730TIP3    H256682   5.293   6.208  10.758 -1.3000  0.3603 -0.2671
11731TIP3   OH256683   3.481   0.673  10.889 -0.2089  0.5027  0.3415
11731TIP3    H156684   3.563   0.701  10.847 -1.2682  1.0984 -1.4596
11731TIP3    H256685   3.454   0.748  10.942  0.2195  0.4322  0.6668
11732TIP3   OH256686   3.077   0.916   1.492  0.1173 -0.1417 -0.4147
11732TIP3    H156687   3.034   0.947   1.571  0.1027 -1.2496  0.0246
11732TIP3    H256688   3.008   0.914   1.426  0.6725  3.5469 -1.3297
11733TIP3   OH256689   1.608   3.280  14.525 -0.1222  0.0316  0.6832
11733TIP3    H156690   1.523   3.237  14.516  0.0391  0.1080 -2.2287
11733TIP3    H256691   1.598   3.363  14.479  1.3558  0.3094  0.7964
11734TIP3   OH256692   2.963   3.078  12.763 -0.2579  0.0342  0.1488
11734TIP3    H156693   2.932   3.165  12.738 -0.2784 -0.6674 -2.5032
11734TIP3    H256694   3.058   3.087  12.768 -0.2025  0.0896 -0.7840
11735TIP3   OH256695   5.185   6.361  11.859 -0.0128 -0.4469  0.2758
11735TIP3    H156696   5.237   6.406  11.793 -0.0562  0.2970  0.7486
11735TIP3    H256697   5.106   6.333  11.812 -0.4682  0.8845  0.2250
11736TIP3   OH256698   1.994   3.208  16.775 -0.3838  0.1731  0.2411
11736TIP3    H156699   2.080   3.173  16.798 -1.1500 -1.5905  0.5342
11736TIP3    H256700   2.005   3.241  16.686  0.5637 -0.1215  0.2376
11737TIP3   OH256701   2.024   1.969   1.115  0.7792  0.1693  0.5594
11737TIP3    H156702   2.078   1.982   1.193  1.8465 -2.3629  0.3461
11737TIP3    H256703   2.086   1.975   1.042 -0.1685  2.2732 -0.1696
11738TIP3   OH256704   1.316   0.203  17.150  0.4506  0.0747  0.1074
11738TIP3    H156705   1.293   0.273  17.211 -0.9488 -1.1425  1.0794
11738TIP3    H256706   1.389   0.237  17.099 -0.2899  2.2807  0.4269
11739TIP3   OH256707   4.388   1.554  16.885 -0.5861 -0.5860  0.3689
11739TIP3    H156708   4.369   1.512  16.801  0.1131 -1.3538  0.5757
11739TIP3    H256709   4.471   1.514  16.913  1.0550  2.1559 -0.2311
11740TIP3   OH256710   1.284   1.470   5.040 -0.4384 -0.1588  0.1542
11740TIP3    H156711   1.218   1.490   4.973  0.4374  1.4689 -0.2991
11740TIP3    H256712   1.348   1.414   4.995 -1.3776 -1.6011  0.5478
11741TIP3   OH256713   2.122   1.492  14.584 -0.2461  0.3050 -0.2889
11741TIP3    H156714   2.193   1.467  14.524 -1.2669 -3.5638 -0.1680
11741TIP3    H256715   2.043   1.482  14.532 -0.8967  3.4319 -0.0761
11742TIP3   OH256716   0.528   4.695  13.582 -0.5242 -0.5259  0.1171
11742TIP3    H156717   0.470   4.620  13.566 -0.5210 -0.2508 -1.3043
11742TIP3    H256718   0.470   4.771  13.580 -0.2658 -0.3364 -0.2678
11743TIP3   OH256719   0.282   1.127  17.135  0.0353  0.0506  0.7430
11743TIP3    H156720   0.266   1.050  17.081  2.3135  0.3326 -0.4491
11743TIP3    H256721   0.368   1.159  17.107 -0.5787  2.7208  1.5698
11744TIP3   OH256722   1.113   5.962   5.230  0.3735 -0.3473  0.1664
11744TIP3    H156723   1.098   5.868   5.246  0.4005 -0.1933  1.2057
11744TIP3    H256724   1.168   5.989   5.303 -0.7350  0.7674  0.6184
11745TIP3   OH256725   3.957   2.621   4.856 -0.0706  0.3606  0.6933
11745TIP3    H156726   3.952   2.588   4.766 -0.2543  0.1698  0.7732
11745TIP3    H256727   3.996   2.708   4.847 -1.8121  1.1310  0.2508
11746TIP3   OH256728   0.335   5.314   4.487  0.3183 -0.3408 -0.6821
11746TIP3    H156729   0.418   5.331   4.441  0.5675 -1.2683 -0.5994
11746TIP3    H256730   0.274   5.377   4.450  0.7998 -0.3279 -1.4872
11747TIP3   OH256731   3.189   2.567   4.784 -0.1573  0.6407  0.3892
11747TIP3    H156732   3.115   2.511   4.808  0.9304 -1.1284 -0.1640
11747TIP3    H256733   3.152   2.655   4.780 -2.2203 -0.1745  0.1419
11748TIP3   OH256734   0.746   5.129   3.177 -0.5330 -0.6054  1.2370
11748TIP3    H156735   0.713   5.213   3.208 -1.5378 -1.8126  3.6394
11748TIP3    H256736   0.696   5.112   3.096  0.0516  1.2878  0.4424
11749TIP3   OH256737   0.928   5.828  11.572  0.5525 -0.0095 -0.2908
11749TIP3    H156738   0.908   5.920  11.590 -2.0276 -0.3784 -0.9225
11749TIP3    H256739   0.934   5.823  11.477 -2.0248 -0.8868 -0.4900
11750TIP3   OH256740   4.417   2.610  14.366  0.3522  0.0959  0.1954
11750TIP3    H156741   4.356   2.579  14.299 -0.7344  0.9357  0.7634
11750TIP3    H256742   4.399   2.556  14.442  1.7047 -0.9715 -0.2124
11751TIP3   OH256743   4.664   1.795   1.840  0.2309  0.2749  0.0676
11751TIP3    H156744   4.709   1.848   1.905 -1.1446  3.1667 -1.1675
11751TIP3    H256745   4.574   1.791   1.870 -0.1527  0.5659 -1.0085
11752TIP3   OH256746   1.435   0.639  14.002  0.1828 -0.2246 -0.3067
11752TIP3    H156747   1.371   0.569  13.996  0.9742 -1.0201  0.2010
11752TIP3    H256748   1.498   0.619  13.933  0.4665 -0.0735 -0.0940
11753TIP3   OH256749   5.171   0.843  14.123 -0.4654 -0.4834  0.0602
11753TIP3    H156750   5.207   0.921  14.082 -1.3806  0.8926  1.7267
11753TIP3    H256751   5.247   0.794  14.155  0.1035 -0.1811 -0.8277
11754TIP3   OH256752   0.336   6.206   1.738  0.1189 -0.2856 -0.1749
11754TIP3    H156753   0.259   6.232   1.687 -0.6021 -2.1703 -0.1526
11754TIP3    H256754   0.358   6.282   1.790 -1.6081  0.3720 -0.3454
11755TIP3   OH256755   6.738   1.140   2.174 -0.0138  0.1643  0.1478
11755TIP3    H156756   6.690   1.099   2.246  1.4170 -1.4449  0.2715
11755TIP3    H256757   6.702   1.228   2.168 -0.3420  0.2902  2.6855
11756TIP3   OH256758   0.156   1.462   4.177 -0.1893  0.5133  0.1876
11756TIP3    H156759   0.073   1.509   4.167 -0.7309 -0.2808  0.8280
11756TIP3    H256760   0.160   1.439   4.270  0.5931  0.2402  0.0974
11757TIP3   OH256761   4.984   3.852   5.397 -0.6660  0.3013 -0.3749
11757TIP3    H156762   5.002   3.773   5.347 -0.5399  0.2449 -0.2416
11757TIP3    H256763   5.068   3.874   5.438 -1.3670 -1.2929  2.1692
11758TIP3   OH256764   1.629   5.353   1.545 -0.1699  0.2644  0.2649
11758TIP3    H156765   1.563   5.284   1.540  0.9817 -0.8282 -0.7582
11758TIP3    H256766   1.685   5.327   1.619  1.3076 -0.9458 -1.1970
11759TIP3   OH256767   5.401   1.901   2.610 -0.1552 -0.1179 -0.5705
11759TIP3    H156768   5.452   1.889   2.690  1.1201 -2.2091 -1.6306
11759TIP3    H256769   5.318   1.939   2.641  0.4079 -0.5398  1.6872
11760TIP3   OH256770   5.893   0.701  13.060 -0.2932  0.1206  0.2860
11760TIP3    H156771   5.929   0.766  13.120  1.8915 -1.1110  0.4023
11760TIP3    H256772   5.928   0.726  12.974  0.7198 -0.9468  0.3602
11761TIP3   OH256773   0.786   5.799   1.370  0.0879  0.2297 -0.2742
11761TIP3    H156774   0.793   5.703   1.373 -1.3693  0.1099 -0.1559
11761TIP3    H256775   0.692   5.816   1.365  0.3752  1.6359 -1.3168
11762TIP3   OH256776   2.376   0.116  13.897 -0.4025  0.5500  0.2209
11762TIP3    H156777   2.464   0.081  13.912 -0.4624  0.6686  0.8798
11762TIP3    H256778   2.318   0.059  13.948 -0.6831  0.5934 -0.0480
11763TIP3   OH256779   5.267   5.462   3.975  0.1848  0.0781 -0.2598
11763TIP3    H156780   5.226   5.375   3.969  1.5250 -0.5874 -0.0611
11763TIP3    H256781   5.253   5.501   3.889  0.2256 -0.6445 -0.6029
11764TIP3   OH256782   4.475   4.717  12.024  0.3271  0.5401 -0.1445
11764TIP3    H156783   4.461   4.652  12.093  1.8393  0.4309  0.1088
11764TIP3    H256784   4.563   4.751  12.042  0.4637  1.0166 -1.6081
11765TIP3   OH256785   4.232   1.308   1.173  0.1813  0.0441  0.4128
11765TIP3    H156786   4.215   1.316   1.079 -0.1513 -0.9637  0.3805
11765TIP3    H256787   4.154   1.264   1.208  1.7778 -2.8739  0.5876
11766TIP3   OH256788   6.779   4.301  17.259 -0.2571  0.1997  0.8519
11766TIP3    H156789   6.776   4.329  17.351 -0.9176 -2.6320  1.8177
11766TIP3    H256790   6.872   4.288  17.241 -0.2029 -2.2934  2.3081
11767TIP3   OH256791   6.295   1.098   5.250 -0.3116 -0.4372 -0.1462
11767TIP3    H156792   6.225   1.164   5.254  0.0946 -0.0435  0.7270
11767TIP3    H256793   6.337   1.103   5.335  0.4413 -1.0560 -0.4732
11768TIP3   OH256794   5.004   5.825  15.979  0.4906 -0.1330  0.4871
11768TIP3    H156795   5.036   5.734  15.979  1.3502  0.1563 -0.2038
11768TIP3    H256796   4.999   5.848  15.887  1.9205  1.0796  0.6877
11769TIP3   OH256797   0.250   3.969   4.834  0.1037  0.1707  0.3433
11769TIP3    H156798   0.332   3.966   4.785  0.4548  1.4121  0.8024
11769TIP3    H256799   0.183   3.979   4.767  0.6619  2.9505  0.0861
11770TIP3   OH256800   3.747   6.757   0.737 -0.1395  0.2795 -0.0937
11770TIP3    H156801   3.683   6.695   0.703 -0.3379  0.5684 -0.2476
11770TIP3    H256802   3.695   6.827   0.776  0.0772 -0.1857  1.0853
11771TIP3   OH256803   6.794   1.789  11.227 -0.3765  0.6350 -0.0018
11771TIP3    H156804   6.808   1.698  11.202 -0.5054  0.8687 -0.9628
11771TIP3    H256805   6.872   1.812  11.279  0.3754  0.4152 -1.0083
11772TIP3   OH256806   2.321   3.661  15.048  0.0500 -0.0368 -0.3245
11772TIP3    H156807   2.231   3.659  15.079  0.4787  0.8012  1.0816
11772TIP3    H256808   2.360   3.735  15.093  2.3186 -2.2540  1.6666
11773TIP3   OH256809   1.472   0.324   0.711  0.7000 -0.0965  0.0647
11773TIP3    H156810   1.519   0.242   0.695  0.8463  0.0533 -0.2825
11773TIP3    H256811   1.437   0.314   0.800  0.5910 -0.5924 -0.0295
11774TIP3   OH256812   5.807   6.368  15.985 -0.4049  0.6383 -0.2713
11774TIP3    H156813   5.757   6.320  15.919 -0.3879  0.5018 -0.1860
11774TIP3    H256814   5.744   6.429  16.024 -1.0392 -0.8791  1.1985
11775TIP3   OH256815   1.107   0.122   4.004 -0.5895 -0.1995  0.1311
11775TIP3    H156816   1.048   0.068   4.057 -0.9338  0.3994  0.3736
11775TIP3    H256817   1.123   0.070   3.925  1.3695 -1.9161  1.5441
11776TIP3   OH256818   1.487   6.578   0.619 -0.0158  0.0319  0.6059
11776TIP3    H156819   1.496   6.493   0.661  1.5802  0.4812  1.2530
11776TIP3    H256820   1.419   6.565   0.553 -1.3102 -1.1738  2.0735
11777TIP3   OH256821   4.795   1.919   4.249 -0.0097  0.1062  0.7676
11777TIP3    H156822   4.888   1.935   4.230  0.0657 -0.8136  0.2977
11777TIP3    H256823   4.796   1.862   4.326 -0.0371 -2.2915 -0.8812
11778TIP3   OH256824   0.668   0.053  13.821 -0.0719 -0.0882  0.3173
11778TIP3    H156825   0.574   0.058  13.839 -0.1159  0.9204 -0.1109
11778TIP3    H256826   0.678   0.098  13.737  1.2224  3.0336  1.9647
11779TIP3   OH256827   2.477   4.135  11.505  0.1306  0.0963 -0.3062
11779TIP3    H156828   2.555   4.132  11.560 -0.2552 -1.2461  0.2176
11779TIP3    H256829   2.509   4.161  11.419  1.1039 -0.1233 -0.0202
11780TIP3   OH256830   0.194   6.690   5.114  0.1480 -0.4765  0.8910
11780TIP3    H156831   0.166   6.716   5.026  1.1581 -0.8473  0.4383
11780TIP3    H256832   0.284   6.661   5.102  0.1648 -0.9110  1.9910
11781TIP3   OH256833   5.660   5.807  14.796  0.5100 -0.3513 -0.2464
11781TIP3    H156834   5.677   5.899  14.814 -0.0286 -0.6595  2.0811
11781TIP3    H256835   5.597   5.780  14.862  2.8054 -3.0983  1.0351
11782TIP3   OH256836   2.263   3.039   6.345 -0.4820  0.4453  0.3011
11782TIP3    H156837   2.247   3.133   6.345  2.6064  1.1062 -0.2071
11782TIP3    H256838   2.218   3.007   6.267 -1.9113  1.4021  0.7035
11783TIP3   OH256839   3.876   6.501   1.495  0.8181 -0.0368  0.7425
11783TIP3    H156840   3.841   6.488   1.407  0.0650  0.0237  1.0248
11783TIP3    H256841   3.937   6.574   1.486  2.8175 -1.7512 -0.2566
11784TIP3   OH256842   1.509   0.688  16.847  0.2254  0.1823  0.6065
11784TIP3    H156843   1.418   0.673  16.824  1.1300 -3.1968 -1.4784
11784TIP3    H256844   1.551   0.711  16.765  1.3504  1.3935  1.4771
11785TIP3   OH256845   4.577   5.042  13.978 -0.7121  0.0638 -0.2512
11785TIP3    H156846   4.505   5.041  13.916 -1.8356 -0.8350  1.0216
11785TIP3    H256847   4.645   4.989  13.937 -1.3246 -0.2892 -0.8267
11786TIP3   OH256848   1.256   4.587  12.065 -0.4223  0.3659  0.2767
11786TIP3    H156849   1.335   4.615  12.020 -1.3053  0.9309 -0.9918
11786TIP3    H256850   1.280   4.583  12.157  0.8698  1.2400 -0.0058
11787TIP3   OH256851   0.896   2.283   3.458 -0.4319  0.1285  0.0311
11787TIP3    H156852   0.989   2.260   3.455 -0.5688 -0.3692 -1.1014
11787TIP3    H256853   0.878   2.299   3.550  0.9732  1.0815  0.1606
11788TIP3   OH256854   5.460   1.902   1.253 -0.9665 -0.0157  0.4849
11788TIP3    H156855   5.537   1.848   1.238 -0.4327  0.7267  0.5266
11788TIP3    H256856   5.433   1.931   1.166  0.3418  1.8209  0.6421
11789TIP3   OH256857   4.313   0.441   2.630 -0.7661  0.0148  0.6597
11789TIP3    H156858   4.263   0.360   2.619 -2.0110  0.5788  1.8793
11789TIP3    H256859   4.330   0.447   2.724  0.9346  0.2569  0.3687
11790TIP3   OH256860   4.541   0.859   1.109  0.3064 -0.6156 -0.2793
11790TIP3    H156861   4.535   0.954   1.104 -1.1969 -0.6957 -0.3856
11790TIP3    H256862   4.461   0.827   1.067  1.1086 -1.9469 -0.8484
11791TIP3   OH256863   6.321   5.096   5.769 -0.0932 -0.2249 -0.8095
11791TIP3    H156864   6.335   5.121   5.861 -0.7605 -1.5694 -0.2993
11791TIP3    H256865   6.257   5.159   5.736 -0.2082 -0.0070 -0.1848
11792TIP3   OH256866   5.532   5.775   5.434  0.0095  0.3033  0.0422
11792TIP3    H156867   5.461   5.760   5.372  1.3325 -0.8041 -1.2936
11792TIP3    H256868   5.524   5.867   5.458 -0.7445  0.6864 -1.5338
11793TIP3   OH256869   1.862   6.118  16.405 -0.1002  0.0338 -0.1304
11793TIP3    H156870   1.943   6.090  16.361 -1.7058 -0.6913 -2.9138
11793TIP3    H256871   1.835   6.197  16.357 -0.2544  1.2409  1.8400
11794TIP3   OH256872   6.021   3.901  14.134  0.1587  0.1857 -0.1015
11794TIP3    H156873   6.002   3.956  14.058 -1.0080 -1.0541 -0.7425
11794TIP3    H256874   5.958   3.928  14.201 -0.2461 -0.1980 -0.3277
11795TIP3   OH256875   1.731   5.866  16.524 -0.1669  0.1926  0.6982
11795TIP3    H156876   1.793   5.939  16.527 -0.0136  0.0479  1.2237
11795TIP3    H256877   1.670   5.884  16.595  0.0958 -0.3859  1.0779
11796TIP3   OH256878   4.510   3.186  17.198  0.0339  0.5371  0.0144
11796TIP3    H156879   4.465   3.105  17.225  0.5192  0.1975 -0.1783
11796TIP3    H256880   4.546   3.165  17.111 -1.1142  1.4592 -0.7090
11797TIP3   OH256881   5.385   1.113  12.533  0.1646  0.7967 -0.2249
11797TIP3    H156882   5.401   1.160  12.451  1.3567 -0.8852 -1.0184
11797TIP3    H256883   5.436   1.161  12.598  1.9243  0.2930 -1.1517
11798TIP3   OH256884   4.013   3.419  11.328 -0.4644  0.1408 -0.0411
11798TIP3    H156885   3.936   3.419  11.272  2.3246 -1.8432 -4.4763
11798TIP3    H256886   4.068   3.490  11.294  1.7887 -1.7966 -0.7318
11799TIP3   OH256887   2.613   0.848   4.805  0.0764  0.0290  0.0142
11799TIP3    H156888   2.544   0.891   4.754  0.9191  1.8781  0.3482
11799TIP3    H256889   2.694   0.876   4.763  0.6830 -3.5115 -1.4653
11800TIP3   OH256890   3.078   3.747  15.797 -1.1510  0.4247 -0.5458
11800TIP3    H156891   3.105   3.776  15.884 -0.3737 -0.3668 -0.5040
11800TIP3    H256892   3.150   3.771  15.740  0.3663 -2.7990 -0.2291
11801TIP3   OH256893   4.700   6.555  16.165  0.3260  0.2348  0.2386
11801TIP3    H156894   4.747   6.566  16.248  0.8236  1.3873 -0.1761
11801TIP3    H256895   4.767   6.526  16.103  0.1388  0.2791  0.0145
11802TIP3   OH256896   3.032   4.272  15.503 -0.1134 -0.1350 -0.1137
11802TIP3    H156897   3.082   4.206  15.455 -0.4789 -0.5575  0.0712
11802TIP3    H256898   3.023   4.345  15.442  0.4209 -0.1989 -0.2692
11803TIP3   OH256899   3.846   0.332   0.022  0.2440 -0.2686 -0.1823
11803TIP3    H156900   3.892   0.365  -0.055 -1.9370  0.1471 -1.4155
11803TIP3    H256901   3.813   0.410   0.066  2.6411 -0.4010  2.0798
11804TIP3   OH256902   5.969   2.941  11.412  0.2049  0.6215 -0.0950
11804TIP3    H156903   5.934   3.029  11.396 -0.4239  0.3098 -0.4429
11804TIP3    H256904   6.058   2.957  11.443  0.1831  1.3753 -0.3919
11805TIP3   OH256905   2.090   1.953   4.809  0.0070  0.1006 -0.4266
11805TIP3    H156906   2.142   2.012   4.863  1.9763  0.9736 -3.0262
11805TIP3    H256907   2.152   1.886   4.780 -1.8630 -2.5966  1.3255
11806TIP3   OH256908   2.707   1.343  16.936  0.6546 -0.0784  0.5805
11806TIP3    H156909   2.674   1.421  16.891 -1.7670 -0.9087  0.7624
11806TIP3    H256910   2.706   1.367  17.029  0.5255 -0.1060  0.5867
11807TIP3   OH256911   3.150   3.866   0.038  0.1501 -0.4917  0.9813
11807TIP3    H156912   3.138   3.934   0.104 -2.5139 -2.2590  2.4877
11807TIP3    H256913   3.242   3.840   0.047  0.4068  0.7854  2.4714
11808TIP3   OH256914   1.585   5.701   0.310  0.1472  0.2114  0.4408
11808TIP3    H156915   1.629   5.695   0.395 -0.6380 -1.1511  0.7927
11808TIP3    H256916   1.656   5.711   0.247  0.9016 -0.6871  1.1078
11809TIP3   OH256917   0.076   2.509   5.586 -0.0948  0.4561  0.7614
11809TIP3    H156918   0.054   2.580   5.525 -1.5133  0.1132  0.8371
11809TIP3    H256919  -0.006   2.491   5.632  0.8542  0.4735  2.5464
11810TIP3   OH256920   3.656   3.637  15.189 -0.4377  0.6152 -0.0575
11810TIP3    H156921   3.603   3.643  15.109  1.3350 -1.8902 -1.5831
11810TIP3    H256922   3.736   3.684  15.168 -0.1835  0.4175  0.4424
11811TIP3   OH256923   1.621   6.408   6.417  1.0052  0.1476  0.1449
11811TIP3    H156924   1.599   6.501   6.421 -0.4699 -0.1837  0.2987
11811TIP3    H256925   1.636   6.391   6.324 -0.9771  0.0956 -0.2188
11812TIP3   OH256926   6.667   2.763  12.965  0.0420  0.1933 -0.4711
11812TIP3    H156927   6.617   2.690  12.927  0.9978 -0.8301  0.1647
11812TIP3    H256928   6.756   2.750  12.933  0.0186  1.7778 -1.2766
11813TIP3   OH256929   0.961   0.866   3.827  0.3440  0.2293 -0.4536
11813TIP3    H156930   0.886   0.810   3.847  1.5334 -1.2701 -0.0251
11813TIP3    H256931   0.957   0.936   3.892  0.8570 -1.3691  1.3837
11814TIP3   OH256932   5.033   4.014   6.132 -0.1548 -0.1418 -0.6557
11814TIP3    H156933   5.007   3.941   6.188  1.0992 -0.5522 -0.5755
11814TIP3    H256934   5.129   4.018   6.140 -0.0481  0.4930 -1.8982
11815TIP3   OH256935   0.084   4.401  15.928  0.9286  0.1832  0.2653
11815TIP3    H156936   0.124   4.361  16.006  0.4696 -0.7102  0.0515
11815TIP3    H256937   0.062   4.327  15.872  1.0656  0.8142 -0.6298
11816TIP3   OH256938   4.349   5.648   4.624 -0.4637  0.1468  0.2057
11816TIP3    H156939   4.292   5.721   4.648 -2.7583 -1.1959 -0.8049
11816TIP3    H256940   4.402   5.632   4.702  0.1417  2.8462  0.4501
11817TIP3   OH256941   3.518   0.340   3.263  0.6870  0.4500 -0.1465
11817TIP3    H156942   3.466   0.263   3.242 -1.5623  1.4201  1.4486
11817TIP3    H256943   3.485   0.408   3.204  0.7977  0.8498  0.2461
11818TIP3   OH256944   1.563   1.684  11.825  0.6012 -0.1044  0.4796
11818TIP3    H156945   1.620   1.683  11.749  0.2739 -1.4647  0.2382
11818TIP3    H256946   1.603   1.623  11.887 -0.7036 -1.3001  0.1941
11819TIP3   OH256947   1.255   0.018   4.897 -0.6202 -0.1630 -0.4254
11819TIP3    H156948   1.324   0.084   4.892  0.6861 -1.3959  0.5278
11819TIP3    H256949   1.188   0.058   4.954 -0.1419  0.5592 -0.3527
11820TIP3   OH256950   4.677   5.870   3.497  0.3772 -0.0182 -0.4496
11820TIP3    H156951   4.603   5.895   3.551  1.3119 -0.2205  0.9624
11820TIP3    H256952   4.641   5.809   3.433 -0.3220 -1.8416  1.5744
11821TIP3   OH256953   3.529   2.331   3.842  0.1140 -0.0802  0.3798
11821TIP3    H156954   3.543   2.299   3.931  1.0099  1.0298  0.6617
11821TIP3    H256955   3.463   2.400   3.852  0.7656  0.5668  0.3144
11822TIP3   OH256956   5.705   2.850  14.141  0.1784  0.5806  0.0419
11822TIP3    H156957   5.634   2.789  14.160 -1.2882  1.7976 -1.3008
11822TIP3    H256958   5.734   2.826  14.053  1.6902 -0.0840  0.6716
11823TIP3   OH256959   2.508   0.140   2.806  0.3447 -0.0122 -0.1175
11823TIP3    H156960   2.584   0.146   2.863 -0.3708 -1.1921  0.9881
11823TIP3    H256961   2.492   0.046   2.796 -1.8474  0.1894  0.9148
11824TIP3   OH256962   6.753   0.256  10.826 -0.2349 -0.0218  0.1911
11824TIP3    H156963   6.761   0.316  10.753  1.7328 -0.4322  0.0055
11824TIP3    H256964   6.727   0.173  10.787 -0.0518 -0.0174  0.0574
11825TIP3   OH256965   1.948   3.548   3.891 -0.3619  0.2550 -0.2666
11825TIP3    H156966   1.909   3.461   3.891  0.0729  0.0486 -1.0655
11825TIP3    H256967   1.980   3.560   3.801 -0.1169  1.0994 -0.0768
11826TIP3   OH256968   1.625   0.046  15.548 -0.4411  0.0281  0.0702
11826TIP3    H156969   1.558  -0.019  15.567  1.1524 -1.5126  0.6659
11826TIP3    H256970   1.664   0.018  15.465  0.1254  0.3303  0.2222
11827TIP3   OH256971   4.570   3.995   3.662 -0.3899 -1.3779 -0.2862
11827TIP3    H156972   4.576   4.064   3.596  0.3037 -0.8616  0.3065
11827TIP3    H256973   4.588   4.039   3.745 -1.4642 -1.9716  0.2863
11828TIP3   OH256974   1.884   3.973  13.063 -0.0667  0.3078 -0.3932
11828TIP3    H156975   1.919   4.055  13.099 -2.4738  1.4409 -0.4226
11828TIP3    H256976   1.790   3.987  13.060 -0.6290 -2.6967  0.0713
11829TIP3   OH256977   2.670   1.775   6.524 -0.4396  0.0720  0.4566
11829TIP3    H156978   2.668   1.869   6.509 -0.4858  0.1332  0.8266
11829TIP3    H256979   2.712   1.766   6.610  0.5076 -0.2962 -0.0272
11830TIP3   OH256980   3.982   2.785   1.073 -0.9335  0.3046  1.2844
11830TIP3    H156981   4.039   2.710   1.062  0.8131  1.6719  0.4797
11830TIP3    H256982   3.955   2.782   1.164  1.1078  0.0463  1.9244
11831TIP3   OH256983   6.076   1.277   5.206  0.0575  0.2304  0.5016
11831TIP3    H156984   6.018   1.321   5.269 -0.4979 -0.2240  0.3167
11831TIP3    H256985   6.087   1.342   5.136  0.3514  0.5849  0.8667
11832TIP3   OH256986   4.825   1.151  15.711  0.0485 -0.3925 -0.7184
11832TIP3    H156987   4.770   1.115  15.642  0.1549  0.6790 -1.3981
11832TIP3    H256988   4.912   1.159  15.671  0.0583  0.4585 -0.5456
11833TIP3   OH256989   2.023   2.307   3.437  0.1185 -0.2876  0.2194
11833TIP3    H156990   1.927   2.302   3.444 -0.1243  1.7779 -0.6822
11833TIP3    H256991   2.049   2.362   3.511  0.4213  0.3064 -0.3162
11834TIP3   OH256992   5.566   5.303  15.637  0.1580  0.1256 -0.4486
11834TIP3    H156993   5.656   5.295  15.606 -0.0661 -0.0730 -1.0779
11834TIP3    H256994   5.558   5.238  15.707  0.5676  0.3096 -0.2311
11835TIP3   OH256995   3.808   6.366  15.433  0.3832  0.2000 -0.0076
11835TIP3    H156996   3.784   6.457  15.446  0.6903  1.0734 -4.1298
11835TIP3    H256997   3.726   6.318  15.440  0.1904  0.7323  2.0075
11836TIP3   OH256998   0.305   0.125   5.494 -0.0113 -0.7847 -0.2162
11836TIP3    H156999   0.253   0.205   5.491 -2.6516 -2.2797  1.0993
11836TIP3    H257000   0.244   0.056   5.465  0.8224 -2.8266  2.4895
11837TIP3   OH257001   6.460   0.063   4.142  0.1949 -0.0981 -0.2721
11837TIP3    H157002   6.531   0.088   4.202 -0.0567  0.2223 -0.1056
11837TIP3    H257003   6.459   0.132   4.076 -0.0494 -0.0309 -0.1987
11838TIP3   OH257004   1.488   3.677  11.300 -0.3933 -0.7941  0.3330
11838TIP3    H157005   1.519   3.768  11.304 -2.4032 -0.0008 -0.7621
11838TIP3    H257006   1.561   3.629  11.261  1.0098  0.1509  1.6496
11839TIP3   OH257007   3.199   1.048  16.701 -0.0796  0.0640  0.0544
11839TIP3    H157008   3.211   0.967  16.751  0.6589 -0.1750 -0.4888
11839TIP3    H257009   3.287   1.071  16.671  0.1043  2.2383  1.9469
11840TIP3   OH257010   1.491   5.948  14.279 -0.0947  0.1908  0.1219
11840TIP3    H157011   1.564   5.978  14.335 -1.3423 -0.8818  2.4825
11840TIP3    H257012   1.523   5.867  14.240  0.9792  1.2043 -1.1848
11841TIP3   OH257013   1.881   4.387   1.217  0.5546 -0.1513 -0.0923
11841TIP3    H157014   1.875   4.414   1.308  0.5368 -2.0775  0.5263
11841TIP3    H257015   1.885   4.469   1.168 -4.8683  1.2442  1.1630
11842TIP3   OH257016   0.162   5.059  14.839 -0.6044 -0.0761  0.3758
11842TIP3    H157017   0.162   5.134  14.780 -2.5002  1.0440  1.6798
11842TIP3    H257018   0.181   4.984  14.783 -3.0796  0.8136 -1.8437
11843TIP3   OH257019   2.678   0.219  15.118 -0.1879  0.3432  0.3575
11843TIP3    H157020   2.672   0.235  15.212 -1.4057 -0.9120  0.5310
11843TIP3    H257021   2.691   0.124  15.110  0.3040  0.4797 -0.7307
11844TIP3   OH257022   3.801   0.208   5.741 -0.3567  0.3860 -0.0059
11844TIP3    H157023   3.744   0.252   5.804  0.9235  2.2450 -0.0693
11844TIP3    H257024   3.832   0.130   5.787 -0.4029  1.0727  1.2433
11845TIP3   OH257025   4.889   1.070   1.210  0.1209  0.7971  0.4256
11845TIP3    H157026   4.863   1.018   1.287  1.0975 -2.1078 -1.0404
11845TIP3    H257027   4.961   1.124   1.242  0.6634 -0.5115  1.5649
11846TIP3   OH257028   1.594   0.370   5.456  0.2389 -0.3549  0.1458
11846TIP3    H157029   1.671   0.408   5.497  0.6380 -0.4845 -0.4565
11846TIP3    H257030   1.536   0.444   5.439  0.3461 -0.2211  0.3638
11847TIP3   OH257031   2.616   1.809  16.034  0.0295 -0.0472  0.5712
11847TIP3    H157032   2.652   1.778  15.951 -1.3285  1.3907 -0.6216
11847TIP3    H257033   2.531   1.765  16.041  0.8188 -1.4484  2.0881
11848TIP3   OH257034   0.002   1.907   3.882  0.1100 -0.1889 -0.0556
11848TIP3    H157035  -0.010   1.830   3.827 -0.0174  0.2513 -0.6642
11848TIP3    H257036  -0.079   1.913   3.934  0.3729 -0.7988  0.4283
11849TIP3   OH257037   4.803   2.472   4.733  0.0139  0.2010 -0.7380
11849TIP3    H157038   4.887   2.479   4.777  0.9830 -1.0160 -2.2947
11849TIP3    H257039   4.792   2.557   4.690  0.5362  0.3013 -0.6811
11850TIP3   OH257040   3.221   4.848   0.286 -0.4320  0.3966  0.3589
11850TIP3    H157041   3.238   4.753   0.287  1.0634  0.6401  0.6447
11850TIP3    H257042   3.162   4.863   0.359 -0.6610 -0.3174  0.3261
11851TIP3   OH257043   2.933   4.133   4.934 -0.3842  0.5678  0.4543
11851TIP3    H157044   3.027   4.115   4.922 -0.9037 -1.7321 -0.5774
11851TIP3    H257045   2.931   4.202   5.000  2.0266  0.5558  0.6507
11852TIP3   OH257046   0.908   0.210   4.473 -0.1221 -0.4311  0.0409
11852TIP3    H157047   0.989   0.252   4.502  0.6389 -0.8628 -1.3622
11852TIP3    H257048   0.839   0.275   4.489  0.6462  0.3194  0.3288
11853TIP3   OH257049   0.821   1.420   5.016 -0.1248 -0.7798  0.4998
11853TIP3    H157050   0.766   1.410   5.094 -1.5605 -0.6671 -0.4489
11853TIP3    H257051   0.870   1.501   5.031 -0.2987 -0.8148  1.3186
11854TIP3   OH257052   6.336   4.524  12.741 -0.0770 -0.0490 -0.1697
11854TIP3    H157053   6.256   4.477  12.717  0.9006 -0.5783 -2.6536
11854TIP3    H257054   6.392   4.457  12.782 -0.4907  0.1047  0.6785
11855TIP3   OH257055   5.970   1.752  15.799  0.3208  0.1590  0.1922
11855TIP3    H157056   5.971   1.837  15.844 -0.2287 -0.3224  1.1399
11855TIP3    H257057   5.928   1.771  15.715  1.6908  1.1421 -0.3025
11856TIP3   OH257058   3.304   4.804  13.166 -0.1212  0.1927 -0.3263
11856TIP3    H157059   3.341   4.823  13.080 -0.4699  0.6386 -0.3828
11856TIP3    H257060   3.240   4.874  13.180 -0.0793  0.1116  0.2866
11857TIP3   OH257061   4.377   5.908   5.551 -0.5691 -0.1111  0.2975
11857TIP3    H157062   4.420   5.847   5.492 -0.3113  0.0242  0.3421
11857TIP3    H257063   4.298   5.863   5.579 -0.4813 -0.3436  0.1747
11858TIP3   OH257064   5.795   5.067   5.806  0.5388 -0.2373  0.0985
11858TIP3    H157065   5.743   4.987   5.805 -0.3689  0.3307 -1.0361
11858TIP3    H257066   5.801   5.090   5.899  1.7457 -2.1685  0.5513
11859TIP3   OH257067   1.061   3.904   3.386  0.2505 -0.0641 -0.2164
11859TIP3    H157068   0.972   3.913   3.420  0.3405 -0.4545  0.1318
11859TIP3    H257069   1.092   3.994   3.377  0.3290  0.0512  1.0279
11860TIP3   OH257070   2.080   0.681   2.610 -0.6129  0.2264  0.3982
11860TIP3    H157071   2.020   0.683   2.685 -0.7687  1.8783  0.2564
11860TIP3    H257072   2.078   0.589   2.581 -1.3254 -0.2268  1.7773
11861TIP3   OH257073   1.843   0.518   2.916 -0.3162  0.2646 -0.2245
11861TIP3    H157074   1.836   0.528   3.011  0.6504  1.2081 -0.2360
11861TIP3    H257075   1.849   0.607   2.882 -1.0186 -0.0445 -1.2225
11862TIP3   OH257076   0.284   5.016   5.235  0.0521  0.1094  0.3965
11862TIP3    H157077   0.336   4.993   5.312 -0.3500 -1.0004  0.3564
11862TIP3    H257078   0.214   5.071   5.269 -0.3294 -0.6666  0.8887
11863TIP3   OH257079   6.516   1.577   3.487  0.3934  0.1875  0.1573
11863TIP3    H157080   6.459   1.548   3.416  1.7867 -0.8812 -0.5756
11863TIP3    H257081   6.587   1.623   3.443  0.9973 -0.0154  0.9001
11864TIP3   OH257082   0.516   0.606  12.951  0.0161 -0.0466 -0.0308
11864TIP3    H157083   0.433   0.579  12.910 -0.0350 -0.4438  0.3238
11864TIP3    H257084   0.569   0.639  12.879 -0.5412  0.4407 -0.2295
11865TIP3   OH257085   0.586   3.422   0.705 -0.0757 -0.3806 -0.3198
11865TIP3    H157086   0.597   3.502   0.654  1.2834 -0.0338  0.4610
11865TIP3    H257087   0.526   3.446   0.775 -1.4435 -0.6880 -1.3312
11866TIP3   OH257088   3.876   6.439   3.367  0.6301  0.4574 -0.4667
11866TIP3    H157089   3.912   6.402   3.447 -0.2779 -1.7696 -1.0136
11866TIP3    H257090   3.952   6.471   3.319  1.2528  1.1939  0.9381
11867TIP3   OH257091   2.674   1.237  15.551 -0.2814 -0.5201  0.1885
11867TIP3    H157092   2.635   1.228  15.638  0.9712  0.9112  0.9451
11867TIP3    H257093   2.743   1.171  15.549  0.4176  0.1678  0.7425
11868TIP3   OH257094   1.492   6.252   0.456  0.4740  0.0014 -0.3313
11868TIP3    H157095   1.441   6.171   0.457 -0.7477  0.7435  0.8475
11868TIP3    H257096   1.528   6.259   0.544  4.1426 -1.3417 -1.5206
11869TIP3   OH257097   0.639   1.412   5.221 -0.4127 -0.1493  0.1058
11869TIP3    H157098   0.574   1.480   5.234 -0.8297 -0.8464  1.8754
11869TIP3    H257099   0.644   1.366   5.304  2.9378  0.3492  0.3308
11870TIP3   OH257100   5.326   1.758  16.413 -0.5557  0.1340  0.0977
11870TIP3    H157101   5.416   1.729  16.427 -0.4557  0.4478  0.1172
11870TIP3    H257102   5.335   1.847  16.379 -0.8320 -0.1083 -0.6307
11871TIP3   OH257103   5.651   0.258  16.430 -0.2109 -0.3297 -0.2647
11871TIP3    H157104   5.651   0.353  16.415  1.1983 -0.3751 -0.7095
11871TIP3    H257105   5.742   0.232  16.416  0.0486 -1.3170  2.6344
11872TIP3   OH257106   0.647   0.870  15.587  0.2958 -0.0943 -0.2422
11872TIP3    H157107   0.682   0.815  15.518 -0.1971 -0.6559 -0.0527
11872TIP3    H257108   0.698   0.846  15.665  1.6184  1.3306 -0.6216
11873TIP3   OH257109   2.133   0.132  12.024  0.2129  0.2740  0.0352
11873TIP3    H157110   2.120   0.040  12.003  0.4542  0.6204 -1.7121
11873TIP3    H257111   2.091   0.179  11.952 -1.5510  1.5884  1.8039
11874TIP3   OH257112   4.407   0.545   2.372  0.0335  0.9387  0.4347
11874TIP3    H157113   4.327   0.595   2.392  0.4903  1.3396  1.2729
11874TIP3    H257114   4.409   0.476   2.437  1.2207  1.9074  1.4855
11875TIP3   OH257115   2.119   5.803   5.011  0.4364  0.0018  0.5047
11875TIP3    H157116   2.059   5.729   5.023  1.4484 -1.4054 -2.2837
11875TIP3    H257117   2.062   5.878   4.995 -0.6010 -0.7747  0.4640
11876TIP3   OH257118   2.153   0.310   5.324  0.7025 -0.5373 -0.1441
11876TIP3    H157119   2.153   0.389   5.271  1.7027  1.4190  2.5450
11876TIP3    H257120   2.238   0.310   5.368  0.9455 -3.4234 -0.4062
11877TIP3   OH257121   1.787   6.295   4.966 -0.1102  0.4068 -0.0399
11877TIP3    H157122   1.730   6.371   4.955  0.0651  0.6801  0.8587
11877TIP3    H257123   1.805   6.291   5.060  0.9174  0.0099 -0.2300
11878TIP3   OH257124   1.388   2.135  15.903 -0.4554 -0.2372  0.1241
11878TIP3    H157125   1.395   2.048  15.863 -0.0486 -0.0084 -0.3037
11878TIP3    H257126   1.457   2.186  15.862 -1.4128  0.6160 -0.4528
11879TIP3   OH257127   4.427   0.187  13.436  0.1571 -0.0584  0.3339
11879TIP3    H157128   4.453   0.103  13.472 -2.2395 -1.0090  0.0216
11879TIP3    H257129   4.481   0.197  13.357  1.0805 -0.8608  0.8440
11880TIP3   OH257130   1.028   5.585   5.073  0.2142 -0.2658 -0.6522
11880TIP3    H157131   1.037   5.649   5.002  0.6369  0.5747  0.1358
11880TIP3    H257132   1.033   5.637   5.153  2.6734 -1.4745  0.0847
11881TIP3   OH257133   0.833   4.015   0.185  0.2458  0.5620 -0.3551
11881TIP3    H157134   0.848   3.945   0.121  1.4436  1.4714 -1.1217
11881TIP3    H257135   0.916   4.021   0.234 -0.5914 -0.0028  1.1921
11882TIP3   OH257136   1.491   0.070   4.401  0.4685  0.3278 -0.3460
11882TIP3    H157137   1.413   0.014   4.399 -1.4785  2.8199  0.6080
11882TIP3    H257138   1.536   0.051   4.318  0.4093 -3.1670  0.2815
11883TIP3   OH257139   4.942   5.950   0.213 -0.3978  0.1539 -0.8795
11883TIP3    H157140   4.910   5.861   0.197  1.1526 -0.4282 -0.8617
11883TIP3    H257141   4.932   5.962   0.308 -0.2841 -0.1294 -0.8317
11884TIP3   OH257142   2.609   2.737   2.060 -0.0058  0.0413  0.2447
11884TIP3    H157143   2.582   2.767   2.147 -0.2043  0.4459  0.0488
11884TIP3    H257144   2.702   2.758   2.055  0.0735 -0.2417  0.4620
11885TIP3   OH257145   2.594   4.048  15.354  0.0821  0.5576  0.3082
11885TIP3    H157146   2.610   4.137  15.323  2.2073  1.2059  2.8986
11885TIP3    H257147   2.525   4.058  15.420  1.5016  0.6430  1.8420
11886TIP3   OH257148   3.482   3.941   3.434 -0.0305 -0.1739 -0.5747
11886TIP3    H157149   3.551   3.998   3.400  0.7740 -1.3310 -0.9292
11886TIP3    H257150   3.403   3.995   3.429  0.7038  0.9287 -0.8424
11887TIP3   OH257151   0.571   4.446  12.137 -0.3161 -0.5633 -0.0627
11887TIP3    H157152   0.651   4.498  12.126  0.0160 -1.0129  0.1739
11887TIP3    H257153   0.586   4.368  12.084 -0.6997 -0.5441 -0.2022
11888TIP3   OH257154   5.920   1.494   5.029 -0.8361 -0.2219  0.0443
11888TIP3    H157155   5.836   1.498   4.984 -1.0224 -0.4082  0.3758
11888TIP3    H257156   5.977   1.552   4.978 -0.3501 -2.2504 -1.8671
11889TIP3   OH257157   2.014   6.209  13.136  0.3465  0.6026 -0.8578
11889TIP3    H157158   1.922   6.233  13.128  0.2733  0.5999 -0.0451
11889TIP3    H257159   2.021   6.125  13.090 -0.5479 -0.5554  1.0288
11890TIP3   OH257160   3.879   2.045   5.384 -0.2476 -0.3968  0.4085
11890TIP3    H157161   3.948   2.095   5.340 -0.8884  0.5146  0.4169
11890TIP3    H257162   3.798   2.089   5.359 -0.6033  0.6711  3.1216
11891TIP3   OH257163   4.167   5.221   0.001 -0.0255 -0.3422  0.3827
11891TIP3    H157164   4.083   5.263   0.021  0.0051  0.2622 -0.7057
11891TIP3    H257165   4.145   5.129  -0.016 -0.6819  0.0772 -1.2234
11892TIP3   OH257166   5.150   0.057  15.034 -0.4157  0.1889  0.0040
11892TIP3    H157167   5.097  -0.011  14.992  3.1828 -1.4031 -2.4130
11892TIP3    H257168   5.212   0.010  15.089  1.1746  1.5923 -0.4986
11893TIP3   OH257169   5.048   2.196  15.153  0.1105 -0.4011 -0.4656
11893TIP3    H157170   5.101   2.230  15.226  1.9423 -3.4730 -0.2026
11893TIP3    H257171   5.100   2.218  15.075 -0.6066  0.6600 -0.6681
11894TIP3   OH257172   5.254   1.762   4.496 -0.4212 -0.0774  0.0584
11894TIP3    H157173   5.298   1.810   4.566  0.9834  0.2527 -0.9891
11894TIP3    H257174   5.184   1.714   4.539  0.0783  0.5193  1.5931
11895TIP3   OH257175   3.398   0.182  11.573 -0.5999 -0.1001 -0.0054
11895TIP3    H157176   3.426   0.096  11.542 -0.1976  0.4813 -1.3083
11895TIP3    H257177   3.480   0.231  11.584 -0.9151  1.6719 -4.0024
11896TIP3   OH257178   3.194   2.210   3.944 -0.3650 -0.4382 -0.4462
11896TIP3    H157179   3.231   2.122   3.940  2.2790  0.6249 -2.0038
11896TIP3    H257180   3.242   2.255   4.013  0.1592  0.4974 -1.3802
11897TIP3   OH257181   0.031   1.248  14.580 -0.0036 -0.3158 -0.1986
11897TIP3    H157182   0.055   1.334  14.545 -2.3322  0.6053  0.3044
11897TIP3    H257183   0.095   1.188  14.542  2.3291  1.7472  0.2210
11898TIP3   OH257184   1.699   2.310   4.596 -0.4596  0.2680  0.3068
11898TIP3    H157185   1.672   2.220   4.613 -1.4725  0.6748  0.9804
11898TIP3    H257186   1.793   2.311   4.613 -0.5058 -0.5704  0.6789
11899TIP3   OH257187   2.430   0.693  17.244 -0.2923  0.3215 -0.2294
11899TIP3    H157188   2.375   0.749  17.299 -0.5387 -0.6995  0.6077
11899TIP3    H257189   2.375   0.617  17.225 -0.5347  1.0375 -2.6760
11900TIP3   OH257190   0.184   4.001   0.104  0.1173  0.4135 -0.1580
11900TIP3    H157191   0.174   3.973   0.195  0.6003  0.3432 -0.1260
11900TIP3    H257192   0.172   3.921   0.053 -1.1343  0.6178 -0.2227
11901TIP3   OH257193   0.529   4.924   5.729 -0.1559  0.1132  0.4899
11901TIP3    H157194   0.495   4.842   5.766  0.9465  0.2821  1.9752
11901TIP3    H257195   0.576   4.896   5.650 -0.0565 -0.6587  0.8055
11902TIP3   OH257196   5.358   5.040  11.803  0.2611 -1.3675  0.2650
11902TIP3    H157197   5.439   5.089  11.820 -0.3089 -0.8566  1.7031
11902TIP3    H257198   5.341   4.994  11.885 -1.8430 -0.0442  0.6390
11903TIP3   OH257199   2.343   4.163  15.853 -0.2503 -0.2967 -0.0840
11903TIP3    H157200   2.291   4.225  15.905  0.5314  0.8030 -0.5655
11903TIP3    H257201   2.409   4.131  15.914 -2.5130 -3.2112  1.1231
11904TIP3   OH257202   1.605   0.057   4.749 -0.0836  0.8489  0.1828
11904TIP3    H157203   1.522   0.083   4.788 -0.8032  0.0715 -0.8011
11904TIP3    H257204   1.590  -0.030   4.714  0.3363  1.7147 -2.3398
11905TIP3   OH257205   0.914   0.450   4.714 -0.1914 -0.1883 -0.5933
11905TIP3    H157206   0.826   0.422   4.689 -0.9183  0.7627  0.7740
11905TIP3    H257207   0.950   0.375   4.761 -1.2329  0.2443  0.9869
11906TIP3   OH257208   5.389   2.352  13.632 -0.1909 -0.1289  0.5868
11906TIP3    H157209   5.365   2.313  13.548  2.4894  0.0021 -0.3375
11906TIP3    H257210   5.308   2.392  13.664 -1.5847 -1.2731 -1.2998
11907TIP3   OH257211   6.058   5.200   3.146  0.0232 -0.2637 -0.0894
11907TIP3    H157212   6.095   5.142   3.079 -0.7427 -2.1780  1.0727
11907TIP3    H257213   5.964   5.189   3.137 -0.1470  1.0150  0.0087
11908TIP3   OH257214   5.023   3.483  12.633 -0.0785  0.1911 -0.0052
11908TIP3    H157215   5.117   3.485  12.647  0.1031  0.4442 -1.1937
11908TIP3    H257216   5.006   3.397  12.593 -0.4847 -0.2186  1.0017
11909TIP3   OH257217   6.246   2.151   6.413  0.1102 -0.0238  0.4905
11909TIP3    H157218   6.327   2.202   6.412  0.4368 -0.4521 -2.4067
11909TIP3    H257219   6.179   2.211   6.378 -0.1223 -0.6584 -0.1663
11910TIP3   OH257220   5.178   0.320  14.920 -0.4608  0.2654 -0.1582
11910TIP3    H157221   5.093   0.317  14.876 -0.1372  0.1991 -0.7885
11910TIP3    H257222   5.179   0.241  14.975 -0.6974  0.1216 -0.3563
11911TIP3   OH257223   0.116   4.864   2.350 -0.3306  0.3522  0.2700
11911TIP3    H157224   0.158   4.794   2.300 -3.1268 -0.4956 -1.1359
11911TIP3    H257225   0.105   4.935   2.287 -0.8349  0.6115  0.6419
11912TIP3   OH257226   4.541   5.157   0.252 -0.4710  0.8451 -0.1456
11912TIP3    H157227   4.557   5.243   0.213  0.0477  1.4390  1.2867
11912TIP3    H257228   4.623   5.136   0.297 -0.0209 -1.1541 -1.7685
11913TIP3   OH257229   2.938   4.585   2.568 -0.5278  0.1880 -0.2682
11913TIP3    H157230   2.961   4.550   2.481  0.3270  0.0666 -0.0070
11913TIP3    H257231   3.022   4.593   2.613 -0.8413  1.3729  0.1371
11914TIP3   OH257232   0.926   5.686  12.987 -0.6168  0.5373 -0.2095
11914TIP3    H157233   0.918   5.679  13.082 -0.1806  1.0510 -0.1316
11914TIP3    H257234   0.981   5.611  12.962 -1.9043 -0.4338 -0.2385
11915TIP3   OH257235   4.630   6.341  14.757  0.4618  0.5696 -0.2739
11915TIP3    H157236   4.588   6.409  14.810  0.8831  0.6279 -0.0126
11915TIP3    H257237   4.583   6.261  14.780  1.6931  0.2784  1.4569
11916TIP3   OH257238   3.155   4.387   0.754 -0.0976 -0.0147  0.0760
11916TIP3    H157239   3.241   4.385   0.711  0.3555  0.6760  0.9082
11916TIP3    H257240   3.159   4.315   0.817 -0.3058 -0.2670 -0.1968
11917TIP3   OH257241   1.420   6.388   5.512  0.0256 -0.4149 -0.1203
11917TIP3    H157242   1.424   6.470   5.562 -0.3088  0.2675 -1.1887
11917TIP3    H257243   1.439   6.413   5.422  0.0394 -1.5388 -0.4499
11918TIP3   OH257244   1.890   3.722   4.811  0.3678  0.6475 -0.1606
11918TIP3    H157245   1.972   3.678   4.788  0.9427  0.7916  1.5035
11918TIP3    H257246   1.860   3.760   4.729  1.3529 -0.3906 -1.0452
11919TIP3   OH257247   0.643   2.422   3.260  0.4033  0.1011 -0.1547
11919TIP3    H157248   0.548   2.420   3.252  0.4634 -0.4655 -0.7869
11919TIP3    H257249   0.660   2.390   3.348  0.0670 -1.3034 -0.5801
11920TIP3   OH257250   4.751   2.035  15.082  0.2094 -0.1521  0.2818
11920TIP3    H157251   4.836   2.002  15.108 -0.0434 -1.5406 -0.5108
11920TIP3    H257252   4.770   2.104  15.018  0.7425 -0.0420  0.5581
11921TIP3   OH257253   2.602   3.832   1.705  0.1226 -0.5508  0.3903
11921TIP3    H157254   2.558   3.824   1.790 -0.1911 -0.4494  0.2352
11921TIP3    H257255   2.532   3.843   1.642  0.2973 -1.6739 -0.0170
11922TIP3   OH257256   6.682   3.924  12.252  0.0110  0.1076  0.2152
11922TIP3    H157257   6.590   3.948  12.244 -0.2528 -0.6331  0.9833
11922TIP3    H257258   6.706   3.891  12.165 -0.8166 -0.9502  0.3710
11923TIP3   OH257259   0.163   4.712   4.170 -0.5731  0.3297 -0.5458
11923TIP3    H157260   0.133   4.706   4.079  0.4970 -0.9981 -0.8536
11923TIP3    H257261   0.221   4.636   4.180  1.0271  1.6463  0.6094
11924TIP3   OH257262   3.113   5.409  13.604  0.1627  0.2781 -0.6848
11924TIP3    H157263   3.047   5.475  13.626  0.1381 -0.3452  1.2785
11924TIP3    H257264   3.068   5.326  13.619  0.9080 -0.1633 -0.9002
11925TIP3   OH257265   3.997   1.496  11.096  0.3735 -0.1277 -0.7785
11925TIP3    H157266   4.019   1.474  11.187  2.8869  0.7590 -1.0928
11925TIP3    H257267   4.004   1.412  11.049 -0.4988 -0.5051 -0.2604
11926TIP3   OH257268   2.561   0.271   5.982  0.3308  0.2625 -0.0728
11926TIP3    H157269   2.486   0.307   6.029 -0.1734 -1.0054  0.1403
11926TIP3    H257270   2.625   0.250   6.051  0.4358  0.3290 -0.1491
11927TIP3   OH257271   4.468   0.317  12.581  0.5095 -0.3564 -0.0401
11927TIP3    H157272   4.444   0.230  12.611  0.4721 -0.4433 -0.3206
11927TIP3    H257273   4.390   0.350  12.536  0.7251 -0.4204 -0.4658
11928TIP3   OH257274   1.259   1.988  13.469 -0.7113  0.3287 -0.0069
11928TIP3    H157275   1.292   1.981  13.380  0.9885  0.1924  0.5928
11928TIP3    H257276   1.336   2.009  13.522 -1.4245 -0.8419  1.6048
11929TIP3   OH257277   1.473   3.425   0.971  0.3083 -0.2020 -0.3334
11929TIP3    H157278   1.464   3.362   0.899  0.9809  1.0054 -1.5239
11929TIP3    H257279   1.387   3.426   1.013 -0.5372  0.0334 -1.9742
11930TIP3   OH257280   0.876   4.557  11.421  0.3992 -0.0186  0.0596
11930TIP3    H157281   0.869   4.472  11.378  0.2620  0.3757 -0.7117
11930TIP3    H257282   0.800   4.606  11.391  0.6447  0.4884  0.2423
11931TIP3   OH257283   1.151   1.878  17.058  0.1505 -0.2796 -0.2665
11931TIP3    H157284   1.103   1.828  16.991 -0.2076 -1.6569  0.9768
11931TIP3    H257285   1.091   1.880  17.133  2.4078 -3.1479  1.8211
11932TIP3   OH257286   2.806   6.261   1.782  0.0396  0.2349  0.0561
11932TIP3    H157287   2.758   6.285   1.704  0.1138  1.2357  0.3109
11932TIP3    H257288   2.778   6.171   1.801  1.0954 -0.5715 -1.9227
11933TIP3   OH257289   3.049   4.526   4.999 -0.2663  0.0425  0.4235
11933TIP3    H157290   3.039   4.599   4.938  0.6679  0.5916  0.8942
11933TIP3    H257291   2.973   4.470   4.983 -0.2424  0.3634 -0.9663
11934TIP3   OH257292   4.850   4.055   6.373 -0.3539 -0.1585  0.3369
11934TIP3    H157293   4.923   4.005   6.409 -2.0805 -1.9824  1.5541
11934TIP3    H257294   4.814   3.999   6.305 -0.0264  1.1778 -0.9799
11935TIP3   OH257295   4.722   2.342   6.407  0.1540  0.1156  0.1869
11935TIP3    H157296   4.639   2.390   6.408  0.0386 -0.0787  0.0829
11935TIP3    H257297   4.702   2.261   6.359  0.2695 -0.1723  0.6167
11936TIP3   OH257298   1.437   5.692   5.240  0.3185 -0.6377 -0.3744
11936TIP3    H157299   1.470   5.708   5.151 -0.0117  0.0824 -0.3725
11936TIP3    H257300   1.414   5.599   5.240 -1.3389 -0.2766 -1.6164
11937TIP3   OH257301   5.394   4.916  13.912  0.0996  0.0314  0.0997
11937TIP3    H157302   5.473   4.894  13.861  0.6890 -0.3703  1.1656
11937TIP3    H257303   5.423   4.917  14.003 -0.7683  1.4974  0.4028
11938TIP3   OH257304   5.737   1.309  15.485  0.2535  0.3197 -0.4538
11938TIP3    H157305   5.751   1.394  15.444 -1.4692  1.2072  0.6741
11938TIP3    H257306   5.799   1.306  15.558  1.6905 -0.2742 -1.6532
11939TIP3   OH257307   5.781   0.426  16.101  0.1242 -0.3843  0.6497
11939TIP3    H157308   5.826   0.348  16.068 -0.4322 -0.2085 -0.6146
11939TIP3    H257309   5.691   0.397  16.117 -0.1977  0.0689 -0.2359
11940TIP3   OH257310   0.301   1.383   0.156  0.0915 -0.3217  0.5444
11940TIP3    H157311   0.278   1.290   0.155  1.7127 -0.7556  0.1061
11940TIP3    H257312   0.342   1.396   0.242 -0.2289  0.0110  0.6465
11941TIP3   OH257313   2.811   4.121  11.134  0.0741  0.0077  0.0790
11941TIP3    H157314   2.854   4.206  11.145 -1.5839  1.0124 -0.7442
11941TIP3    H257315   2.786   4.119  11.041 -2.0063 -0.3017  0.5936
11942TIP3   OH257316   6.298   3.124   5.346 -0.1729 -0.4958 -0.5000
11942TIP3    H157317   6.274   3.032   5.332 -0.4960 -0.3951 -0.6154
11942TIP3    H257318   6.228   3.174   5.304  0.3261 -0.1943 -0.9963
11943TIP3   OH257319   1.518   1.311   3.694 -0.8111 -0.4131 -0.3524
11943TIP3    H157320   1.511   1.246   3.625  0.5988 -0.7765 -0.1744
11943TIP3    H257321   1.510   1.395   3.649 -1.9112 -0.6761 -0.6764
11944TIP3   OH257322   2.184   1.067   4.193 -0.0646 -0.0842  0.1148
11944TIP3    H157323   2.260   1.124   4.200  0.4515 -0.8795  1.3964
11944TIP3    H257324   2.146   1.088   4.108  2.6640 -0.9825 -1.4631
11945TIP3   OH257325   0.745   0.433  14.820 -0.4002 -0.6847  0.3055
11945TIP3    H157326   0.779   0.367  14.760  2.8829 -0.0354  1.2439
11945TIP3    H257327   0.761   0.516  14.775 -3.3696 -0.3308 -0.3330
11946TIP3   OH257328   6.176   1.377  11.383  0.3446 -0.4303 -0.1117
11946TIP3    H157329   6.208   1.467  11.395 -2.0978  0.8892 -2.2500
11946TIP3    H257330   6.249   1.331  11.341  0.8785  1.3113 -1.2403
11947TIP3   OH257331   2.693   2.747  13.557  0.2090  0.5023  0.4786
11947TIP3    H157332   2.642   2.681  13.509  1.9540  0.0751 -0.9124
11947TIP3    H257333   2.719   2.704  13.638 -0.5214  0.2745  0.5992
11948TIP3   OH257334   1.438   1.252   4.901 -1.0123 -0.1377 -0.4717
11948TIP3    H157335   1.518   1.290   4.865  0.0188  0.7067  2.4227
11948TIP3    H257336   1.440   1.161   4.874  2.2881 -0.7947  1.4078
11949TIP3   OH257337   0.749   0.647  16.236  0.0353  0.5088 -0.1751
11949TIP3    H157338   0.712   0.674  16.152  1.8996  1.9790 -0.6144
11949TIP3    H257339   0.694   0.688  16.302 -1.0131 -0.0536 -0.6819
11950TIP3   OH257340   0.251   1.082  14.174 -0.0238  0.1241  0.4603
11950TIP3    H157341   0.230   1.057  14.264 -0.0452 -3.4950 -0.3745
11950TIP3    H257342   0.166   1.090  14.131  0.0066 -0.1569  0.3413
11951TIP3   OH257343   1.407   3.442  15.526  0.6191 -0.2444  0.1251
11951TIP3    H157344   1.426   3.395  15.608 -1.9444 -1.8864 -0.0986
11951TIP3    H257345   1.492   3.475  15.497  1.6484  0.2937  3.3516
11952TIP3   OH257346   0.631   4.574   0.944 -0.0323  0.0735  0.4616
11952TIP3    H157347   0.651   4.617   1.027 -0.4485 -0.0076  0.6031
11952TIP3    H257348   0.536   4.566   0.943 -0.0416  0.2071 -0.0884
11953TIP3   OH257349   1.626   3.302   2.363  0.1171  0.1334 -0.3384
11953TIP3    H157350   1.697   3.367   2.364 -1.2479  1.6945  0.3738
11953TIP3    H257351   1.547   3.354   2.345 -0.7885 -1.6440 -1.7810
11954TIP3   OH257352   0.054   1.373  16.294 -0.0454  0.3065 -0.1204
11954TIP3    H157353  -0.036   1.400  16.279 -0.1079 -0.5249 -1.3555
11954TIP3    H257354   0.107   1.442  16.254 -0.1673  0.0101 -0.8113
11955TIP3   OH257355   3.502   5.921   3.619  0.0738 -0.4398 -0.6099
11955TIP3    H157356   3.453   5.868   3.682 -1.2597  1.1888 -0.1622
11955TIP3    H257357   3.453   5.913   3.537 -1.3121  1.5405 -0.0517
11956TIP3   OH257358   5.791   5.631   5.297 -0.0554  0.0189  0.6539
11956TIP3    H157359   5.794   5.685   5.376  0.5533  1.1429 -0.1151
11956TIP3    H257360   5.869   5.576   5.302 -1.2976 -1.7093  2.0395
11957TIP3   OH257361   6.641   4.838  12.400  0.0716  0.2024 -0.2897
11957TIP3    H157362   6.709   4.898  12.431 -0.1671  0.1032  0.4347
11957TIP3    H257363   6.591   4.815  12.478  1.3829 -2.5232 -0.1328
11958TIP3   OH257364   2.719   1.484   1.267 -0.0076  0.2439  0.3872
11958TIP3    H157365   2.702   1.572   1.232 -0.1981 -0.0093 -0.1803
11958TIP3    H257366   2.811   1.468   1.248 -0.6506 -0.8533 -2.3052
11959TIP3   OH257367   4.042   0.365  14.267 -0.1686  0.1275  0.1270
11959TIP3    H157368   3.956   0.345  14.229  0.1245 -1.3406  0.1661
11959TIP3    H257369   4.029   0.447  14.314 -1.4373  0.1624 -0.2470
11960TIP3   OH257370   4.221   4.013   1.092  0.1025  0.4711  0.0810
11960TIP3    H157371   4.193   3.971   1.010 -1.8837 -0.6624  1.2405
11960TIP3    H257372   4.214   4.107   1.075 -2.7367  0.2622 -0.3621
11961TIP3   OH257373   2.938   4.985   0.039  0.1834  0.1135  0.4616
11961TIP3    H157374   2.960   4.893   0.055  0.9700  0.0807 -0.6652
11961TIP3    H257375   2.893   5.013   0.118 -2.2870 -1.9188 -0.0685
11962TIP3   OH257376   2.644   5.931  16.658 -0.2827  0.2201  0.1342
11962TIP3    H157377   2.667   5.848  16.618  1.6249  1.8007 -2.3556
11962TIP3    H257378   2.564   5.959  16.614 -0.1578  0.3079 -0.0413
11963TIP3   OH257379   5.457   4.767  16.620 -0.0022  0.6674  0.4985
11963TIP3    H157380   5.397   4.694  16.604 -2.3013  2.0226  2.3315
11963TIP3    H257381   5.461   4.814  16.537  0.6652 -0.8900 -0.3867
11964TIP3   OH257382   6.152   0.409  15.087  0.2521 -0.1412  0.1978
11964TIP3    H157383   6.111   0.457  15.159  0.0193  2.4286 -1.5235
11964TIP3    H257384   6.132   0.460  15.009  2.4524 -1.5413 -1.4171
11965TIP3   OH257385   1.901   1.291   3.706  0.1179 -0.4716 -0.3865
11965TIP3    H157386   1.939   1.297   3.618  0.5700  0.7453 -0.1270
11965TIP3    H257387   1.826   1.350   3.704  0.0444 -0.5487  0.0003
11966TIP3   OH257388   3.883   1.418   0.273  0.2891  0.2334  0.4896
11966TIP3    H157389   3.885   1.486   0.205  0.2150 -0.2004  0.0486
11966TIP3    H257390   3.828   1.349   0.237 -0.5763  0.4258  1.4165
11967TIP3   OH257391   4.424   4.526   0.835 -0.4382 -0.3785  0.2714
11967TIP3    H157392   4.514   4.559   0.843 -1.1493  1.5510  0.6589
11967TIP3    H257393   4.383   4.548   0.919 -1.9574  1.0042 -0.7794
11968TIP3   OH257394   3.554   4.244  11.733 -0.1194 -0.1930  0.2424
11968TIP3    H157395   3.588   4.186  11.801  0.3615 -0.3008 -0.0798
11968TIP3    H257396   3.505   4.311  11.780 -1.8756 -1.6244  0.5504
11969TIP3   OH257397   1.281   0.417  13.947  0.4439 -0.1211  0.4821
11969TIP3    H157398   1.211   0.480  13.963  1.1213  0.5310  0.9236
11969TIP3    H257399   1.237   0.343  13.905 -0.0870  1.3483 -1.7141
11970TIP3   OH257400   1.426   6.349   2.332 -0.1352 -0.5057 -0.0226
11970TIP3    H157401   1.416   6.260   2.298  1.7245  0.2260 -2.8008
11970TIP3    H257402   1.519   6.368   2.321  0.1615  0.7506  3.4780
11971TIP3   OH257403   0.987   1.260  12.682 -0.3098  0.6141  0.6054
11971TIP3    H157404   1.024   1.201  12.747 -0.4287 -0.4653 -0.2790
11971TIP3    H257405   0.982   1.208  12.602 -0.8904  1.6719 -0.0755
11972TIP3   OH257406   4.570   3.128   4.550 -0.1078 -0.0827  0.2478
11972TIP3    H157407   4.575   3.222   4.567 -0.3858  0.3065 -1.6094
11972TIP3    H257408   4.508   3.095   4.615  0.5463  0.8774  1.3951
11973TIP3   OH257409   1.423   4.067  12.700  0.7148 -0.1659  0.6616
11973TIP3    H157410   1.452   3.986  12.743  0.9979 -0.3057  0.2234
11973TIP3    H257411   1.460   4.137  12.753 -0.4936 -0.2951  1.7117
11974TIP3   OH257412   6.352   2.607  15.019 -0.3390  0.5074 -0.4917
11974TIP3    H157413   6.379   2.517  15.037  1.4771  0.5654 -2.4639
11974TIP3    H257414   6.279   2.622  15.078  0.0115 -1.8756  0.6956
11975TIP3   OH257415   2.257   5.350  13.610 -0.0253 -0.6096 -0.5183
11975TIP3    H157416   2.239   5.414  13.679  0.6269 -1.5185  0.5287
11975TIP3    H257417   2.171   5.313  13.589 -0.4888  0.9316 -1.5048
11976TIP3   OH257418   3.229   0.192   0.748  0.1531  0.2618  0.4343
11976TIP3    H157419   3.173   0.131   0.794  0.9648 -1.0923 -0.3090
11976TIP3    H257420   3.279   0.236   0.817  0.3162 -0.6904  0.9360
11977TIP3   OH257421   4.253   3.711   2.025  0.0153 -0.4691  0.1598
11977TIP3    H157422   4.349   3.707   2.031 -0.0360  0.0998  1.6154
11977TIP3    H257423   4.236   3.771   1.953  0.7550 -0.5455 -0.0868
11978TIP3   OH257424   2.215   1.932   2.378  0.2065  0.0381  0.3175
11978TIP3    H157425   2.206   1.949   2.472 -1.6411  4.2194 -0.3819
11978TIP3    H257426   2.140   1.876   2.357 -1.5380  2.0268  0.8857
11979TIP3   OH257427   4.048   1.324  12.704 -0.3738 -0.5633 -0.1162
11979TIP3    H157428   3.957   1.340  12.679 -0.3337  0.5419  0.3808
11979TIP3    H257429   4.048   1.237  12.743 -0.8505 -1.4061 -1.8841
11980TIP3   OH257430   0.673   2.565  13.839 -0.2084 -0.1770 -0.0443
11980TIP3    H157431   0.624   2.613  13.905 -0.6601  0.0028 -0.5005
11980TIP3    H257432   0.708   2.489  13.885 -0.1593  0.1721  0.4952
11981TIP3   OH257433   5.767   3.850  13.533 -0.1244  0.0444  0.6280
11981TIP3    H157434   5.782   3.756  13.527  1.6191  0.1091  2.5239
11981TIP3    H257435   5.754   3.879  13.443  0.4496 -1.8561 -0.1069
11982TIP3   OH257436   1.551   2.500   2.601  0.3584  0.4486 -0.5071
11982TIP3    H157437   1.545   2.482   2.695  2.2239  1.3443 -0.1760
11982TIP3    H257438   1.528   2.592   2.593  0.1216  0.3538 -0.9455
11983TIP3   OH257439   0.903   3.523   3.893 -0.4750  0.2509 -0.0195
11983TIP3    H157440   0.881   3.578   3.819 -0.3342  1.1989  0.6248
11983TIP3    H257441   0.832   3.460   3.898  0.1643 -0.6725 -1.7375
11984TIP3   OH257442   5.565   1.583  10.530 -0.1380  0.0633 -0.0262
11984TIP3    H157443   5.619   1.659  10.553 -0.7857  0.4941  0.1300
11984TIP3    H257444   5.612   1.508  10.566  2.7819 -0.2211 -3.8402
11985TIP3   OH257445   2.062   0.933  16.241 -0.1010 -0.1699 -0.0901
11985TIP3    H157446   2.080   0.885  16.322 -1.8637  0.2656  0.5997
11985TIP3    H257447   2.148   0.964  16.212  0.4846  0.4128  2.0851
11986TIP3   OH257448   5.466   5.669  16.740  0.2259  0.4631  0.6338
11986TIP3    H157449   5.480   5.736  16.674  0.8944  0.5003  0.8051
11986TIP3    H257450   5.418   5.600  16.695  0.2914  0.6829  0.2286
11987TIP3   OH257451   4.077   3.698  13.771  0.3716  0.4479  0.5119
11987TIP3    H157452   4.027   3.755  13.713 -0.3203  0.0038  0.6614
11987TIP3    H257453   4.122   3.637  13.712  0.0011  0.2633  0.4159
11988TIP3   OH257454   4.219   0.266   1.219 -0.6332 -0.8684 -0.1854
11988TIP3    H157455   4.265   0.287   1.138  0.2860 -2.7179 -0.1859
11988TIP3    H257456   4.171   0.185   1.199 -0.5691 -1.2265  1.0327
11989TIP3   OH257457   3.845   6.740  12.598 -0.6686 -0.4074  0.0134
11989TIP3    H157458   3.829   6.825  12.557 -1.8073 -1.2506 -1.3555
11989TIP3    H257459   3.880   6.685  12.528  0.3250 -1.0204  0.9539
11990TIP3   OH257460   2.744   0.895   4.553  0.2127  0.4647 -0.3966
11990TIP3    H157461   2.831   0.934   4.544  0.2833  0.1034 -1.4291
11990TIP3    H257462   2.685   0.970   4.564  0.6232  0.7238  0.0885
11991TIP3   OH257463   4.093   1.628  16.989  0.0119 -0.2210 -0.2491
11991TIP3    H157464   4.150   1.628  16.913 -0.0624  1.3095 -0.3390
11991TIP3    H257465   4.152   1.618  17.064 -0.0154 -2.9034 -0.5104
11992TIP3   OH257466   0.422   4.693  16.811 -0.1222 -0.2439 -0.0246
11992TIP3    H157467   0.417   4.769  16.868 -2.5339  1.3552 -2.1096
11992TIP3    H257468   0.487   4.717  16.745 -1.8885  0.7809 -1.5075
11993TIP3   OH257469   5.737   1.762   0.352  0.1487  0.0613  0.4083
11993TIP3    H157470   5.721   1.689   0.412  1.1547 -0.4214  0.1269
11993TIP3    H257471   5.661   1.819   0.361 -0.2995 -0.6461  1.1980
11994TIP3   OH257472   0.307   4.757   2.527 -0.9100 -0.2494 -0.0749
11994TIP3    H157473   0.267   4.678   2.562  0.0837 -0.8580 -0.2544
11994TIP3    H257474   0.242   4.793   2.467 -1.3553 -0.9698 -0.0378
11995TIP3   OH257475   5.464   0.834   2.782  0.6179  0.3520  0.5838
11995TIP3    H157476   5.384   0.828   2.835 -1.1379  0.9490 -1.7961
11995TIP3    H257477   5.454   0.916   2.734  2.1788 -0.0802 -0.5449
11996TIP3   OH257478   2.507   3.233  13.374 -0.1242 -0.7416 -0.8316
11996TIP3    H157479   2.461   3.190  13.301 -1.0299  0.9958 -1.3406
11996TIP3    H257480   2.462   3.200  13.452 -0.4651 -1.0872 -1.1654
11997TIP3   OH257481   3.164   6.564  14.346  0.0082 -0.3683  0.0206
11997TIP3    H157482   3.187   6.634  14.285 -0.4265 -1.1784 -1.1133
11997TIP3    H257483   3.079   6.591  14.382 -0.0570 -0.2073 -0.2492
11998TIP3   OH257484   2.528   4.943  15.868  0.0336 -0.3316 -0.1559
11998TIP3    H157485   2.443   4.954  15.826 -0.1121  2.0789  0.6442
11998TIP3    H257486   2.592   4.972  15.803  0.2338 -1.4772 -0.5010
11999TIP3   OH257487   4.936   1.835  16.504 -0.6444  0.0069 -0.8684
11999TIP3    H157488   5.017   1.852  16.551 -0.2217 -1.3181 -1.0601
11999TIP3    H257489   4.896   1.921  16.492  0.7802  0.6908 -0.8763
12000TIP3   OH257490   2.016   3.911   4.345 -0.1614 -0.2180 -0.2719
12000TIP3    H157491   2.036   3.900   4.252  2.9549  0.4267  0.2014
12000TIP3    H257492   1.999   3.822   4.376 -0.0320 -0.5846 -1.2154
12001TIP3   OH257493   2.805   3.208   3.717  0.1966 -0.2557 -0.8404
12001TIP3    H157494   2.759   3.152   3.654  0.9743 -0.0264 -1.6173
12001TIP3    H257495   2.734   3.257   3.759 -0.3993 -0.9691 -0.9729
12002TIP3   OH257496   0.570   3.499  14.505  0.0897  0.3589 -0.0069
12002TIP3    H157497   0.544   3.586  14.473  2.4591  1.6793  1.3725
12002TIP3    H257498   0.643   3.474  14.449 -1.3684 -1.4346 -1.2341
12003TIP3   OH257499   0.113   5.188   1.130  0.4208 -0.1770  0.0548
12003TIP3    H157500   0.089   5.281   1.130 -1.1343 -0.5407  0.4736
12003TIP3    H257501   0.183   5.181   1.194  1.2964  0.8630 -0.7479
12004TIP3   OH257502   2.415   2.551   3.219 -0.3076  0.3630 -0.1465
12004TIP3    H157503   2.504   2.525   3.195  0.3624 -0.0180  2.4526
12004TIP3    H257504   2.418   2.562   3.314 -3.0760  0.2055  0.0416
12005TIP3   OH257505   0.468   4.872   0.974 -0.4686 -0.3442 -0.3209
12005TIP3    H157506   0.453   4.824   1.055 -0.7085  0.3376  0.0477
12005TIP3    H257507   0.516   4.950   1.000 -2.0199  0.7506 -0.5461
12006TIP3   OH257508   4.219   2.877   1.189  0.8288  0.3661  0.1587
12006TIP3    H157509   4.134   2.902   1.151  0.8955  0.9408  0.3808
12006TIP3    H257510   4.250   2.957   1.233  0.3799 -0.4893  2.1287
12007TIP3   OH257511   2.779   6.414   2.024 -0.3130 -0.4360 -0.1676
12007TIP3    H157512   2.789   6.378   1.936 -1.4179 -1.4235  0.0823
12007TIP3    H257513   2.686   6.401   2.045 -0.3550  0.9249  0.6650
12008TIP3   OH257514   0.017   5.842  17.147  0.1416  0.0779 -0.7490
12008TIP3    H157515  -0.063   5.872  17.191  0.1247 -0.4841 -0.3898
12008TIP3    H257516   0.087   5.865  17.208 -0.0108 -2.1611  0.3856
12009TIP3   OH257517   2.216   0.339   2.557 -0.2165 -0.0458 -0.1151
12009TIP3    H157518   2.157   0.366   2.628 -0.3508 -0.7692  0.0519
12009TIP3    H257519   2.185   0.388   2.481  2.3208  3.8516  1.0830
12010TIP3   OH257520   6.253   0.620   6.045  0.8597  0.1730 -0.0366
12010TIP3    H157521   6.276   0.527   6.053 -1.5171 -0.3596  1.4490
12010TIP3    H257522   6.219   0.644   6.131  0.8101  2.2669 -0.5853
12011TIP3   OH257523   0.520   3.743  11.193 -0.3148  0.0343  0.0956
12011TIP3    H157524   0.469   3.824  11.197 -0.2632  0.0124  2.6723
12011TIP3    H257525   0.595   3.758  11.250  0.8839 -1.0879 -1.1142
12012TIP3   OH257526   5.395   0.457   0.703 -0.0953  0.1600  0.0580
12012TIP3    H157527   5.380   0.363   0.710 -0.4613  0.2708  0.8292
12012TIP3    H257528   5.373   0.492   0.789  0.9038  0.8370  0.0580
12013TIP3   OH257529   4.743   0.580   3.633  0.2677 -0.1231  0.1156
12013TIP3    H157530   4.695   0.510   3.589  0.2538 -0.9814  1.4418
12013TIP3    H257531   4.739   0.654   3.572  2.3104 -1.9368 -2.4373
12014TIP3   OH257532   5.936   5.837   3.522  0.6878 -0.4544  0.0046
12014TIP3    H157533   5.879   5.842   3.599 -0.1835  1.2855 -0.6939
12014TIP3    H257534   6.012   5.787   3.551 -0.4436 -1.3951  1.4589
12015TIP3   OH257535   5.058   4.747  13.834  0.2012  0.5246 -0.4363
12015TIP3    H157536   5.046   4.803  13.757 -1.4608 -1.4420 -1.7000
12015TIP3    H257537   5.097   4.667  13.801  2.2822  0.7320  1.2988
12016TIP3   OH257538   4.793   2.167  15.329  0.0872 -0.8478 -0.2026
12016TIP3    H157539   4.738   2.091  15.312 -0.4547 -0.1471 -1.7896
12016TIP3    H257540   4.881   2.132  15.337 -0.0676 -1.6060 -1.5006
12017TIP3   OH257541   6.783   2.417   3.404  0.2076  0.0113  0.1910
12017TIP3    H157542   6.749   2.393   3.490  2.0938 -1.1331  0.6682
12017TIP3    H257543   6.753   2.506   3.390 -0.2041  0.1931  1.9977
12018TIP3   OH257544   6.048   3.865   4.950 -0.1672 -0.0088  0.6396
12018TIP3    H157545   6.097   3.784   4.937  0.3416  0.3357  0.3496
12018TIP3    H257546   5.984   3.866   4.880 -0.2114 -0.1856  0.6761
12019TIP3   OH257547   4.064   5.935   5.956 -0.8277  0.1996 -0.0292
12019TIP3    H157548   4.147   5.976   5.934 -1.0964  1.8178  1.6574
12019TIP3    H257549   4.004   5.961   5.886 -0.8441  2.3706  0.7013
12020TIP3   OH257550   5.909   1.982  17.261  0.0168  0.2488  0.1211
12020TIP3    H157551   5.998   1.948  17.250  0.2211  0.6690  0.4367
12020TIP3    H257552   5.856   1.905  17.281  0.4334  0.0850  0.6075
12021TIP3   OH257553   6.772   6.425   3.236  0.7781 -0.0724  0.0862
12021TIP3    H157554   6.714   6.348   3.231  1.0602 -0.3597  1.0980
12021TIP3    H257555   6.712   6.499   3.239  0.4682 -0.3264  0.3404
12022TIP3   OH257556   1.650   6.594  16.934 -0.4262  0.3235  1.3521
12022TIP3    H157557   1.586   6.539  16.979 -1.3375 -1.0664 -1.3535
12022TIP3    H257558   1.638   6.681  16.971 -1.2737 -0.6485  3.4886
12023TIP3   OH257559   6.593   4.930   0.077  0.0537 -1.0775  0.0997
12023TIP3    H157560   6.498   4.919   0.086 -0.2450  0.1157 -1.2923
12023TIP3    H257561   6.613   5.006   0.131 -0.4501  1.0376 -2.4914
12024TIP3   OH257562   5.990   0.549  14.351 -0.6953  0.2201 -0.9213
12024TIP3    H157563   6.054   0.620  14.347  0.3484 -0.4644  1.7320
12024TIP3    H257564   6.020   0.486  14.286 -0.0176  0.9279 -1.3197
12025TIP3   OH257565   6.317   2.604   5.033  0.1037 -0.2783 -0.2162
12025TIP3    H157566   6.343   2.516   5.059 -0.6058 -0.1300  1.0487
12025TIP3    H257567   6.363   2.619   4.950 -0.2057 -2.0338 -0.7378
12026TIP3   OH257568   0.575   1.403  11.211  0.8052 -0.2155 -0.5536
12026TIP3    H157569   0.482   1.389  11.228  0.6328  1.7533  0.3990
12026TIP3    H257570   0.579   1.435  11.121  0.2537  1.7972  0.0739
12027TIP3   OH257571   0.540   4.923  12.391  0.2403 -0.0128  0.2093
12027TIP3    H157572   0.544   4.903  12.297  2.1260  0.7447  0.0778
12027TIP3    H257573   0.576   5.012  12.398  0.2151 -0.0962  1.6609
12028TIP3   OH257574   2.119   5.670  11.316 -0.2958 -0.0573 -0.2584
12028TIP3    H157575   2.132   5.594  11.259 -1.1116 -0.1413 -0.3441
12028TIP3    H257576   2.198   5.672  11.371  0.1961 -0.3616 -0.9372
12029TIP3   OH257577   5.602   4.370   3.275 -0.3628  0.3349 -0.0335
12029TIP3    H157578   5.543   4.298   3.253 -1.6661  2.0984 -2.8953
12029TIP3    H257579   5.557   4.417   3.345 -1.2707  0.3486 -0.6096
12030TIP3   OH257580   4.592   0.548  12.543  0.1176 -0.1932 -0.0440
12030TIP3    H157581   4.616   0.534  12.451 -1.6124  0.7579 -0.6758
12030TIP3    H257582   4.550   0.466  12.569 -2.3464  0.6111 -1.1594
12031TIP3   OH257583   2.995   4.478  11.357  0.1744  0.0789 -0.2651
12031TIP3    H157584   2.997   4.456  11.264  0.2226 -1.8474  0.1447
12031TIP3    H257585   2.911   4.445  11.388  1.1299 -1.5455  0.8138
12032TIP3   OH257586   0.568   5.065   4.264 -0.1093  0.4760  0.5777
12032TIP3    H157587   0.622   5.001   4.309  1.3694  0.9894 -0.3748
12032TIP3    H257588   0.482   5.024   4.257  0.4988 -0.9285  0.9774
12033TIP3   OH257589   2.860   0.816  13.977 -0.3797  0.3303  0.1807
12033TIP3    H157590   2.906   0.889  14.019  2.9565 -0.6681 -1.4043
12033TIP3    H257591   2.776   0.852  13.951 -0.4782  2.4233  2.9201
12034TIP3   OH257592   0.172   4.313   4.442 -0.4683  0.0268 -0.0205
12034TIP3    H157593   0.095   4.320   4.386  0.3374  1.3980 -1.0347
12034TIP3    H257594   0.222   4.393   4.423  1.1299 -0.7626  0.6992
12035TIP3   OH257595   1.007   2.304  13.900 -0.2108  0.2961  0.4559
12035TIP3    H157596   1.063   2.257  13.961 -0.4132  0.5545  0.8457
12035TIP3    H257597   1.003   2.248  13.823  2.1355  1.1356 -0.3510
12036TIP3   OH257598   0.630   4.426  15.522  0.0626 -0.4456 -0.1539
12036TIP3    H157599   0.637   4.492  15.591 -0.4156 -0.5401 -0.0039
12036TIP3    H257600   0.618   4.475  15.441  0.2331 -0.3391 -0.1122
12037TIP3   OH257601   5.310   1.010  17.014 -0.5242  0.2999  0.6809
12037TIP3    H157602   5.311   1.088  17.069 -2.0596 -1.1727  2.9847
12037TIP3    H257603   5.353   0.943  17.066 -0.8031 -0.8376 -0.4934
12038TIP3   OH257604   2.028   6.057  17.084 -0.1894 -0.1224 -0.0631
12038TIP3    H157605   2.021   6.144  17.045  2.0327  1.0493  1.8453
12038TIP3    H257606   1.954   6.052  17.144 -1.9168 -0.7464 -2.1388
12039TIP3   OH257607   4.318   6.450   0.807 -0.1121 -0.4787 -0.2138
12039TIP3    H157608   4.308   6.357   0.786  1.2567 -0.3927 -1.4476
12039TIP3    H257609   4.369   6.451   0.888 -0.0439 -0.8105 -0.2495
12040TIP3   OH257610   4.768   0.109   4.643 -0.5122 -0.4475 -0.0171
12040TIP3    H157611   4.690   0.158   4.616  0.3674 -0.1096 -2.1814
12040TIP3    H257612   4.737   0.018   4.651 -1.1610 -0.3155 -0.8319
12041TIP3   OH257613   5.967   2.293  13.077 -0.2067 -0.2507 -0.5736
12041TIP3    H157614   5.894   2.247  13.120 -0.1966  1.2090  1.1051
12041TIP3    H257615   5.996   2.358  13.141  3.7182 -1.8570 -0.4599
12042TIP3   OH257616   5.255   1.498   0.060  0.0745 -0.1869 -0.3826
12042TIP3    H157617   5.190   1.490  -0.010 -0.4699 -0.4674  0.1406
12042TIP3    H257618   5.221   1.570   0.115  0.2118 -0.3257 -0.1144
12043TIP3   OH257619   4.438   3.977   5.865 -0.3301  0.0792 -0.4607
12043TIP3    H157620   4.500   3.963   5.793  0.6390  3.0581 -0.3451
12043TIP3    H257621   4.418   3.889   5.896  1.7551 -1.1556 -2.2600
12044TIP3   OH257622   4.530   3.647  13.735 -0.3100  0.3545  0.0662
12044TIP3    H157623   4.462   3.690  13.788 -0.6647 -0.8023  0.5699
12044TIP3    H257624   4.512   3.554  13.744 -0.8941  0.1012 -2.7544
12045TIP3   OH257625   0.459   4.612   5.301  0.8036 -0.0125 -0.1570
12045TIP3    H157626   0.375   4.645   5.269  0.6722 -0.5470 -0.3782
12045TIP3    H257627   0.457   4.518   5.281 -0.0263 -0.7837  2.9777
12046TIP3   OH257628   6.037   5.830  11.731 -0.3310 -0.0022  0.5089
12046TIP3    H157629   6.109   5.879  11.692 -1.1195  1.1371  0.4223
12046TIP3    H257630   5.960   5.859  11.682 -0.7980 -1.5802  0.2458
12047TIP3   OH257631   4.749   0.803   5.484  0.6307  0.5316 -0.5448
12047TIP3    H157632   4.767   0.851   5.404  0.5939  0.7146 -0.4449
12047TIP3    H257633   4.800   0.849   5.551 -1.4781  2.1130  0.0833
12048TIP3   OH257634   4.290   6.761  17.270 -0.2593 -0.6859  0.4364
12048TIP3    H157635   4.200   6.794  17.265 -0.2153 -0.7146 -1.0132
12048TIP3    H257636   4.344   6.840  17.265 -0.1864 -0.5635  2.5156
12049TIP3   OH257637   0.863   6.542  13.668 -0.0181 -0.2818  0.2029
12049TIP3    H157638   0.896   6.602  13.601  0.2807  0.4644  0.9907
12049TIP3    H257639   0.909   6.567  13.748 -0.8632 -0.6917  0.8482
12050TIP3   OH257640   1.001   6.606  13.877  0.4369  0.0454 -1.0511
12050TIP3    H157641   1.095   6.587  13.872 -0.0568 -3.0965 -0.1827
12050TIP3    H257642   0.974   6.570  13.962 -1.8177 -0.3949 -1.8988
12051TIP3   OH257643   4.960   4.438  12.675  0.3564 -0.3119 -0.2400
12051TIP3    H157644   4.937   4.519  12.721  3.5475  0.3689  0.4602
12051TIP3    H257645   5.024   4.396  12.733 -1.0155 -3.2869 -0.7172
12052TIP3   OH257646   0.930   2.505   1.771  0.3561  0.3549  0.1141
12052TIP3    H157647   0.965   2.498   1.859  0.4563 -0.7719 -0.0065
12052TIP3    H257648   0.991   2.564   1.726  0.8833  0.1208  0.5090
12053TIP3   OH257649   0.055   3.045  13.525  0.4313 -0.7019 -0.4899
12053TIP3    H157650   0.001   2.968  13.511 -1.0111  0.4403 -1.6256
12053TIP3    H257651   0.031   3.105  13.453  0.5166  1.3073  1.0601
12054TIP3   OH257652   0.010   1.819   1.001  0.8316 -0.7486 -0.0564
12054TIP3    H157653   0.057   1.736   0.998  0.9332 -0.7463  1.1051
12054TIP3    H257654  -0.024   1.824   1.090 -1.1015 -0.6014 -0.7628
12055TIP3   OH257655   4.169   0.309  15.107 -0.4173  0.6562  0.1493
12055TIP3    H157656   4.257   0.282  15.134 -0.9045 -2.2057 -0.8263
12055TIP3    H257657   4.168   0.295  15.013 -0.7085  4.6261 -0.5943
12056TIP3   OH257658   4.620   5.305   0.802  0.3640  0.2997 -0.3322
12056TIP3    H157659   4.557   5.334   0.737 -1.2685 -0.4847  0.8217
12056TIP3    H257660   4.624   5.210   0.791  0.4681  0.2160  0.3387
12057TIP3   OH257661   6.623   3.686  14.494  0.4720  0.4594  0.4657
12057TIP3    H157662   6.676   3.701  14.573  0.0855  1.1377  0.6004
12057TIP3    H257663   6.624   3.770  14.448  1.0658 -0.0588 -0.4859
12058TIP3   OH257664   3.943   4.496   1.346  0.2241 -0.1747  0.4928
12058TIP3    H157665   3.893   4.520   1.424  0.8238 -1.2471  1.2360
12058TIP3    H257666   4.018   4.555   1.346 -1.1523  1.7010 -0.8354
12059TIP3   OH257667   5.438   6.456   0.907 -0.4922  0.0254  0.2185
12059TIP3    H157668   5.486   6.375   0.886  0.4298  0.8836 -1.1829
12059TIP3    H257669   5.507   6.520   0.926 -1.1927  0.6158  0.8086
12060TIP3   OH257670   5.924   6.209  11.543  0.1092  0.3729  0.7471
12060TIP3    H157671   5.919   6.115  11.560 -0.4372  0.2708  0.0714
12060TIP3    H257672   5.959   6.215  11.453 -1.1415  0.7711  0.2699
12061TIP3   OH257673   3.599   1.952   0.020 -0.0851 -0.5692  0.2542
12061TIP3    H157674   3.616   1.885  -0.046  0.6326 -0.1137 -0.0393
12061TIP3    H257675   3.556   1.906   0.091 -0.3815 -1.1732 -0.3095
12062TIP3   OH257676   6.303   0.970  14.078  0.3023  0.0765  0.1925
12062TIP3    H157677   6.236   1.033  14.105  1.6677  2.1899 -1.0800
12062TIP3    H257678   6.313   0.986  13.984 -0.8673 -3.6631 -0.7302
12063TIP3   OH257679   3.543   0.817   5.957  0.4675 -0.3852  0.0091
12063TIP3    H157680   3.516   0.790   6.045  1.0462 -0.6996  0.0941
12063TIP3    H257681   3.514   0.908   5.950 -0.4985 -0.6727  0.1401
12064TIP3   OH257682   6.765   5.577   0.441 -0.4434  0.3590  0.2827
12064TIP3    H157683   6.752   5.648   0.504  0.3405  0.6643  0.1032
12064TIP3    H257684   6.731   5.499   0.486 -2.7829  1.0821 -0.1104
12065TIP3   OH257685   1.876   1.108  14.898  0.0659 -0.1828 -0.4178
12065TIP3    H157686   1.873   1.160  14.978 -0.2765 -0.0581 -0.5097
12065TIP3    H257687   1.784   1.094  14.875  0.0117 -2.9213  0.9716
12066TIP3   OH257688   2.059   5.286   4.957 -0.0481 -0.5152  0.2694
12066TIP3    H157689   2.066   5.266   5.050  1.0481 -1.5224 -0.0095
12066TIP3    H257690   2.134   5.343   4.939 -0.3305 -0.2194  0.0292
12067TIP3   OH257691   4.559   3.796  11.474 -0.2366 -0.5887  0.5579
12067TIP3    H157692   4.477   3.846  11.480  0.3234  0.2428  1.5543
12067TIP3    H257693   4.611   3.844  11.409 -0.0489 -0.4006  0.8491
12068TIP3   OH257694   3.123   4.652  16.386 -0.4838 -0.4042 -0.4276
12068TIP3    H157695   3.057   4.721  16.384  0.7387  0.9511  1.7973
12068TIP3    H257696   3.088   4.583  16.329 -3.7572  0.2779  0.5608
12069TIP3   OH257697   6.396   1.621   1.959 -0.1366 -0.2615 -0.4587
12069TIP3    H157698   6.436   1.632   2.045 -0.0823 -0.4632 -0.4579
12069TIP3    H257699   6.301   1.623   1.976 -0.1264 -0.6970 -0.3418
12070TIP3   OH257700   2.971   3.387  14.094  0.2371 -0.0042 -0.5099
12070TIP3    H157701   3.024   3.436  14.156 -1.3394  1.1046  0.0196
12070TIP3    H257702   2.981   3.433  14.011  3.2807 -2.1499 -1.5123
12071TIP3   OH257703   3.289   3.348  14.302  0.4811 -0.4521  0.7988
12071TIP3    H157704   3.336   3.277  14.345 -1.9403 -2.3261  0.5830
12071TIP3    H257705   3.267   3.314  14.215  1.0287  1.3902 -0.1234
12072TIP3   OH257706   4.732   6.758  16.930 -0.3251 -0.0385  0.3769
12072TIP3    H157707   4.812   6.749  16.981  0.8412 -1.6466 -1.5785
12072TIP3    H257708   4.719   6.853  16.921  2.2957  0.2991 -0.6043
12073TIP3   OH257709   1.946   0.699   4.561  0.4889 -0.1783  0.2589
12073TIP3    H157710   1.949   0.672   4.469 -0.7481 -2.1562  0.7437
12073TIP3    H257711   1.926   0.792   4.558  0.5190 -0.1993 -1.4757
12074TIP3   OH257712   4.044   2.796  13.458  0.1311  0.1513  0.0109
12074TIP3    H157713   4.075   2.706  13.464 -0.2188 -0.1447 -2.1195
12074TIP3    H257714   4.035   2.813  13.364  0.0775  2.3720  0.3593
12075TIP3   OH257715   1.180   3.125   2.454  0.4470  0.1803 -0.0118
12075TIP3    H157716   1.212   3.043   2.492  0.3193  0.6746  1.1740
12075TIP3    H257717   1.206   3.193   2.516 -0.8224  0.8658 -0.1942
12076TIP3   OH257718   0.134   1.600  13.158 -0.0931  0.2114  0.1656
12076TIP3    H157719   0.123   1.660  13.084  3.1998 -2.2975 -2.7082
12076TIP3    H257720   0.227   1.607  13.181 -0.3238 -1.5224  1.8540
12077TIP3   OH257721   2.755   5.064  15.770 -0.4782  0.3161 -0.8826
12077TIP3    H157722   2.789   5.089  15.684  2.0469  1.7637  0.4312
12077TIP3    H257723   2.832   5.062  15.827 -2.0329 -0.8175  1.3236
12078TIP3   OH257724   4.291   5.907  14.989 -0.0480 -0.6744  0.2791
12078TIP3    H157725   4.351   5.838  15.020 -2.3435 -2.5613  0.8187
12078TIP3    H257726   4.230   5.919  15.062 -2.0580 -0.9573 -1.2703
12079TIP3   OH257727   2.303   2.805  12.392  0.3957  0.4421 -0.3293
12079TIP3    H157728   2.329   2.894  12.368  2.9053  0.3907  1.7862
12079TIP3    H257729   2.363   2.749  12.343  0.4103  0.0234  0.1691
12080TIP3   OH257730   5.019   2.520   5.392  0.3444 -0.5386  0.1509
12080TIP3    H157731   4.949   2.568   5.347 -0.1425 -0.2580  1.1564
12080TIP3    H257732   5.095   2.578   5.388  0.9404 -1.3731 -2.0537
12081TIP3   OH257733   0.746   4.135  15.795 -0.2172 -0.1834  0.1099
12081TIP3    H157734   0.697   4.154  15.874  0.2054 -0.8513  0.5473
12081TIP3    H257735   0.750   4.039  15.792  1.7824 -0.1552  0.5656
12082TIP3   OH257736   0.866   6.572   4.862 -0.1962 -0.2500 -0.5636
12082TIP3    H157737   0.839   6.481   4.849 -0.6762  0.0170 -1.5477
12082TIP3    H257738   0.788   6.623   4.838 -0.3126  0.3986  1.0597
12083TIP3   OH257739   0.010   5.219   5.118  0.3732  0.2005  0.0875
12083TIP3    H157740   0.050   5.301   5.090 -2.3312  1.3870 -0.6208
12083TIP3    H257741  -0.028   5.239   5.203  0.2137 -0.5204  0.1944
12084TIP3   OH257742   5.063   6.151   2.244  0.1589 -0.2840 -0.4448
12084TIP3    H157743   4.987   6.206   2.262  0.7700  0.8042 -1.1082
12084TIP3    H257744   5.033   6.062   2.263 -1.0617  0.1980 -0.0276
12085TIP3   OH257745   6.201   1.230   2.867  0.1154 -0.6440 -0.6179
12085TIP3    H157746   6.152   1.252   2.946  0.1383  1.6070 -1.1811
12085TIP3    H257747   6.293   1.241   2.892  0.1210  0.1054 -0.9500
12086TIP3   OH257748   1.568   3.472   4.367 -0.0462 -0.3372 -0.2780
12086TIP3    H157749   1.618   3.412   4.311  1.5742  0.0372  0.7081
12086TIP3    H257750   1.580   3.558   4.327 -0.1674 -0.2905 -0.2148
12087TIP3   OH257751   0.443   4.860   4.087  0.7919  1.2846  0.4584
12087TIP3    H157752   0.483   4.824   4.008  0.5874  2.3490 -0.1496
12087TIP3    H257753   0.452   4.790   4.152 -1.7206 -0.8414 -1.2862
12088TIP3   OH257754   3.334   6.491   4.641 -0.9249  0.5557 -0.2374
12088TIP3    H157755   3.274   6.455   4.576  1.3038 -1.2511 -1.4519
12088TIP3    H257756   3.347   6.420   4.704 -0.5245  1.1244  0.3362
12089TIP3   OH257757   1.446   0.549   2.775 -0.0647 -0.0690  0.5835
12089TIP3    H157758   1.503   0.519   2.705  1.5818  0.3859  1.6742
12089TIP3    H257759   1.379   0.601   2.730 -1.3052 -2.8676 -1.0057
12090TIP3   OH257760   6.018   3.665   4.041 -0.1465 -0.1570  0.3314
12090TIP3    H157761   6.074   3.588   4.048  0.8961  0.3820 -1.5075
12090TIP3    H257762   5.956   3.644   3.972  0.2377  0.6852 -0.2865
12091TIP3   OH257763   0.292   0.194  15.812  0.5813  0.2472 -0.3664
12091TIP3    H157764   0.287   0.101  15.833  1.2772  0.1634 -0.5292
12091TIP3    H257765   0.212   0.232  15.847  0.7038 -0.2603  0.4722
12092TIP3   OH257766   4.726   2.886   0.649 -0.1471 -0.4088  0.0339
12092TIP3    H157767   4.815   2.912   0.623 -0.4381 -0.4715 -1.1148
12092TIP3    H257768   4.683   2.969   0.672  0.6432 -0.5339  2.1258
12093TIP3   OH257769   4.045   4.237  10.937  0.1800  0.6547  0.0224
12093TIP3    H157770   4.106   4.278  10.998 -0.7016  2.2448 -0.1211
12093TIP3    H257771   3.970   4.212  10.991 -1.8548  4.5589 -0.6358
12094TIP3   OH257772   6.375   1.406   6.370  0.3411 -0.6728  0.1663
12094TIP3    H157773   6.436   1.344   6.331  0.3067  0.0143 -1.0217
12094TIP3    H257774   6.293   1.357   6.376  0.2507 -0.7013 -0.9861
12095TIP3   OH257775   4.245   6.726   3.068 -0.4077  0.2876  0.5051
12095TIP3    H157776   4.311   6.794   3.084  0.8577 -0.5117 -0.9464
12095TIP3    H257777   4.292   6.644   3.084 -1.6038 -0.2781  1.2067
12096TIP3   OH257778   5.750   4.956  15.690 -0.0434 -0.0097  0.3850
12096TIP3    H157779   5.839   4.928  15.713 -0.9226 -1.9409  1.6979
12096TIP3    H257780   5.693   4.890  15.729 -2.0887  1.2245 -0.3424
12097TIP3   OH257781   6.675   1.335  15.714  0.0607  0.4855 -0.0491
12097TIP3    H157782   6.691   1.241  15.701 -1.6545  0.2554 -0.7985
12097TIP3    H257783   6.680   1.347  15.809  1.1154 -0.1899 -0.0003
12098TIP3   OH257784   6.717   1.800  15.741 -0.0485 -0.4447  0.1792
12098TIP3    H157785   6.771   1.738  15.691 -1.3520 -1.8075  0.3694
12098TIP3    H257786   6.771   1.825  15.815  0.1748 -2.1658  0.6350
12099TIP3   OH257787   2.864   2.040  14.440 -0.3415 -0.0145  0.2019
12099TIP3    H157788   2.781   2.028  14.394 -0.8609  1.2699  0.7686
12099TIP3    H257789   2.850   1.997  14.525 -0.5098  0.3853  0.3793
12100TIP3   OH257790   0.644   4.015  15.000 -0.0244 -0.4672  0.1187
12100TIP3    H157791   0.567   3.959  15.006 -0.0756 -0.3080  1.2657
12100TIP3    H257792   0.643   4.065  15.082  0.5267  0.5433 -0.4747
12101TIP3   OH257793   2.379   4.548  13.255  0.3496  0.1905  0.3204
12101TIP3    H157794   2.440   4.561  13.327  0.3035 -0.9111  0.5845
12101TIP3    H257795   2.396   4.620  13.195 -0.0044  1.4734  1.6934
12102TIP3   OH257796   4.657   0.003   1.950  0.6300 -0.3155  0.0231
12102TIP3    H157797   4.741  -0.014   1.993  0.4953 -0.8478  0.0822
12102TIP3    H257798   4.643   0.097   1.961  1.0387 -0.2890  0.3352
12103TIP3   OH257799   6.769   0.174  16.814 -0.0336  0.5417  0.4044
12103TIP3    H157800   6.683   0.133  16.820  0.1294  0.3404  1.8066
12103TIP3    H257801   6.756   0.251  16.758 -1.2834  0.9031  1.1560
12104TIP3   OH257802   0.749   1.464  13.966 -0.3625 -0.5997 -0.2252
12104TIP3    H157803   0.829   1.500  14.005 -0.1006 -0.4626 -0.8748
12104TIP3    H257804   0.741   1.510  13.882 -0.7704 -1.0767 -0.4506
12105TIP3   OH257805   5.908   5.715   3.277  0.2518  0.4792 -0.4094
12105TIP3    H157806   5.937   5.778   3.343 -0.2797  0.5986 -0.2880
12105TIP3    H257807   5.899   5.767   3.197  0.3955  0.4375 -0.4526
12106TIP3   OH257808   5.745   4.354   5.463 -0.0385  0.5226  0.0419
12106TIP3    H157809   5.656   4.383   5.446  0.1516  0.9127 -0.2875
12106TIP3    H257810   5.747   4.339   5.558 -0.5661  0.1156 -0.0019
12107TIP3   OH257811   2.577   1.759  12.546 -0.6071  0.1812 -0.0135
12107TIP3    H157812   2.632   1.684  12.568 -1.2866 -0.2633  0.1715
12107TIP3    H257813   2.639   1.826  12.516 -0.0718 -0.7607 -1.0631
12108TIP3   OH257814   2.541   3.998  12.964 -0.0153 -0.0620  0.1602
12108TIP3    H157815   2.484   4.065  12.927  1.2813  2.9289  3.0719
12108TIP3    H257816   2.629   4.025  12.939  0.5773 -0.2742  1.9164
12109TIP3   OH257817   5.723   5.520  11.546  0.4403 -0.3793 -0.6618
12109TIP3    H157818   5.761   5.596  11.501 -0.5777  0.6826  0.2005
12109TIP3    H257819   5.774   5.511  11.626  0.1653 -0.2176 -0.4685
12110TIP3   OH257820   0.799   6.396   3.144  0.5985 -0.5034 -0.7276
12110TIP3    H157821   0.812   6.490   3.129 -2.5209  0.0876 -0.4375
12110TIP3    H257822   0.839   6.354   3.069  2.6540  0.9778 -0.5428
12111TIP3   OH257823   3.318   4.513  14.511 -0.8187 -0.2267  0.5272
12111TIP3    H157824   3.250   4.575  14.485  0.1969  0.2968 -1.0117
12111TIP3    H257825   3.285   4.473  14.591 -1.3830  2.5145  1.7763
12112TIP3   OH257826   2.739   5.896   4.912  0.3387  0.1792 -0.2640
12112TIP3    H157827   2.739   5.905   4.817  0.0657 -0.4176 -0.3262
12112TIP3    H257828   2.743   5.801   4.927  0.6814  0.2832  0.3192
12113TIP3   OH257829   3.461   1.531   4.653 -0.1138 -0.7343 -0.1248
12113TIP3    H157830   3.530   1.484   4.605 -0.0213  0.3180 -1.0573
12113TIP3    H257831   3.508   1.585   4.715 -0.2437 -2.3547  1.4789
12114TIP3   OH257832   1.920   0.565   4.330 -0.0716  0.6052 -0.4929
12114TIP3    H157833   1.919   0.501   4.402 -3.1890  0.1333 -0.8270
12114TIP3    H257834   1.949   0.515   4.254  0.3558  0.3408 -0.1577
12115TIP3   OH257835   2.197   6.727   1.644 -0.0377  0.7891  0.0908
12115TIP3    H157836   2.109   6.753   1.615 -0.9756 -1.1547  1.0228
12115TIP3    H257837   2.183   6.685   1.729  1.8877  0.9235  0.5293
12116TIP3   OH257838   2.289   4.629   3.796  0.5219 -0.1009 -0.0209
12116TIP3    H157839   2.378   4.659   3.810 -0.0740  2.3885 -1.0774
12116TIP3    H257840   2.236   4.683   3.855 -0.4443 -0.4776 -0.5206
12117TIP3   OH257841   3.872   6.496   1.208  0.2807 -0.3074 -0.1771
12117TIP3    H157842   3.850   6.517   1.118  1.0017  1.7387  0.0598
12117TIP3    H257843   3.967   6.508   1.213  0.1791  0.2252  0.9716
12118TIP3   OH257844   1.618   6.151   0.196  0.2462 -0.2161  0.0822
12118TIP3    H157845   1.685   6.160   0.263  0.8671  0.2813 -0.5836
12118TIP3    H257846   1.591   6.059   0.200 -0.8037  0.1253  1.9891
12119TIP3   OH257847   6.098   3.781  12.087 -0.2361 -0.5012 -0.0542
12119TIP3    H157848   6.069   3.846  12.022  0.2531  0.2522  0.4587
12119TIP3    H257849   6.189   3.762  12.061  0.4661  0.9083  1.2348
12120TIP3   OH257850   6.427   4.994   3.907  0.2128  0.2634  0.6601
12120TIP3    H157851   6.514   5.013   3.871  0.3392  0.7972  1.2271
12120TIP3    H257852   6.427   4.899   3.919  0.0485  0.0140 -1.0213
12121TIP3   OH257853   6.483   2.375  11.592  0.2502 -0.2941 -0.4183
12121TIP3    H157854   6.426   2.449  11.611  2.9108  1.5629  0.9061
12121TIP3    H257855   6.501   2.381  11.498 -0.1899  0.2452 -0.4701
12122TIP3   OH257856   3.329   2.319  12.744  0.3356  0.0373 -0.5563
12122TIP3    H157857   3.333   2.406  12.784 -1.6301  0.1268 -0.4453
12122TIP3    H257858   3.285   2.333  12.660 -0.5374 -0.9136 -0.2764
12123TIP3   OH257859   3.420   0.268   5.607  0.3004 -0.1055 -0.0494
12123TIP3    H157860   3.383   0.210   5.540 -0.4326  0.3321 -0.0439
12123TIP3    H257861   3.514   0.268   5.590 -0.0035  1.3061 -2.1916
12124TIP3   OH257862   3.085   6.792   4.853 -0.4648 -0.2803 -0.4944
12124TIP3    H157863   3.172   6.809   4.816  0.0235 -0.1699  0.6567
12124TIP3    H257864   3.057   6.711   4.810 -0.1066  0.0628 -1.3982
12125TIP3   OH257865   1.626   0.541   1.503  0.3398  0.0101 -0.3690
12125TIP3    H157866   1.543   0.543   1.550  0.9312 -1.2858  0.8524
12125TIP3    H257867   1.657   0.451   1.513  2.2635  0.6375 -0.0622
12126TIP3   OH257868   4.418   5.539  11.280 -0.6321 -0.6849  0.0218
12126TIP3    H157869   4.351   5.529  11.348 -0.9891  0.9463 -0.0474
12126TIP3    H257870   4.408   5.629  11.249  0.9276 -0.7244 -0.7149
12127TIP3   OH257871   1.488   3.909  11.078  0.1681 -0.1863  0.2814
12127TIP3    H157872   1.493   3.822  11.038  0.3701  0.2580 -0.6872
12127TIP3    H257873   1.576   3.923  11.115  0.8988  0.5314 -1.5986
12128TIP3   OH257874   5.301   4.582  11.142 -0.6326  0.1558  0.4667
12128TIP3    H157875   5.260   4.564  11.227  1.0037 -1.5090  0.9684
12128TIP3    H257876   5.393   4.597  11.163 -0.3845  0.6531 -0.9337
12129TIP3   OH257877   6.183   2.353  11.484 -0.5189 -0.3722  0.1561
12129TIP3    H157878   6.144   2.331  11.568  1.9346  0.0191  1.4885
12129TIP3    H257879   6.263   2.301  11.480  0.2813  0.8748 -1.1622
12130TIP3   OH257880   0.922   2.575  14.176  0.2057 -0.3472 -0.0849
12130TIP3    H157881   0.973   2.553  14.097  1.5502 -0.6752  0.8406
12130TIP3    H257882   0.876   2.494  14.197 -0.7093 -0.0626 -0.9021
12131TIP3   OH257883   0.640   4.569   5.921 -0.2558  0.1389 -0.0670
12131TIP3    H157884   0.625   4.475   5.924 -1.6457  0.3490  0.5196
12131TIP3    H257885   0.556   4.606   5.894 -0.0412  1.2672  0.6951
12132TIP3   OH257886   3.006   4.217   0.451 -0.2706  0.4123  0.0812
12132TIP3    H157887   3.004   4.311   0.470  0.6690  0.7040 -1.1532
12132TIP3    H257888   3.080   4.184   0.502  0.7284  0.7522 -1.1037
12133TIP3   OH257889   0.447   3.430  10.693  0.1585 -0.9987 -0.1074
12133TIP3    H157890   0.383   3.378  10.645 -0.9812  1.0060 -0.8620
12133TIP3    H257891   0.409   3.441  10.780 -0.3075 -0.2166 -0.4043
12134TIP3   OH257892   5.553   3.076  15.007  0.0735  0.3567 -0.3289
12134TIP3    H157893   5.495   3.100  14.935  0.0954  1.1284 -0.0949
12134TIP3    H257894   5.614   3.013  14.968 -0.8785 -0.4380 -0.5894
12135TIP3   OH257895   5.355   4.909  14.307  0.2002 -0.0326 -0.0972
12135TIP3    H157896   5.362   4.992  14.353  1.2419 -1.1680  1.9770
12135TIP3    H257897   5.261   4.898  14.291 -0.3082  0.2036  2.3209
12136TIP3   OH257898   1.993   3.566  16.655 -0.2566  0.0797 -0.0432
12136TIP3    H157899   1.945   3.543  16.735 -1.3317  1.9406 -0.0988
12136TIP3    H257900   2.006   3.660  16.661  0.1121  0.1724 -1.8223
12137TIP3   OH257901   2.946   1.534  11.240 -0.4628 -0.0006 -0.0110
12137TIP3    H157902   2.996   1.464  11.197  0.5301 -0.4197  1.7205
12137TIP3    H257903   2.855   1.507  11.232 -0.2355 -0.4853 -1.0950
12138TIP3   OH257904   3.821   2.757  11.996  0.2209  0.0595  0.1520
12138TIP3    H157905   3.905   2.721  11.966  0.7444 -0.1567  1.7533
12138TIP3    H257906   3.844   2.842  12.034  0.0682 -0.7835  2.2645
12139TIP3   OH257907   2.772   2.011  14.720 -0.5330  0.0608 -0.2923
12139TIP3    H157908   2.752   2.105  14.730  2.2405  0.5494  1.8495
12139TIP3    H257909   2.715   1.969  14.785 -0.8725  0.4005 -0.3609
12140TIP3   OH257910   5.357   3.154  11.574  0.6816 -0.4358 -0.3250
12140TIP3    H157911   5.375   3.181  11.664 -0.8311  2.2567 -0.7008
12140TIP3    H257912   5.263   3.134  11.573  1.0328 -2.2643 -0.9493
12141TIP3   OH257913   0.949   6.552  15.814 -0.0037 -0.3386 -0.0483
12141TIP3    H157914   0.964   6.633  15.765  0.4453  0.0657  0.7466
12141TIP3    H257915   1.035   6.527  15.846 -0.5261  0.4227  2.1081
12142TIP3   OH257916   6.613   1.542   2.895 -0.5766 -0.6739  0.3853
12142TIP3    H157917   6.596   1.448   2.902 -0.9871 -0.5631  1.0566
12142TIP3    H257918   6.526   1.581   2.887 -0.5541 -0.2203  2.0191
12143TIP3   OH257919   0.390   2.573   5.997  0.1815 -0.0630  0.5954
12143TIP3    H157920   0.298   2.595   6.016 -0.3612 -1.5999 -0.0559
12143TIP3    H257921   0.397   2.481   6.021  1.4287 -0.0967  0.1373
12144TIP3   OH257922   3.152   3.887  12.061 -0.6652  0.2991 -0.8501
12144TIP3    H157923   3.134   3.803  12.019  2.3294  0.3180 -2.4562
12144TIP3    H257924   3.112   3.879  12.148 -0.1459 -3.0006 -0.7687
12145TIP3   OH257925   4.102   3.821  14.270 -0.0289 -0.1092  0.3032
12145TIP3    H157926   4.070   3.811  14.180  1.0704  2.0761 -0.3848
12145TIP3    H257927   4.045   3.888  14.308  0.1703 -0.2771  0.9090
12146TIP3   OH257928   0.816   5.701   0.672  0.3540  0.2783 -0.3432
12146TIP3    H157929   0.894   5.714   0.618  1.6770  0.4854  1.5070
12146TIP3    H257930   0.844   5.638   0.739 -1.5704 -0.8804 -0.5526
12147TIP3   OH257931   0.226   4.702   5.168 -0.4967 -0.4130  0.3080
12147TIP3    H157932   0.203   4.794   5.153  1.0454 -0.1805 -0.8186
12147TIP3    H257933   0.213   4.660   5.083 -0.6767 -1.1412  0.6889
12148TIP3   OH257934   6.318   0.601   4.905  0.0420  0.0806  0.0156
12148TIP3    H157935   6.352   0.511   4.902  0.4442  0.2341  0.0163
12148TIP3    H257936   6.370   0.649   4.841  0.3856  0.5065  0.6046
12149TIP3   OH257937   4.877   2.817   2.349 -0.1569  0.1616 -0.7461
12149TIP3    H157938   4.850   2.737   2.393 -0.5405  0.6315 -0.0999
12149TIP3    H257939   4.824   2.820   2.270  0.6571 -0.7765 -1.3514
12150TIP3   OH257940   0.730   3.103  12.125 -0.3643 -0.1550  0.0896
12150TIP3    H157941   0.707   3.120  12.217  2.5294 -1.1682  1.1316
12150TIP3    H257942   0.779   3.181  12.098  2.6934 -1.6051  1.0078
12151TIP3   OH257943   3.546   1.469   0.479  0.7824  0.5212 -0.2747
12151TIP3    H157944   3.632   1.452   0.518  0.5502  0.3638  0.1827
12151TIP3    H257945   3.487   1.409   0.526  0.1067  1.8794  0.6678
12152TIP3   OH257946   0.837   2.685  13.181 -0.3810  0.1236 -0.1431
12152TIP3    H157947   0.756   2.709  13.226  0.1952  0.1122  0.9422
12152TIP3    H257948   0.902   2.680  13.251  0.4030 -0.5614 -0.9058
12153TIP3   OH257949   1.579   6.601   4.650  0.5461 -0.3888  0.4690
12153TIP3    H157950   1.509   6.537   4.637  0.5473 -0.0974 -1.3090
12153TIP3    H257951   1.635   6.591   4.573 -0.4175  2.8676 -0.8449
12154TIP3   OH257952   0.525   3.012  16.866  0.3009 -0.8181 -0.6115
12154TIP3    H157953   0.466   2.937  16.878 -2.3287  0.8326 -2.1456
12154TIP3    H257954   0.527   3.055  16.951 -2.0015 -0.1255 -0.8358
12155TIP3   OH257955   5.103   0.694   0.789  0.4696 -0.1915  1.1555
12155TIP3    H157956   5.136   0.767   0.841 -0.2435 -1.2662  3.2352
12155TIP3    H257957   5.134   0.616   0.835  0.3357 -1.2242 -0.4128
12156TIP3   OH257958   1.502   2.227   1.118  0.1837 -0.5056  0.1315
12156TIP3    H157959   1.525   2.195   1.205  0.5380 -1.1333 -0.1902
12156TIP3    H257960   1.407   2.218   1.114 -0.4610  3.3454  1.9665
12157TIP3   OH257961   1.362   0.629  12.166  0.2220 -0.4049  0.6613
12157TIP3    H157962   1.336   0.687  12.094  0.8414 -0.7691  0.1266
12157TIP3    H257963   1.456   0.616  12.152  0.1236 -1.3864  0.8786
12158TIP3   OH257964   5.590   1.764  14.574 -0.0216 -0.1311  0.0178
12158TIP3    H157965   5.615   1.819  14.500 -1.9778  1.6867  0.6095
12158TIP3    H257966   5.641   1.798  14.648  0.0916 -0.3165  0.0273
12159TIP3   OH257967   3.008   0.186   3.656  0.5646  0.9529 -0.3541
12159TIP3    H157968   3.097   0.171   3.689  0.1889  0.3818  0.4282
12159TIP3    H257969   2.954   0.126   3.706 -0.2082  0.9726 -1.1520
12160TIP3   OH257970   4.954   6.059   0.469 -0.5324  0.6856 -0.2319
12160TIP3    H157971   4.912   6.145   0.474  0.7902  1.4575 -1.3681
12160TIP3    H257972   4.965   6.032   0.560 -1.6539  1.3612  0.1256
12161TIP3   OH257973   3.305   2.599   5.349 -0.2796  0.1957 -0.0692
12161TIP3    H157974   3.332   2.648   5.271 -0.4069 -0.1606 -0.3377
12161TIP3    H257975   3.361   2.634   5.419  0.1689  0.1792 -0.4142
12162TIP3   OH257976   0.387   5.565   4.893  0.3542 -0.1127  0.1372
12162TIP3    H157977   0.377   5.484   4.844 -3.4321  0.4308 -0.2876
12162TIP3    H257978   0.414   5.630   4.827  1.1467 -0.5509  0.0225
12163TIP3   OH257979   2.657   1.563  16.715  0.2147  0.1449  0.0102
12163TIP3    H157980   2.669   1.658  16.711  1.8777 -0.0725 -1.7602
12163TIP3    H257981   2.708   1.529  16.641 -2.4026 -1.9534 -0.9843
12164TIP3   OH257982   0.010   3.637  12.110  0.7831  0.4310  0.7167
12164TIP3    H157983  -0.012   3.696  12.037  0.2868  0.3824  0.8235
12164TIP3    H257984   0.069   3.573  12.071 -0.0422 -0.0266  0.1613
12165TIP3   OH257985   5.467   3.192  17.071  0.1833 -0.4229 -0.6890
12165TIP3    H157986   5.502   3.103  17.070  0.0423 -0.5079  0.4339
12165TIP3    H257987   5.388   3.186  17.125  0.0084  0.3249 -0.8511
12166TIP3   OH257988   6.724   6.818   1.377 -0.4943 -0.1713  0.0293
12166TIP3    H157989   6.651   6.756   1.383 -0.6863  0.1711  1.9243
12166TIP3    H257990   6.725   6.845   1.285 -1.2183 -1.9875 -0.5550
12167TIP3   OH257991   1.625   0.553   0.960 -0.2554 -0.3393  0.2704
12167TIP3    H157992   1.530   0.565   0.959 -0.1035  0.8997 -0.7978
12167TIP3    H257993   1.649   0.544   0.868  0.3900 -3.2969  0.6387
12168TIP3   OH257994   4.333   3.375   3.768 -0.0395 -0.4943 -0.7348
12168TIP3    H157995   4.287   3.301   3.806  1.2955 -0.0962  1.9974
12168TIP3    H257996   4.293   3.452   3.810  0.8876  0.0472 -0.8094
12169TIP3   OH257997   2.038   4.365   1.470  0.1280  0.0672 -0.2050
12169TIP3    H157998   2.049   4.420   1.392  0.8270 -0.9463 -0.8470
12169TIP3    H257999   2.117   4.381   1.522 -0.5381  1.0704  0.5216
12170TIP3   OH258000   2.560   5.066   2.967  0.5891  0.6122 -0.1999
12170TIP3    H158001   2.589   5.067   2.876 -1.0606 -0.7696 -0.7997
12170TIP3    H258002   2.544   5.158   2.987 -2.1360  0.7679 -2.4410
12171TIP3   OH258003   5.109   2.033  13.016  0.0022  0.2107  0.2621
12171TIP3    H158004   5.175   2.028  13.084  1.6752  0.5078 -1.2757
12171TIP3    H258005   5.122   2.119  12.975  0.4389 -0.7553 -1.7407
12172TIP3   OH258006   5.710   2.368   4.545 -0.3346  0.1920 -0.1807
12172TIP3    H158007   5.803   2.355   4.562 -0.4363 -0.5885 -0.1979
12172TIP3    H258008   5.670   2.372   4.632 -0.2500  0.8076 -0.1686
12173TIP3   OH258009   5.370   1.182   5.994  0.0345 -0.1671 -0.7712
12173TIP3    H158010   5.417   1.118   6.047 -0.2722  1.0252  1.0513
12173TIP3    H258011   5.279   1.177   6.024  0.2737  2.1767  0.6492
12174TIP3   OH258012   5.556   1.050   4.673  0.3591 -0.4585  0.0662
12174TIP3    H158013   5.573   1.101   4.594 -0.4870 -2.3341 -1.3786
12174TIP3    H258014   5.612   1.091   4.740  1.3511  0.9580 -1.5448
12175TIP3   OH258015   0.824   2.498  10.819  0.1918 -0.4736  0.4491
12175TIP3    H158016   0.851   2.537  10.736 -0.1324 -0.1094  0.5106
12175TIP3    H258017   0.767   2.425  10.793  0.3568 -0.5649  0.3445
12176TIP3   OH258018   5.004   0.242  12.256  0.1892 -0.7925  0.1125
12176TIP3    H158019   5.045   0.156  12.244 -0.7532 -1.1601 -0.6929
12176TIP3    H258020   5.058   0.287  12.320  0.8295 -1.9115  0.3713
12177TIP3   OH258021   1.129   6.333   0.156 -0.1071  0.8146  0.1725
12177TIP3    H158022   1.070   6.320   0.231 -2.0957  0.7562 -1.3180
12177TIP3    H258023   1.198   6.269   0.168 -0.3637  0.8179  1.9549
12178TIP3   OH258024   3.243   1.149   5.901  0.0806  0.2352  0.9003
12178TIP3    H158025   3.175   1.096   5.862  0.0660  0.9799 -0.1209
12178TIP3    H258026   3.284   1.092   5.966 -0.2580 -0.8362  0.1914
12179TIP3   OH258027   1.602   2.630   1.450 -0.5739 -0.4808  0.2019
12179TIP3    H158028   1.644   2.560   1.501  0.0982 -0.4013 -0.2200
12179TIP3    H258029   1.638   2.711   1.486 -0.9598 -0.3710  0.3469
12180TIP3   OH258030   1.711   4.198   1.147  0.3861  0.7496  0.0894
12180TIP3    H158031   1.763   4.274   1.174  2.5026 -0.3978 -0.5248
12180TIP3    H258032   1.704   4.146   1.227 -2.0845  2.0403  0.8222
12181TIP3   OH258033   0.565   1.905   0.484  0.4098  1.0539  0.3386
12181TIP3    H158034   0.647   1.947   0.459  1.4364 -0.8325  0.4275
12181TIP3    H258035   0.525   1.878   0.402  0.9833 -0.0082  0.3945
12182TIP3   OH258036   4.664   5.407  11.568  0.2275 -0.5882  0.5613
12182TIP3    H158037   4.577   5.375  11.544  0.3124 -0.9766  0.7565
12182TIP3    H258038   4.662   5.500  11.546 -0.2148 -0.6071  0.5027
12183TIP3   OH258039   4.924   0.836  13.686 -0.3114 -0.4571 -0.8606
12183TIP3    H158040   4.935   0.813  13.778 -1.1088  0.4663 -0.5177
12183TIP3    H258041   4.866   0.912  13.687  1.5242  1.0676 -1.9744
12184TIP3   OH258042   6.299   6.135  14.865 -0.7962  0.8228 -0.2244
12184TIP3    H158043   6.263   6.223  14.866  0.4501  1.3515 -0.4718
12184TIP3    H258044   6.375   6.140  14.807 -1.0765 -0.5688 -0.7600
12185TIP3   OH258045   1.572   1.085   5.230  0.1397  0.0735  0.2212
12185TIP3    H158046   1.502   1.117   5.287  0.5357 -1.1881  1.4900
12185TIP3    H258047   1.611   1.164   5.192 -0.9940  0.8696  0.6680
12186TIP3   OH258048   0.620   4.654  12.498 -0.0895  0.4279  0.9601
12186TIP3    H158049   0.613   4.743  12.464  0.6977 -0.1756 -0.9506
12186TIP3    H258050   0.544   4.608  12.460  1.5632 -0.6094 -1.3362
12187TIP3   OH258051   1.591   4.771   6.474  0.1955 -0.8125 -0.0255
12187TIP3    H158052   1.590   4.679   6.446  1.9187 -0.7466 -0.4328
12187TIP3    H258053   1.622   4.768   6.565 -1.0259 -0.7120  0.4042
12188TIP3   OH258054   5.896   6.047   6.283 -0.4422  0.5129  0.1272
12188TIP3    H158055   5.848   6.056   6.365 -0.4097  0.5662  0.1401
12188TIP3    H258056   5.926   6.135   6.262 -2.7504  1.0400 -1.3505
12189TIP3   OH258057   3.158   4.447  13.727 -0.5424  0.3846  0.4524
12189TIP3    H158058   3.130   4.494  13.806 -0.5100 -0.2854  0.8760
12189TIP3    H258059   3.086   4.388  13.708  0.2560 -0.8703  1.1525
12190TIP3   OH258060   3.912   2.435   5.718  0.6879  0.3820  0.0569
12190TIP3    H158061   3.990   2.443   5.663  0.4009  1.7149 -0.1832
12190TIP3    H258062   3.918   2.508   5.779 -0.3481  0.4812  0.0525
12191TIP3   OH258063   4.029   1.209  15.168  0.2178 -0.5721  0.1911
12191TIP3    H158064   4.059   1.179  15.082 -0.1706  0.4408 -0.3155
12191TIP3    H258065   3.933   1.207  15.162  0.1831 -1.2985  0.8959
12192TIP3   OH258066   0.618   5.173   5.478 -0.0819 -0.1272 -0.1011
12192TIP3    H158067   0.616   5.212   5.390 -0.3877  0.7015  0.2598
12192TIP3    H258068   0.706   5.138   5.487  0.5078  1.3130 -0.0983
12193TIP3   OH258069   3.673   6.746   3.777 -0.1610 -0.3133  0.2141
12193TIP3    H158070   3.667   6.842   3.783 -1.6910 -0.4555  1.6626
12193TIP3    H258071   3.724   6.731   3.698 -1.8117  1.6897 -1.3784
12194TIP3   OH258072   2.170   2.615  14.222  0.0343 -0.1393 -0.1635
12194TIP3    H158073   2.107   2.686  14.209 -0.4618 -0.6537 -0.6229
12194TIP3    H258074   2.125   2.554  14.281  0.1522 -0.4447 -0.3887
12195TIP3   OH258075   1.207   5.699  15.846  0.0580 -0.2667 -0.4812
12195TIP3    H158076   1.141   5.635  15.874  0.3863 -0.7215 -0.7254
12195TIP3    H258077   1.163   5.750  15.778 -1.1180  1.5742  1.5465
12196TIP3   OH258078   2.675   3.098   4.844  0.0471 -0.3994 -0.1978
12196TIP3    H158079   2.678   3.002   4.846  0.2356 -0.4119 -0.9611
12196TIP3    H258080   2.765   3.125   4.855 -0.2092 -0.2548  1.8753
12197TIP3   OH258081   2.923   4.940  11.854  0.2499  0.0911 -0.2410
12197TIP3    H158082   2.909   4.954  11.761 -0.9054  1.4321  0.1022
12197TIP3    H258083   2.926   5.029  11.892  2.5651 -0.3429  0.7613
12198TIP3   OH258084   4.289   5.358   1.218  0.1733 -0.5914  0.0595
12198TIP3    H158085   4.223   5.302   1.258  0.7323 -0.5099  1.1195
12198TIP3    H258086   4.366   5.302   1.211  0.5804 -0.1114  0.6506
12199TIP3   OH258087   6.332   6.710  17.074  0.6263  0.5991  0.4901
12199TIP3    H158088   6.385   6.667  17.141 -0.3912  0.7699  1.4419
12199TIP3    H258089   6.243   6.708  17.110 -0.0820  0.0144 -1.2036
12200TIP3   OH258090   5.138   1.115   2.812 -0.7407  0.1945 -0.5972
12200TIP3    H158091   5.109   1.206   2.816  1.1813  0.9237 -1.6667
12200TIP3    H258092   5.118   1.088   2.722 -0.3459 -0.0824 -0.6025
12201TIP3   OH258093   3.891   6.801   5.891  0.8986 -0.5044  0.4680
12201TIP3    H158094   3.838   6.838   5.962 -0.6340 -1.3443 -0.2054
12201TIP3    H258095   3.959   6.751   5.936 -0.5452 -1.7258  1.3722
12202TIP3   OH258096   5.119   3.995   4.055  0.3673  0.1658  0.1307
12202TIP3    H158097   5.207   4.032   4.052  0.4261  0.0097 -0.1006
12202TIP3    H258098   5.124   3.925   4.120 -0.0713  1.3957  1.5593
12203TIP3   OH258099   4.475   6.201   3.248 -0.2097  0.1131  0.1946
12203TIP3    H158100   4.530   6.152   3.187 -0.7589 -0.8117  0.4347
12203TIP3    H258101   4.401   6.231   3.196 -0.2699  0.0164  0.2250
12204TIP3   OH258102   0.031   6.149   2.045  0.1982 -0.1698  0.3913
12204TIP3    H158103   0.105   6.194   2.004  0.4931 -0.1623  0.9195
12204TIP3    H258104  -0.043   6.207   2.032  0.9451  1.5019  2.7792
12205TIP3   OH258105   1.400   2.552  11.754  0.2165 -0.4633 -0.2925
12205TIP3    H158106   1.365   2.635  11.720 -0.6437 -0.9220 -0.5585
12205TIP3    H258107   1.336   2.486  11.727  0.7682 -1.1854  0.1249
12206TIP3   OH258108   5.832   4.841  11.370 -0.5155 -0.4886 -0.0931
12206TIP3    H158109   5.927   4.828  11.366 -0.2051  0.6925  2.1435
12206TIP3    H258110   5.801   4.780  11.437 -0.8936  1.0315  1.1727
12207TIP3   OH258111   0.409   5.775  11.177 -0.1475 -0.4046 -0.5859
12207TIP3    H158112   0.420   5.846  11.113 -0.5274 -0.2259 -0.4535
12207TIP3    H258113   0.492   5.774  11.224  1.2637 -2.3409 -2.8525
12208TIP3   OH258114   6.679   4.100  14.108 -0.0019  0.0297  0.1543
12208TIP3    H158115   6.773   4.113  14.096  0.1592 -1.4525 -0.4013
12208TIP3    H258116   6.639   4.170  14.057  0.7929  0.2840 -0.1409
12209TIP3   OH258117   6.685   6.056  16.657  0.0657 -0.4442  0.3267
12209TIP3    H158118   6.739   6.131  16.633 -0.5097 -0.2396 -0.3457
12209TIP3    H258119   6.746   5.982  16.661  0.5010 -0.0891  0.2415
12210TIP3   OH258120   3.789   6.339   4.898  0.1199 -0.0796  0.3232
12210TIP3    H158121   3.854   6.396   4.856  0.8238 -1.6813 -0.8478
12210TIP3    H258122   3.740   6.301   4.825 -1.0703 -0.1455  1.1354
12211TIP3   OH258123   5.488   6.304   0.403  0.3186 -0.3437  0.2029
12211TIP3    H158124   5.563   6.320   0.461 -0.4004  1.2340  0.7288
12211TIP3    H258125   5.502   6.214   0.371  2.7135  0.0919 -0.1582
12212TIP3   OH258126   5.938   4.796  14.777 -0.4195 -0.0351  0.0144
12212TIP3    H158127   5.967   4.880  14.813  1.2499 -1.1597  1.4990
12212TIP3    H258128   5.862   4.772  14.831 -0.3923  0.1569  0.1392
12213TIP3   OH258129   4.737   0.611  15.324  0.6579 -0.0583 -0.4348
12213TIP3    H158130   4.654   0.659  15.317  0.4327 -0.5489 -1.2484
12213TIP3    H258131   4.804   0.677  15.304  0.3372 -0.0943 -1.7694
12214TIP3   OH258132   3.231   6.294  14.628  0.6165  0.0980 -0.2316
12214TIP3    H158133   3.307   6.351  14.640  0.3750  0.5524 -0.7479
12214TIP3    H258134   3.157   6.347  14.658  0.7721 -1.6105  3.8250
12215TIP3   OH258135   4.817   5.845  11.698 -0.1601 -0.4140  0.3878
12215TIP3    H158136   4.767   5.798  11.632 -0.0936  0.5687 -0.3862
12215TIP3    H258137   4.760   5.918  11.723  1.0945  1.1063 -0.9900
12216TIP3   OH258138   0.864   2.743  12.031 -0.5374  1.2832  0.2594
12216TIP3    H158139   0.826   2.819  11.988  0.0654  0.9666 -0.8750
12216TIP3    H258140   0.941   2.777  12.075 -1.8459  1.8578  2.2584
12217TIP3   OH258141   5.306   0.129  11.999  0.3438  0.3937 -0.0748
12217TIP3    H158142   5.373   0.161  11.939 -0.6531 -1.2080 -2.1471
12217TIP3    H258143   5.307   0.034  11.989 -0.0790  0.0596  2.2685
12218TIP3   OH258144   4.636   6.804   1.100 -0.4316 -0.1179  0.1479
12218TIP3    H158145   4.729   6.821   1.118 -0.2396 -0.5076 -0.4526
12218TIP3    H258146   4.636   6.721   1.052 -1.1474 -0.4935  0.7775
12219TIP3   OH258147   1.716   6.249  15.920  0.2987  0.0211 -0.0577
12219TIP3    H158148   1.689   6.199  15.997 -1.4148  0.5396 -0.2731
12219TIP3    H258149   1.775   6.190  15.873  0.6286 -0.6606  1.1668
12220TIP3   OH258150   3.603   6.250  15.128 -0.0989  0.3831 -0.6464
12220TIP3    H158151   3.671   6.295  15.079  0.2116 -0.1465 -0.7078
12220TIP3    H258152   3.583   6.308  15.201  1.2240  0.0200  0.0160
12221TIP3   OH258153   5.646   0.112   4.296 -0.7272 -0.5380  0.0210
12221TIP3    H158154   5.707   0.057   4.347  0.6403  0.2522 -0.6990
12221TIP3    H258155   5.560   0.090   4.331 -0.1216 -2.2368  0.5931
12222TIP3   OH258156   2.247   3.790  11.067 -0.3792  0.3066  0.2392
12222TIP3    H158157   2.323   3.733  11.080  0.1122  0.1971 -2.4678
12222TIP3    H258158   2.276   3.877  11.094 -0.0543 -0.1272  1.3193
12223TIP3   OH258159   5.045   6.230   4.267  0.1689  0.6383  0.0200
12223TIP3    H158160   5.096   6.267   4.194 -2.6079  2.0773 -1.3351
12223TIP3    H258161   4.964   6.281   4.268  0.4738  1.4906  4.9477
12224TIP3   OH258162   3.994   5.283  16.059 -0.0359  0.4408 -0.3957
12224TIP3    H158163   4.021   5.273  16.150 -0.5885 -0.6870 -0.3474
12224TIP3    H258164   4.067   5.247  16.008 -0.3341 -0.2407 -0.3480
12225TIP3   OH258165   0.429   6.799   3.179 -0.1975  0.3347  0.3691
12225TIP3    H158166   0.521   6.816   3.199 -0.0071  0.4324 -0.5854
12225TIP3    H258167   0.383   6.878   3.209  0.2377  1.0062 -0.6920
12226TIP3   OH258168   5.776   3.051  13.800 -0.4559  0.1963  0.4583
12226TIP3    H158169   5.736   3.069  13.715  2.1322  0.1646 -0.8913
12226TIP3    H258170   5.763   2.957  13.814 -0.3773  0.0791 -0.2291
12227TIP3   OH258171   1.207   3.950  12.187 -0.3558 -0.1428  0.3415
12227TIP3    H158172   1.276   3.916  12.245 -0.0540  0.6635  0.4694
12227TIP3    H258173   1.242   3.936  12.099 -0.4000 -0.5026  0.3785
12228TIP3   OH258174   3.237   4.096   0.604  0.3484 -0.0699  0.2702
12228TIP3    H158175   3.225   4.125   0.694 -0.6183 -1.0319  0.4713
12228TIP3    H258176   3.327   4.119   0.583 -0.5633  4.0314  0.0433
12229TIP3   OH258177   6.388   0.870  10.661  0.5995  0.2668 -0.0860
12229TIP3    H158178   6.319   0.934  10.641 -0.3092  0.2001  2.3680
12229TIP3    H258179   6.401   0.879  10.756  1.3216 -2.3286  0.1388
12230TIP3   OH258180   2.392   5.264   3.205  0.1935 -0.3204  0.0537
12230TIP3    H158181   2.320   5.204   3.184 -1.2909  1.0908  0.9043
12230TIP3    H258182   2.389   5.330   3.136  0.3175  0.0482  0.3951
12231TIP3   OH258183   3.381   4.616  15.175 -0.2681 -0.3392 -0.3622
12231TIP3    H158184   3.369   4.695  15.122 -2.0923 -0.9004 -0.8680
12231TIP3    H258185   3.472   4.590  15.160  0.3068  1.5219 -0.3440
12232TIP3   OH258186   5.441   2.901   2.111  0.2523  0.8063 -0.1520
12232TIP3    H158187   5.478   2.921   2.197 -2.4764  1.2037  1.0478
12232TIP3    H258188   5.435   2.805   2.110 -2.6577  0.8302  1.6321
12233TIP3   OH258189   4.042   0.861  11.485  0.2861 -0.3650 -0.1489
12233TIP3    H158190   3.989   0.871  11.564  1.0456 -0.9750  0.4563
12233TIP3    H258191   4.126   0.903  11.507  0.4854 -0.4919 -0.6549
12234TIP3   OH258192   4.527   6.588  16.771 -0.1730 -0.1854 -0.1326
12234TIP3    H158193   4.588   6.527  16.730  0.7576 -0.4137  1.5225
12234TIP3    H258194   4.576   6.626  16.844 -1.5154  0.7892  0.3026
12235TIP3   OH258195   1.158   3.184  16.692 -0.4908  0.5529  0.1332
12235TIP3    H158196   1.202   3.118  16.638  0.3311  1.1059  0.1085
12235TIP3    H258197   1.083   3.139  16.730 -0.6262 -0.0631 -0.8470
12236TIP3   OH258198   6.624   4.814  15.672 -0.2475  0.0251 -0.0124
12236TIP3    H158199   6.710   4.772  15.666  0.7078  1.7901  0.7624
12236TIP3    H258200   6.584   4.774  15.750 -0.1921 -0.8653 -0.4230
12237TIP3   OH258201   3.714   1.535   2.220  0.1875  0.1809 -0.0352
12237TIP3    H158202   3.717   1.630   2.207  1.3428  0.0051 -1.3396
12237TIP3    H258203   3.762   1.521   2.302 -0.9030  0.7825  0.7337
12238TIP3   OH258204   3.676   2.814  11.533  0.3862  0.2439  0.1437
12238TIP3    H158205   3.608   2.839  11.471  0.0205  0.0433  0.4599
12238TIP3    H258206   3.633   2.814  11.618  0.5574 -0.7541  0.2382
12239TIP3   OH258207   1.780   2.090   6.156 -0.2061  0.0199  0.1395
12239TIP3    H158208   1.843   2.022   6.182  0.9839  1.0232 -0.0404
12239TIP3    H258209   1.746   2.059   6.072  0.0708 -0.5224  0.2172
12240TIP3   OH258210   5.852   2.919   3.666  0.3968 -0.5453 -0.3286
12240TIP3    H158211   5.818   2.945   3.751 -1.4789 -2.6908 -0.3350
12240TIP3    H258212   5.879   3.001   3.625  0.1186  0.6808  1.7912
12241TIP3   OH258213   1.975   4.824  11.471  0.2325  0.2025 -0.4797
12241TIP3    H158214   1.934   4.739  11.453 -0.8828  0.9192 -1.4577
12241TIP3    H258215   1.924   4.887  11.419  0.6855  1.5536  0.6579
12242TIP3   OH258216   3.728   4.369   5.202 -0.2054  0.1131 -0.5795
12242TIP3    H158217   3.810   4.330   5.233  0.4980  0.3979 -2.0016
12242TIP3    H258218   3.684   4.299   5.154 -0.1080  0.3612 -1.0363
12243TIP3   OH258219   5.709   3.490  13.759  0.4244 -0.2150  0.0132
12243TIP3    H158220   5.740   3.580  13.766 -0.5265 -0.0026  2.7016
12243TIP3    H258221   5.736   3.448  13.840 -2.4196 -1.2043  0.5892
12244TIP3   OH258222   1.597   5.132  13.987 -0.4730  0.5438  0.1923
12244TIP3    H158223   1.507   5.099  13.990 -0.6777  1.0705 -0.0110
12244TIP3    H258224   1.620   5.128  13.894 -0.7577  1.6342  0.0615
12245TIP3   OH258225   5.950   1.007  16.905  0.1031 -0.0970  0.0393
12245TIP3    H158226   5.968   0.927  16.855 -1.2632  0.5086 -1.5273
12245TIP3    H258227   5.855   1.009  16.912  0.2234  0.0549  2.4197
12246TIP3   OH258228   6.344   0.010  11.899 -0.1983  0.3518 -0.2296
12246TIP3    H158229   6.334  -0.085  11.889 -0.4817  0.3335  0.1768
12246TIP3    H258230   6.313   0.027  11.988 -0.8368  0.9227 -0.5496
12247TIP3   OH258231   4.835   2.185   4.842  0.6111 -0.6968  0.2731
12247TIP3    H158232   4.797   2.271   4.825 -1.1285 -1.9128 -3.0332
12247TIP3    H258233   4.781   2.147   4.910  0.4946  0.2707  0.7306
12248TIP3   OH258234   5.829   6.273  12.086 -0.0691 -0.1978 -0.3580
12248TIP3    H158235   5.873   6.205  12.137  0.4557  0.5714  0.2451
12248TIP3    H258236   5.867   6.267  11.999  0.2147 -0.4609 -0.2145
12249TIP3   OH258237   4.456   6.563  10.936 -0.2175 -0.5951  0.1899
12249TIP3    H158238   4.401   6.600  10.867  0.5382 -0.5431 -0.3986
12249TIP3    H258239   4.400   6.498  10.979 -0.3962 -1.3152 -1.0995
12250TIP3   OH258240   3.149   3.851  16.036  0.1868  0.4173 -0.1408
12250TIP3    H158241   3.243   3.870  16.026  0.0368  1.0074 -0.4378
12250TIP3    H258242   3.138   3.840  16.130  0.1657  2.4931  0.1396
12251TIP3   OH258243   2.000   3.452  14.022 -0.7158 -0.3401  0.2977
12251TIP3    H158244   2.077   3.471  13.967  0.1076  0.6090  1.6913
12251TIP3    H258245   2.010   3.361  14.047 -0.0611 -0.2515  0.3924
12252TIP3   OH258246   6.816   4.785  15.032 -0.4669 -0.4397  0.0830
12252TIP3    H158247   6.761   4.768  15.109  0.4371 -2.2768  0.3918
12252TIP3    H258248   6.893   4.829  15.067 -0.8692  0.3780 -0.0551
12253TIP3   OH258249   3.660   1.919   4.231 -0.1002 -0.4812  0.5944
12253TIP3    H158250   3.710   1.983   4.282 -0.4269 -0.0109  0.3374
12253TIP3    H258251   3.726   1.861   4.194  0.3314  0.5374 -0.3073
12254TIP3   OH258252   5.209   1.750   0.593  0.5149 -0.0858  0.0973
12254TIP3    H158253   5.281   1.721   0.649  0.0326 -0.9801  0.2628
12254TIP3    H258254   5.140   1.776   0.654  0.2900 -0.2810 -0.0734
12255TIP3   OH258255   0.337   6.448   4.345 -0.2665  0.4992 -0.1515
12255TIP3    H158256   0.329   6.354   4.331  2.0265  0.2262 -0.0789
12255TIP3    H258257   0.375   6.456   4.432  0.0978  1.4564 -0.3872
12256TIP3   OH258258   0.480   5.737   6.485 -0.1104 -0.1357 -0.0170
12256TIP3    H158259   0.485   5.758   6.578  1.7714  0.4450 -0.1981
12256TIP3    H258260   0.552   5.787   6.446 -1.2147  0.0670 -1.8781
12257TIP3   OH258261   6.537   4.736   3.225  0.0620 -0.3156  0.0305
12257TIP3    H158262   6.517   4.676   3.297 -0.7195  0.3151  0.3482
12257TIP3    H258263   6.552   4.821   3.268  0.4426 -0.1278 -0.4729
12258TIP3   OH258264   4.346   4.986  13.838 -0.1255  0.2072  0.3428
12258TIP3    H158265   4.284   4.941  13.894  0.1762 -0.3125  0.2665
12258TIP3    H258266   4.346   4.937  13.756  0.6846 -0.0542  0.4853
12259TIP3   OH258267   0.327   3.415  14.873 -0.0285  0.7049  0.4680
12259TIP3    H158268   0.300   3.388  14.961  0.9276 -1.8159  0.0658
12259TIP3    H258269   0.250   3.399  14.819  0.4544 -1.1963  0.2755
12260TIP3   OH258270   6.456   6.134  14.603  0.5718  0.2153  0.5275
12260TIP3    H158271   6.501   6.063  14.649  0.0895  0.2664  1.0810
12260TIP3    H258272   6.500   6.138  14.518  0.3140 -1.0266  0.3208
12261TIP3   OH258273   4.275   0.075  12.399 -0.1326 -0.3249 -0.7318
12261TIP3    H158274   4.331   0.152  12.385 -0.2012 -0.1660 -0.1306
12261TIP3    H258275   4.186   0.111  12.404  0.0221 -0.1018  2.0536
12262TIP3   OH258276   2.618   1.136   4.645  0.0647  0.2058 -0.2726
12262TIP3    H158277   2.683   1.187   4.694 -0.7367  2.2110 -1.1914
12262TIP3    H258278   2.552   1.115   4.710  0.7938 -0.3851  0.2992
12263TIP3   OH258279   5.912   0.229   3.082  0.3648  0.1386 -0.1048
12263TIP3    H158280   5.827   0.273   3.076  0.3136 -0.0560 -0.8631
12263TIP3    H258281   5.893   0.148   3.131  0.7843  1.7182  2.9592
12264TIP3   OH258282   3.562   5.086  12.334 -0.2403 -0.4418  0.3801
12264TIP3    H158283   3.509   5.006  12.334 -0.0669 -0.5778  1.9322
12264TIP3    H258284   3.557   5.117  12.244 -1.0320 -1.7247 -0.0531
12265TIP3   OH258285   0.573   4.791   0.735  0.6776  0.1140  0.0137
12265TIP3    H158286   0.583   4.879   0.697  1.5684  0.4812  1.0475
12265TIP3    H258287   0.544   4.808   0.825  1.7173 -0.6079  0.4984
12266TIP3   OH258288   1.869   1.352  13.214  0.4523 -0.0851  0.2109
12266TIP3    H158289   1.822   1.412  13.156  0.8616 -0.1318 -0.1798
12266TIP3    H258290   1.890   1.404  13.291 -0.1477 -0.0367  0.3466
12267TIP3   OH258291   0.981   6.084   4.074  0.0471 -0.6200 -0.5917
12267TIP3    H158292   0.957   6.038   3.993  0.3012 -2.4197  0.2880
12267TIP3    H258293   1.076   6.081   4.075  0.0441 -0.6167 -0.2364
12268TIP3   OH258294   3.137   5.730  14.002 -0.4452 -0.0606  0.0259
12268TIP3    H158295   3.106   5.640  13.996  0.2009 -0.2493 -0.6728
12268TIP3    H258296   3.230   5.722  14.025 -0.8086  0.4801  1.8330
12269TIP3   OH258297   3.114   2.417   1.211  0.0277  0.4143 -0.3013
12269TIP3    H158298   3.170   2.361   1.157  0.3688  0.7670 -0.3209
12269TIP3    H258299   3.136   2.391   1.301  1.5201  1.7519 -0.2503
12270TIP3   OH258300   3.103   4.203   3.965  0.2822 -0.3482 -0.4803
12270TIP3    H158301   3.068   4.289   3.942  2.0522  0.5741  0.0766
12270TIP3    H258302   3.061   4.143   3.903 -1.1453  0.8628 -0.7484
12271TIP3   OH258303   5.281   3.131   6.346  0.4646 -0.2496 -0.5173
12271TIP3    H158304   5.262   3.204   6.406  0.1267 -1.3858  0.8149
12271TIP3    H258305   5.372   3.144   6.321 -0.2076  1.8753 -2.1325
12272TIP3   OH258306   1.550   2.601  12.204 -0.1207  0.1073  0.2035
12272TIP3    H158307   1.509   2.519  12.177  0.8235  0.1642 -1.5790
12272TIP3    H258308   1.565   2.648  12.122 -1.1995  2.3655  1.2238
12273TIP3   OH258309   6.687   1.874   2.175 -0.1906  0.3772 -0.2511
12273TIP3    H158310   6.675   1.967   2.197 -1.6020  0.1550  0.0186
12273TIP3    H258311   6.769   1.872   2.125 -0.1173  1.7565 -0.2408
12274TIP3   OH258312   0.852   3.257  16.905  0.8261  0.6800 -0.0339
12274TIP3    H158313   0.825   3.168  16.927 -1.1696  1.0956 -0.5728
12274TIP3    H258314   0.892   3.291  16.985 -0.6644  0.1160  1.0073
12275TIP3   OH258315   4.866   6.820  14.080 -0.0611 -0.2795  0.5012
12275TIP3    H158316   4.793   6.834  14.140  0.3988 -0.6343  1.1576
12275TIP3    H258317   4.826   6.781  14.002 -0.5167 -0.8825  1.0285
12276TIP3   OH258318   1.993   4.321   5.302  0.1994  0.4400  0.1410
12276TIP3    H158319   1.936   4.245   5.308  0.9454 -0.3700 -1.9542
12276TIP3    H258320   1.945   4.391   5.346 -1.4854 -0.7010  0.2144
12277TIP3   OH258321   6.373   6.268   1.456 -0.5864  0.4417  0.5672
12277TIP3    H158322   6.452   6.222   1.427 -0.5676 -0.0481  1.3754
12277TIP3    H258323   6.345   6.221   1.534 -1.7192  0.5746  0.2524
12278TIP3   OH258324   6.111   5.581  15.952 -0.0176  0.2281 -0.4358
12278TIP3    H158325   6.187   5.638  15.940 -0.7433  1.3012 -0.0950
12278TIP3    H258326   6.041   5.639  15.982 -0.5014 -0.9960  0.9927
12279TIP3   OH258327   1.720   1.011  14.009 -0.2157 -0.1917  0.0570
12279TIP3    H158328   1.629   1.034  14.025 -0.7954 -1.1562 -1.7179
12279TIP3    H258329   1.769   1.068  14.068 -1.9076  0.9420  0.4298
12280TIP3   OH258330   3.200   5.227   3.378 -0.1183 -0.5601  0.2465
12280TIP3    H158331   3.172   5.169   3.449 -0.4867 -1.3342 -0.5156
12280TIP3    H258332   3.208   5.170   3.302  1.7074 -0.0144 -0.0224
12281TIP3   OH258333   2.065   0.339   3.096  0.1038 -0.8867  0.0823
12281TIP3    H158334   2.008   0.275   3.054 -0.4731  0.1733 -0.7944
12281TIP3    H258335   2.114   0.379   3.024 -0.0709  0.1565  0.5267
12282TIP3   OH258336   4.862   4.388  14.815 -0.3066 -0.0441 -0.0319
12282TIP3    H158337   4.811   4.428  14.885  1.0071  0.6049  0.5824
12282TIP3    H258338   4.946   4.367  14.855  0.3362 -0.0166 -1.3105
12283TIP3   OH258339   5.870   3.162  14.333 -0.0974  0.8418 -0.7234
12283TIP3    H158340   5.788   3.198  14.369  0.7096  3.0870 -0.9810
12283TIP3    H258341   5.849   3.143  14.242 -0.3295  1.5611 -0.8342
12284TIP3   OH258342   1.631   5.999   4.085  0.0571  0.0994 -0.2617
12284TIP3    H158343   1.616   6.093   4.091 -0.3816 -0.0227  0.7598
12284TIP3    H258344   1.544   5.960   4.098  0.2455 -0.4478 -0.6062
12285TIP3   OH258345   4.463   1.998  12.775 -0.0001 -0.0862  0.1625
12285TIP3    H158346   4.385   2.054  12.773 -1.8521 -2.4624  0.9483
12285TIP3    H258347   4.471   1.971  12.866  1.4863 -0.2653 -0.0014
12286TIP3   OH258348   5.005   2.050   6.135  0.8258 -0.3325 -0.2822
12286TIP3    H158349   5.004   2.059   6.040  0.9483  0.3911 -0.2190
12286TIP3    H258350   4.916   2.024   6.158  0.5233  0.4534 -0.5157
12287TIP3   OH258351   6.660   2.351   0.322  0.4329 -0.6010  0.1390
12287TIP3    H158352   6.639   2.303   0.401  1.0922 -2.5038 -0.7859
12287TIP3    H258353   6.579   2.395   0.298  0.6263  1.4494  2.7348
12288TIP3   OH258354   1.665   0.224   3.064  0.6519 -0.0254 -0.2708
12288TIP3    H158355   1.631   0.243   3.151 -1.2664  0.2172 -1.0196
12288TIP3    H258356   1.715   0.143   3.075 -1.7022 -1.4539  0.6224
12289TIP3   OH258357   2.452   2.239  13.391 -0.2280  1.0596 -0.1090
12289TIP3    H158358   2.504   2.162  13.414 -0.7212  0.7338 -0.0818
12289TIP3    H258359   2.452   2.292  13.470 -1.1163  0.3917  0.3552
12290TIP3   OH258360   0.196   6.720   5.387  0.3385 -0.0601 -0.5023
12290TIP3    H158361   0.207   6.732   5.292  0.8220 -0.4340 -0.4976
12290TIP3    H258362   0.258   6.651   5.409 -0.2085 -0.3947 -0.0103
12291TIP3   OH258363   2.320   4.253   5.731 -0.3821 -0.7346  0.2335
12291TIP3    H158364   2.351   4.166   5.704  0.7906 -0.0117 -0.8485
12291TIP3    H258365   2.229   4.256   5.700  0.2738 -0.7382 -1.8123
12292TIP3   OH258366   3.041   0.134  16.216 -0.6494 -0.1670  0.2883
12292TIP3    H158367   3.062   0.044  16.240 -0.5089 -0.1450  0.2481
12292TIP3    H258368   3.020   0.178  16.299 -2.0942 -0.5928  0.1725
12293TIP3   OH258369   6.423   1.900   5.218 -0.2467 -0.0154  0.6310
12293TIP3    H158370   6.510   1.916   5.181 -0.1825 -1.4391  0.0688
12293TIP3    H258371   6.434   1.819   5.269 -0.6214  1.2595  2.8521
12294TIP3   OH258372   0.462   6.171  12.127 -0.0763 -0.1369  0.5653
12294TIP3    H158373   0.450   6.262  12.156  2.1937  0.6686 -0.7630
12294TIP3    H258374   0.553   6.152  12.147 -0.0634 -1.5432 -0.7021
12295TIP3   OH258375   2.198   1.256   5.984 -0.1374  0.0707 -0.2839
12295TIP3    H158376   2.290   1.257   5.958 -0.0389  1.2422  0.0615
12295TIP3    H258377   2.179   1.346   6.009 -1.8348  0.2433 -1.9467
12296TIP3   OH258378   5.975   1.607   6.326 -0.0271  0.5898 -0.5994
12296TIP3    H158379   6.011   1.548   6.260 -2.1914 -2.2083  0.5135
12296TIP3    H258380   5.881   1.611   6.307 -0.8077 -0.5939  2.3909
12297TIP3   OH258381   1.681   5.597   5.751  0.4620 -0.3350 -0.2984
12297TIP3    H158382   1.682   5.537   5.825  0.4311 -0.4594 -0.3992
12297TIP3    H258383   1.597   5.644   5.759  1.1336  0.7717  0.6435
12298TIP3   OH258384   4.055   1.950   0.436  0.3782  0.9118  0.0684
12298TIP3    H158385   4.067   1.903   0.519 -0.1632  3.0696  1.4514
12298TIP3    H258386   4.143   1.953   0.398  0.4212 -1.1695 -0.0765
12299TIP3   OH258387   3.621   1.554  14.602 -0.4492  0.2023 -0.2767
12299TIP3    H158388   3.596   1.488  14.538  0.8426  0.8118 -1.4836
12299TIP3    H258389   3.539   1.586  14.638 -1.1190 -2.0845  0.4233
12300TIP3   OH258390   3.218   6.246  11.674  0.2229  0.1096  0.3561
12300TIP3    H158391   3.259   6.212  11.754  0.5545 -0.4577 -0.0448
12300TIP3    H258392   3.211   6.170  11.617  0.5942  0.6357 -0.4020
12301TIP3   OH258393   1.674   4.632   3.568  0.3620  0.2702  0.2632
12301TIP3    H158394   1.706   4.545   3.592 -0.7359 -0.2808 -0.1601
12301TIP3    H258395   1.578   4.623   3.571  0.2270  1.2139 -0.6430
12302TIP3   OH258396   1.146   3.804  15.027  0.3151  0.2629  0.4974
12302TIP3    H158397   1.134   3.726  14.973  0.1118  0.7494 -0.1668
12302TIP3    H258398   1.068   3.857  15.010 -0.8059 -0.4887  2.8443
12303TIP3   OH258399   2.624   2.075  10.879 -0.4982  0.6082  0.3372
12303TIP3    H158400   2.644   2.086  10.786  0.9724  2.3082  0.7772
12303TIP3    H258401   2.710   2.064  10.920 -1.1972 -1.3780  1.4028
12304TIP3   OH258402   2.725   0.708  15.781  0.0288 -0.1907 -0.7870
12304TIP3    H158403   2.766   0.691  15.866 -0.1141 -1.1948 -0.9123
12304TIP3    H258404   2.632   0.719  15.801  0.1314  0.5500 -0.6976
12305TIP3   OH258405   4.796   3.956   2.922 -0.1029 -0.5299 -0.1558
12305TIP3    H158406   4.724   3.996   2.872 -1.3229 -2.4258 -0.0335
12305TIP3    H258407   4.804   4.010   3.000  1.5564  2.2549 -2.0828
12306TIP3   OH258408   4.052   3.317  13.985  0.2124 -0.1310  0.2919
12306TIP3    H158409   4.111   3.392  13.978  0.3490 -0.2877 -0.3238
12306TIP3    H258410   3.968   3.356  14.011 -0.1771  0.4891 -1.6845
12307TIP3   OH258411   6.346   2.515  14.214  0.2675 -0.7029 -0.3832
12307TIP3    H158412   6.375   2.548  14.129 -0.6403 -2.9746 -1.6639
12307TIP3    H258413   6.251   2.524  14.212  0.2137 -1.0768  0.2519
12308TIP3   OH258414   3.546   6.619   4.425 -0.9362  0.8170  0.2864
12308TIP3    H158415   3.500   6.542   4.392  0.6642  0.1005 -0.3602
12308TIP3    H258416   3.601   6.648   4.353  0.6547  0.8091  1.4333
12309TIP3   OH258417   1.533   1.989  13.801 -0.1501  0.5440 -0.0650
12309TIP3    H158418   1.456   2.043  13.818  0.7311  1.6382  0.6270
12309TIP3    H258419   1.544   1.990  13.706 -0.3046  1.3762 -0.0771
12310TIP3   OH258420   4.554   1.138   2.061  0.0985  0.6074  0.8729
12310TIP3    H158421   4.477   1.104   2.107  0.2100 -0.5683  0.2236
12310TIP3    H258422   4.529   1.136   1.969  0.5793  1.1202  0.7250
12311TIP3   OH258423   5.875   3.753  14.730  0.0193  0.0888 -0.0990
12311TIP3    H158424   5.786   3.770  14.698 -0.2985 -0.3780  0.5266
12311TIP3    H258425   5.931   3.766  14.653 -0.6596 -0.2603 -0.6605
12312TIP3   OH258426   3.005   6.527  15.905 -0.0412  0.3026 -0.1683
12312TIP3    H158427   2.954   6.505  15.827  2.8111  1.1775 -2.4560
12312TIP3    H258428   2.992   6.621  15.916  0.1316  0.3122 -0.0445
12313TIP3   OH258429   5.736   2.788  13.880 -0.7671 -0.4305  0.4941
12313TIP3    H158430   5.651   2.751  13.855 -1.0521 -0.8709  1.9862
12313TIP3    H258431   5.787   2.712  13.910 -0.1745 -0.0530  0.4622
12314TIP3   OH258432   5.069   6.509   3.377 -0.4377  0.3931 -0.1473
12314TIP3    H158433   5.010   6.516   3.302 -1.3166 -0.0766  0.4857
12314TIP3    H258434   5.138   6.573   3.360 -0.4260  0.0409 -1.5368
12315TIP3   OH258435   4.472   0.432  12.849 -0.4911  0.4479 -0.1957
12315TIP3    H158436   4.498   0.427  12.757  2.4104 -0.0528  0.5524
12315TIP3    H258437   4.474   0.341  12.879  0.6541  0.7883  0.8285
12316TIP3   OH258438   2.429   4.239   4.771  0.2156  0.2230 -0.0669
12316TIP3    H158439   2.339   4.212   4.749  0.7998 -3.7832  1.5145
12316TIP3    H258440   2.424   4.265   4.863  0.4133  1.6749 -0.4564
12317TIP3   OH258441   1.558   2.576  10.739  0.2386 -0.7160  0.3814
12317TIP3    H158442   1.473   2.553  10.776 -0.6184  2.1144  0.3762
12317TIP3    H258443   1.556   2.541  10.650 -0.8619 -0.8132  0.4347
12318TIP3   OH258444   5.732   3.315  11.364  0.1044  0.2920 -0.7454
12318TIP3    H158445   5.695   3.259  11.295  2.9972 -1.3062 -1.1768
12318TIP3    H258446   5.782   3.381  11.316  0.2250  0.6119 -0.1761
12319TIP3   OH258447   4.640   3.633  14.052  0.1080 -0.3413  0.2856
12319TIP3    H158448   4.668   3.549  14.089  1.0770 -0.3376 -0.3956
12319TIP3    H258449   4.712   3.660  13.996 -0.5250  0.5726 -0.1235
12320TIP3   OH258450   2.930   0.763  15.042  0.3075 -0.3362 -0.3724
12320TIP3    H158451   2.957   0.682  15.000  0.6283 -0.8623  0.8050
12320TIP3    H258452   2.880   0.734  15.119 -2.4305  0.5817 -1.6700
12321TIP3   OH258453   0.563   2.462  17.206 -0.8462 -0.6540  0.5886
12321TIP3    H158454   0.577   2.451  17.300 -1.5867 -2.4321  0.5293
12321TIP3    H258455   0.584   2.377  17.169  0.7121  0.3802 -1.0489
12322TIP3   OH258456   6.645   5.863  10.764 -0.4163  0.3487 -0.6130
12322TIP3    H158457   6.719   5.920  10.739 -1.7671  1.6818 -1.7812
12322TIP3    H258458   6.596   5.914  10.828  0.2541 -1.0161  1.0671
12323TIP3   OH258459   3.864   1.010  14.239  0.8136  0.1779  0.5283
12323TIP3    H158460   3.950   1.004  14.197 -0.1725 -2.8550 -1.3803
12323TIP3    H258461   3.816   1.075  14.188  0.4209 -1.7569 -1.7263
12324TIP3   OH258462   5.525   4.692   2.184  0.4059 -0.0121 -0.4079
12324TIP3    H158463   5.576   4.632   2.238  0.4057  0.1101 -0.2701
12324TIP3    H258464   5.531   4.656   2.095 -0.8231 -1.0396 -0.0933
12325TIP3   OH258465   4.344   1.173  15.315 -0.1171  0.0010  0.0539
12325TIP3    H158466   4.369   1.157  15.224 -0.4773 -0.5107  0.0419
12325TIP3    H258467   4.332   1.268  15.321  2.6228  0.4086  0.2725
12326TIP3   OH258468   2.872   5.075   2.285  0.3559  0.0900  0.3456
12326TIP3    H158469   2.800   5.128   2.319 -0.2784  0.4359 -1.4074
12326TIP3    H258470   2.840   5.043   2.200  1.1171 -2.3059  0.9052
12327TIP3   OH258471   4.204   1.046  13.421  0.2233  0.1192  0.1486
12327TIP3    H158472   4.260   1.033  13.497 -0.1775  0.0771  0.4424
12327TIP3    H258473   4.264   1.065  13.349  0.5710  0.8527  0.6201
12328TIP3   OH258474   3.300   3.864  16.661 -0.2982 -0.2744 -0.1619
12328TIP3    H158475   3.278   3.781  16.703  1.3672 -0.0815  1.2026
12328TIP3    H258476   3.323   3.922  16.734 -0.8505  1.2149 -1.1336
12329TIP3   OH258477   5.347   4.247   5.299 -0.3724 -0.3060  0.8199
12329TIP3    H158478   5.413   4.256   5.231 -0.6330  0.1189  0.6186
12329TIP3    H258479   5.325   4.153   5.299 -0.6036 -0.2592  0.0975
12330TIP3   OH258480   4.127   6.524   6.302  0.7623  1.1816  0.0937
12330TIP3    H158481   4.217   6.497   6.282 -0.0090 -1.0760 -0.6589
12330TIP3    H258482   4.127   6.538   6.397  1.5362 -0.5451  0.3959
12331TIP3   OH258483   4.257   2.263   0.566  0.3937 -0.4955  0.3050
12331TIP3    H158484   4.171   2.250   0.526 -1.5715  3.4773  2.6112
12331TIP3    H258485   4.254   2.214   0.648 -0.3776  0.8477  1.1137
12332TIP3   OH258486   6.752   4.829  16.900 -0.0989  0.2844 -0.2606
12332TIP3    H158487   6.730   4.742  16.933  2.4518 -0.7583 -1.0869
12332TIP3    H258488   6.671   4.880  16.912 -1.1681 -1.6976  1.7641
12333TIP3   OH258489   3.753   3.988  14.924  0.4026  0.9905 -0.1205
12333TIP3    H158490   3.707   3.917  14.969 -1.1066  2.4631  0.7799
12333TIP3    H258491   3.702   4.002  14.844  0.3350  1.4385 -0.0028
12334TIP3   OH258492   1.388   4.791   4.803  0.1232  0.2459  0.1101
12334TIP3    H158493   1.421   4.726   4.865  1.0986 -0.0359 -0.6758
12334TIP3    H258494   1.450   4.863   4.809  1.5129 -0.6673 -2.0518
12335TIP3   OH258495   4.904   0.844   1.043  1.1283 -0.4778 -0.0238
12335TIP3    H158496   4.915   0.908   1.113 -0.6460  1.6285 -1.5624
12335TIP3    H258497   4.993   0.828   1.011  1.5854  1.7956 -0.0385
12336TIP3   OH258498   3.327   2.976  10.855 -0.0734 -0.2332 -0.3083
12336TIP3    H158499   3.380   3.046  10.816 -2.6284  1.8144 -0.4107
12336TIP3    H258500   3.322   2.909  10.786 -1.1991  1.5311 -2.0372
12337TIP3   OH258501   3.375   4.857  12.362 -0.2985  0.0962 -0.4869
12337TIP3    H158502   3.439   4.795  12.328 -0.8836 -1.0644  0.4728
12337TIP3    H258503   3.290   4.820  12.338 -0.6604  0.3790  0.3101
12338TIP3   OH258504   1.839   4.698   2.980  0.3204  0.1085  0.5164
12338TIP3    H158505   1.817   4.700   2.887  0.5317 -0.5624  0.4475
12338TIP3    H258506   1.931   4.725   2.984  0.5309 -0.5821  0.4535
12339TIP3   OH258507   6.004   6.084   4.515 -0.4697  0.2593 -0.2031
12339TIP3    H158508   6.045   6.024   4.453  0.2208  0.8395 -0.3168
12339TIP3    H258509   6.058   6.077   4.594 -1.0217 -0.0673  0.1515
12340TIP3   OH258510   6.076   4.521  14.070  0.3043  0.3745  0.2698
12340TIP3    H158511   6.016   4.551  14.138 -0.3066 -0.5039  0.1332
12340TIP3    H258512   6.089   4.598  14.015 -2.3459  0.1162 -0.8829
12341TIP3   OH258513   1.144   2.095   3.411 -0.1870  0.1375 -0.6606
12341TIP3    H158514   1.110   2.056   3.331  2.5975 -0.2053 -1.7949
12341TIP3    H258515   1.220   2.041   3.433  0.6065  1.7443  0.7729
12342TIP3   OH258516   5.361   0.504   4.545  0.1681  0.2699  0.8420
12342TIP3    H158517   5.267   0.485   4.541  0.1807 -0.4645  2.7815
12342TIP3    H258518   5.403   0.419   4.535  0.6678  0.6626 -0.5276
12343TIP3   OH258519   0.373   2.803  13.226  0.6739  0.0639 -0.0676
12343TIP3    H158520   0.288   2.792  13.270  0.0634 -0.0534 -1.2281
12343TIP3    H258521   0.373   2.893  13.195  0.3363 -0.3460 -1.3184
12344TIP3   OH258522   2.675   5.903  17.270  0.6145 -0.4815 -0.2218
12344TIP3    H158523   2.605   5.853  17.227 -0.9225  1.4109 -0.0595
12344TIP3    H258524   2.658   5.993  17.245  2.8661  0.0802  0.0858
12345TIP3   OH258525   2.000   3.744   5.671 -0.4045  0.2729 -0.3871
12345TIP3    H158526   1.992   3.838   5.660 -1.6966  0.2783  0.3587
12345TIP3    H258527   2.076   3.720   5.618  0.0122  1.7347 -0.5000
12346TIP3   OH258528   1.144   0.467  12.269  0.2105 -0.1397 -0.0683
12346TIP3    H158529   1.212   0.521  12.229  0.8673 -1.1079 -0.2986
12346TIP3    H258530   1.089   0.529  12.317  1.5314  0.6220  0.5298
12347TIP3   OH258531   6.716   2.944   1.185  0.5834  0.1260 -0.1157
12347TIP3    H158532   6.777   2.969   1.116  1.9162  0.6390  1.2051
12347TIP3    H258533   6.630   2.954   1.144  1.3209  0.2784 -1.7410
12348TIP3   OH258534   2.893   5.835   1.269 -0.3445 -0.0022 -0.0325
12348TIP3    H158535   2.930   5.858   1.184 -0.4608 -1.9811 -0.6744
12348TIP3    H258536   2.841   5.757   1.252 -1.1107  0.0803  1.7085
12349TIP3   OH258537   3.519   0.347   1.959  0.0927 -0.0458 -0.1319
12349TIP3    H158538   3.462   0.405   2.009  0.9753  1.7203 -1.0491
12349TIP3    H258539   3.509   0.377   1.868 -0.1409 -2.0009 -0.8036
12350TIP3   OH258540   2.875   1.047  13.390  0.5118 -0.5598 -0.1853
12350TIP3    H158541   2.873   0.983  13.319  1.5096 -1.7057  0.7763
12350TIP3    H258542   2.782   1.067  13.407  0.1923 -1.6104 -0.6239
12351TIP3   OH258543   2.644   4.062   3.443 -0.0046 -0.4140 -0.6849
12351TIP3    H158544   2.638   4.104   3.529 -0.1890 -0.2883 -0.7585
12351TIP3    H258545   2.738   4.062   3.422 -0.0372  0.2680 -0.8376
12352TIP3   OH258546   1.876   1.763  11.040 -0.3520  0.1599 -0.3934
12352TIP3    H158547   1.919   1.686  11.077 -1.3011  0.0637  0.5612
12352TIP3    H258548   1.835   1.806  11.115  1.3119  2.3988 -0.6625
12353TIP3   OH258549   6.615   0.393   5.559 -0.3015 -0.2457 -0.7401
12353TIP3    H158550   6.528   0.431   5.551 -0.5195 -0.7913 -0.9916
12353TIP3    H258551   6.611   0.312   5.510  0.0362 -0.8108  0.1338
12354TIP3   OH258552   5.062   5.105   3.660  0.6782  0.2204  0.2930
12354TIP3    H158553   4.987   5.148   3.618  0.8388 -0.1501 -0.3831
12354TIP3    H258554   5.136   5.127   3.604  1.2115  1.1570  1.3287
12355TIP3   OH258555   5.330   5.965  16.695 -0.4146 -0.0107  0.1192
12355TIP3    H158556   5.395   5.914  16.648  0.2865 -0.3351  1.3891
12355TIP3    H258557   5.336   6.053  16.658  1.2884  0.1508  0.7262
12356TIP3   OH258558   2.161   4.586   3.539 -0.3280  0.0535  0.6745
12356TIP3    H158559   2.223   4.604   3.610 -0.9799 -1.0251  1.5391
12356TIP3    H258560   2.182   4.497   3.511 -1.4490 -0.3050  0.9408
12357TIP3   OH258561   4.063   0.748   3.595  0.5268 -0.3557  0.3524
12357TIP3    H158562   4.104   0.739   3.509  0.7472  0.7272  0.3309
12357TIP3    H258563   3.969   0.746   3.577  0.5708  0.1190  0.0512
12358TIP3   OH258564   4.999   3.115   0.115  0.9569 -0.4783 -0.3156
12358TIP3    H158565   5.034   3.178   0.052  1.5142 -2.8994 -2.5846
12358TIP3    H258566   4.914   3.089   0.079  1.5263 -2.3070 -0.4400
12359TIP3   OH258567   6.366   3.940  16.324 -0.2000  0.5076 -0.1876
12359TIP3    H158568   6.358   3.908  16.234  0.3702  1.5515 -0.6368
12359TIP3    H258569   6.458   3.925  16.347  0.0573  1.6674 -0.3731
12360TIP3   OH258570   0.621   1.831  16.917 -0.6199  0.0270 -0.5499
12360TIP3    H158571   0.643   1.901  16.855 -1.6888 -0.4776 -1.5471
12360TIP3    H258572   0.576   1.765  16.863 -2.5740  0.0528  0.9545
12361TIP3   OH258573   1.180   3.845   1.256  0.2334  0.1793 -0.6108
12361TIP3    H158574   1.270   3.851   1.287  0.6585  1.0946 -1.9372
12361TIP3    H258575   1.161   3.751   1.257  1.4314 -0.0941 -0.8915
12362TIP3   OH258576   4.818   5.513  14.594 -0.3094  0.2910 -0.3419
12362TIP3    H158577   4.796   5.604  14.573 -1.8277  0.3621  1.2677
12362TIP3    H258578   4.772   5.461  14.528  1.3381  0.6717 -1.8480
12363TIP3   OH258579   4.977   6.548  15.084 -0.1698  0.5369  0.4155
12363TIP3    H158580   4.987   6.453  15.093 -0.4320  0.5023  0.3437
12363TIP3    H258581   4.937   6.576  15.166  2.3337  0.9627  1.5883
12364TIP3   OH258582   3.350   5.866  14.764 -0.8274  0.4628  0.5375
12364TIP3    H158583   3.442   5.860  14.741 -0.8942 -0.4299  0.4446
12364TIP3    H258584   3.317   5.942  14.716 -0.5248 -0.2190 -0.8135
12365TIP3   OH258585   2.747   1.202  15.845  0.1565 -0.2513  0.0834
12365TIP3    H158586   2.659   1.170  15.827 -0.3361 -0.0244  1.8590
12365TIP3    H258587   2.805   1.141  15.800 -0.8366 -2.1755  1.2578
12366TIP3   OH258588   1.858   5.306  16.325 -0.3178 -0.0125 -0.2633
12366TIP3    H158589   1.824   5.361  16.254 -1.0055 -1.2609 -0.9404
12366TIP3    H258590   1.780   5.282  16.375 -0.0755 -0.6926 -0.2140
12367TIP3   OH258591   0.252   6.605  16.746 -0.3462  0.3044  0.1053
12367TIP3    H158592   0.324   6.653  16.785 -0.7459  0.0467  1.2005
12367TIP3    H258593   0.200   6.672  16.701 -1.5426  1.1695  2.5761
12368TIP3   OH258594   2.645   1.665  13.183  0.3182 -0.4463  0.3909
12368TIP3    H158595   2.713   1.597  13.190  0.7110  0.0892  2.1580
12368TIP3    H258596   2.680   1.739  13.231 -0.4008  0.8221 -0.9600
12369TIP3   OH258597   0.053   6.312  13.691 -0.3913 -0.4688  0.2393
12369TIP3    H158598   0.023   6.403  13.691 -0.4318 -0.4214 -2.3891
12369TIP3    H258599  -0.024   6.261  13.667  0.2648 -0.8973 -1.0437
12370TIP3   OH258600   0.824   2.172   3.209  0.1716  0.1018 -0.2325
12370TIP3    H158601   0.737   2.197   3.177  0.0134 -0.5383 -0.3068
12370TIP3    H258602   0.829   2.211   3.296  0.2203  1.0159 -0.6330
12371TIP3   OH258603   1.326   3.826   4.280  0.0689  0.4540 -0.0407
12371TIP3    H158604   1.250   3.869   4.241  0.0760  0.2369 -0.2960
12371TIP3    H258605   1.346   3.754   4.220  2.7307  2.6123 -2.0210
12372TIP3   OH258606   5.970   4.919   3.014  0.2675  0.3216 -0.6040
12372TIP3    H158607   5.909   4.889   3.081  1.0520 -0.4486 -0.2178
12372TIP3    H258608   5.918   4.920   2.933 -0.3795  0.1591 -0.1990
12373TIP3   OH258609   0.967   4.898  11.275 -0.0588  0.0336  0.1103
12373TIP3    H158610   0.888   4.888  11.221 -0.1433  0.6594  0.1113
12373TIP3    H258611   0.979   4.993  11.282  0.9555 -0.0615 -0.2699
12374TIP3   OH258612   1.270   2.601  10.561  0.4221  0.3871  0.0551
12374TIP3    H158613   1.331   2.569  10.495 -0.5037 -0.7928 -0.2603
12374TIP3    H258614   1.295   2.693  10.574 -0.5790  1.2942 -3.3728
12375TIP3   OH258615   0.615   0.416   1.601  0.3853  0.1722  0.0760
12375TIP3    H158616   0.703   0.378   1.608 -0.0914 -1.0456 -0.2471
12375TIP3    H258617   0.593   0.408   1.508 -1.4910 -3.0342  0.6257
12376TIP3   OH258618   2.809   5.606  13.082  0.0144 -0.7714 -0.4654
12376TIP3    H158619   2.759   5.525  13.089  0.4865 -1.1148 -0.9946
12376TIP3    H258620   2.747   5.668  13.043  0.0058 -1.2087 -1.1721
12377TIP3   OH258621   0.196   1.600  17.239 -0.1874  0.0044 -0.0906
12377TIP3    H158622   0.279   1.559  17.213 -1.5396 -3.4635  0.4466
12377TIP3    H258623   0.208   1.622  17.331  0.1694 -0.4195 -0.0330
12378TIP3   OH258624   6.375   6.819  14.537 -0.2665  0.0632 -0.0282
12378TIP3    H158625   6.426   6.745  14.504  0.5973  0.9131 -0.6306
12378TIP3    H258626   6.437   6.890  14.544 -0.7310  0.3149  2.1424
12379TIP3   OH258627   2.011   3.741  12.954  0.4158 -0.2358  0.1783
12379TIP3    H158628   2.000   3.809  13.020  2.3869 -0.2854  0.6057
12379TIP3    H258629   1.922   3.716  12.930 -0.3706  2.4087  0.0573
12380TIP3   OH258630   3.079   0.569  14.220 -0.3423 -0.4422 -0.2920
12380TIP3    H158631   3.110   0.647  14.173  1.5653 -1.4675 -0.8267
12380TIP3    H258632   2.983   0.577  14.218 -0.2388  2.6228  0.9501
12381TIP3   OH258633   2.003   5.830  11.720 -0.2025  0.4394 -0.3099
12381TIP3    H158634   2.083   5.785  11.747 -1.9095 -2.3218  0.6346
12381TIP3    H258635   1.969   5.777  11.648 -0.9921  1.7892 -0.9719
12382TIP3   OH258636   6.754   2.236   3.175 -0.5745 -0.6558 -0.6585
12382TIP3    H158637   6.661   2.213   3.173 -1.5012  2.6036 -0.4230
12382TIP3    H258638   6.770   2.263   3.265 -0.4398  2.1706 -1.4182
12383TIP3   OH258639   3.581   2.882   5.843  0.3947 -0.1413 -0.6761
12383TIP3    H158640   3.662   2.901   5.890  0.0915 -0.4019 -0.0282
12383TIP3    H258641   3.514   2.931   5.891  0.1961  0.2337 -1.3276
12384TIP3   OH258642   6.332   4.694   3.892  0.5141  0.2121 -0.1637
12384TIP3    H158643   6.245   4.729   3.913  0.3004 -0.7881  0.6542
12384TIP3    H258644   6.320   4.600   3.888  1.6979  0.0074  0.6238
12385TIP3   OH258645   2.173   1.949   1.959  0.5475 -0.5443  0.2530
12385TIP3    H158646   2.085   1.967   1.993  0.1579 -0.1092 -0.9346
12385TIP3    H258647   2.195   2.026   1.907  2.0936 -0.1725  1.3979
12386TIP3   OH258648   3.233   0.111  12.361 -0.0248  0.5212 -0.1481
12386TIP3    H158649   3.258   0.122  12.270  0.4619 -1.3834 -0.2983
12386TIP3    H258650   3.152   0.060  12.359  0.1953  0.1194  0.4612
12387TIP3   OH258651   5.876   5.753  16.311 -0.3628  0.3694 -0.1906
12387TIP3    H158652   5.825   5.711  16.381  0.1047  0.8947  0.4822
12387TIP3    H258653   5.866   5.695  16.236  0.7623 -1.2950  0.8671
12388TIP3   OH258654   5.551   5.282   0.638  0.2595  0.3156 -0.2053
12388TIP3    H158655   5.468   5.266   0.594 -0.3837  1.4135  0.5687
12388TIP3    H258656   5.598   5.342   0.580  1.1706 -1.4298 -1.3611
12389TIP3   OH258657   2.967   5.118   3.076 -0.3312 -0.0382  0.2484
12389TIP3    H158658   2.884   5.104   3.123  0.3421 -1.0201  1.1843
12389TIP3    H258659   2.968   5.049   3.009 -0.2074 -0.1110  0.3256
12390TIP3   OH258660   1.108   2.277   1.400  0.1254 -0.2372 -0.2045
12390TIP3    H158661   1.150   2.345   1.347  0.7716  0.2518  0.9086
12390TIP3    H258662   1.156   2.278   1.483 -1.1589 -0.6882  0.5639
12391TIP3   OH258663   0.141   6.201   1.192  0.2429 -0.1133 -0.8517
12391TIP3    H158664   0.052   6.206   1.157 -1.0025 -0.8827  1.8709
12391TIP3    H258665   0.182   6.284   1.167 -1.4167  0.5060 -1.6854
12392TIP3   OH258666   5.651   0.864   3.129  0.5366  0.1831 -0.0376
12392TIP3    H158667   5.570   0.909   3.103  0.7871 -0.1033 -1.3869
12392TIP3    H258668   5.676   0.814   3.052  2.2104  0.5617  0.2220
12393TIP3   OH258669   6.586   1.515   1.776  0.4379 -0.0241  0.0596
12393TIP3    H158670   6.658   1.577   1.789  0.0277  0.5002 -0.1064
12393TIP3    H258671   6.517   1.547   1.834 -0.0741  0.1658 -0.6367
12394TIP3   OH258672   2.123   3.338  15.770 -0.3657 -0.2094  0.0337
12394TIP3    H158673   2.049   3.385  15.731  0.3639 -0.0055 -1.1649
12394TIP3    H258674   2.095   3.247  15.771 -0.8342 -0.0721  0.0806
12395TIP3   OH258675   0.904   0.939  11.740  0.3611 -0.1348  0.2717
12395TIP3    H158676   0.843   1.011  11.731  0.0921 -0.0928  2.0144
12395TIP3    H258677   0.890   0.885  11.663  1.9685  2.6290 -2.1733
12396TIP3   OH258678   0.865   5.728  16.588 -0.0404  0.6052 -0.5248
12396TIP3    H158679   0.797   5.793  16.570  1.1581  1.2445 -3.2413
12396TIP3    H258680   0.936   5.777  16.629 -0.4266  0.3060  0.5394
12397TIP3   OH258681   0.818   3.415  14.956 -0.4252 -0.7755 -0.0578
12397TIP3    H158682   0.739   3.433  14.905 -0.3105  2.0690  0.5928
12397TIP3    H258683   0.787   3.377  15.038 -1.2076  0.8875  0.4397
12398TIP3   OH258684   5.746   3.729  17.210  0.0816  0.2733 -0.2056
12398TIP3    H158685   5.720   3.812  17.250 -1.5984 -0.1585 -0.3048
12398TIP3    H258686   5.685   3.718  17.136 -0.8890 -1.8153  0.7990
12399TIP3   OH258687   0.490   4.977   1.697 -0.5410  0.3055  0.6963
12399TIP3    H158688   0.502   5.070   1.682  1.1805  0.1098  0.7211
12399TIP3    H258689   0.535   4.960   1.780 -1.3690 -0.4455  1.0113
12400TIP3   OH258690   6.499   5.875  11.862 -0.2399 -0.2855  0.1394
12400TIP3    H158691   6.487   5.953  11.916  1.4184  1.3535 -1.6805
12400TIP3    H258692   6.430   5.816  11.890 -2.2453  2.2339  0.9427
12401TIP3   OH258693   4.699   2.349  14.663  0.8254 -0.3166  0.0789
12401TIP3    H158694   4.630   2.291  14.631  0.6764 -0.8201  1.2740
12401TIP3    H258695   4.767   2.345  14.596  0.2673 -0.8644 -0.4620
12402TIP3   OH258696   4.580   6.366   4.894 -0.2664 -0.0493  0.1269
12402TIP3    H158697   4.510   6.373   4.829  0.0154 -0.4170 -0.2230
12402TIP3    H258698   4.579   6.274   4.921 -0.9053  0.2590  1.2469
12403TIP3   OH258699   3.159   0.514   1.749 -0.1357 -0.7709 -0.0162
12403TIP3    H158700   3.199   0.456   1.684 -0.0499  1.2880 -1.9059
12403TIP3    H258701   3.214   0.592   1.750 -1.8408  0.4873  0.2793
12404TIP3   OH258702   2.894   5.064  14.151 -0.1973 -0.5934  0.6361
12404TIP3    H158703   2.943   5.143  14.175  1.6958 -1.3879 -0.3505
12404TIP3    H258704   2.817   5.096  14.104  0.5555  0.6881  0.2297
12405TIP3   OH258705   2.682   4.182   0.066  0.4407  0.1780 -0.6006
12405TIP3    H158706   2.677   4.101   0.115  1.6236  2.1417  3.1921
12405TIP3    H258707   2.594   4.195   0.031 -0.3278 -1.6781  0.5144
12406TIP3   OH258708   1.385   2.195  11.865  0.3655  0.0325  0.4539
12406TIP3    H158709   1.315   2.256  11.843 -1.1791 -2.1296 -1.0527
12406TIP3    H258710   1.388   2.196  11.961 -0.3939  1.5629  0.4937
12407TIP3   OH258711   6.693   3.560   0.974 -0.3664  0.0153  0.2407
12407TIP3    H158712   6.685   3.655   0.961 -1.8336 -0.4124 -2.6799
12407TIP3    H258713   6.635   3.541   1.047  0.0279  1.3659  0.9371
12408TIP3   OH258714   3.593   4.591  12.322  0.1821  0.4169 -0.1437
12408TIP3    H158715   3.530   4.546  12.378  1.0972 -0.2719  0.3586
12408TIP3    H258716   3.570   4.563  12.233 -1.2854  1.5270 -0.1525
12409TIP3   OH258717   6.752   2.751  11.911  0.1917 -0.4120 -0.3936
12409TIP3    H158718   6.732   2.718  11.998 -0.9330 -0.2157 -0.5548
12409TIP3    H258719   6.708   2.836  11.906 -2.1605 -1.5741 -2.0383
12410TIP3   OH258720   2.314   1.175  11.223 -0.2810  0.1594  0.7028
12410TIP3    H158721   2.334   1.200  11.132  0.7902  1.7612  1.3263
12410TIP3    H258722   2.274   1.254  11.260 -1.4042 -0.7290  1.4395
12411TIP3   OH258723   4.719   4.764  12.676 -0.5170  0.3740  0.0420
12411TIP3    H158724   4.660   4.800  12.743 -1.0849 -0.9253  0.2703
12411TIP3    H258725   4.748   4.680  12.712 -2.1079 -1.1612 -1.9759
12412TIP3   OH258726   3.604   3.692  10.400 -0.2369  0.1444  0.1353
12412TIP3    H158727   3.525   3.746  10.405 -0.8736 -0.6155 -1.2110
12412TIP3    H258728   3.579   3.609  10.439 -0.2969 -0.2848 -0.7815
12413TIP3   OH258729   5.694   3.537   1.279 -0.6918  0.0725 -0.2627
12413TIP3    H158730   5.723   3.628   1.271  0.5917  0.1302  3.4767
12413TIP3    H258731   5.638   3.536   1.357 -0.4342 -2.3837 -0.0193
12414TIP3   OH258732   0.326   6.188  14.064  0.4765  0.1490 -0.4715
12414TIP3    H158733   0.315   6.202  13.970  0.7675 -2.2047 -0.9085
12414TIP3    H258734   0.272   6.111  14.084  1.6554 -0.3607  0.9770
12415TIP3   OH258735   5.119   6.461  11.583 -0.1652  0.4742  0.3807
12415TIP3    H158736   5.171   6.487  11.506 -0.2760  1.6331  0.6782
12415TIP3    H258737   5.059   6.394  11.550  0.3096  0.4044 -0.3666
12416TIP3   OH258738   0.461   5.561   1.518  0.0164  0.1424 -0.1014
12416TIP3    H158739   0.385   5.573   1.575 -0.6867 -0.7791 -0.8207
12416TIP3    H258740   0.437   5.489   1.461  0.6022  1.1775 -1.7283
12417TIP3   OH258741   3.388   1.279   0.595 -0.0788 -0.2260 -0.1607
12417TIP3    H158742   3.351   1.205   0.547  2.0278 -1.6804  0.3588
12417TIP3    H258743   3.358   1.267   0.685 -0.2777 -0.0689 -0.2052
12418TIP3   OH258744   5.855   3.194  11.586  0.2684 -0.0487 -0.4496
12418TIP3    H158745   5.855   3.265  11.650  0.6166 -1.2817  0.9775
12418TIP3    H258746   5.800   3.226  11.515  0.0598  1.4697  0.3512
12419TIP3   OH258747   3.880   4.043  16.748  0.3057 -0.2010  0.6023
12419TIP3    H158748   3.910   4.123  16.792  1.2018  0.1299 -0.5343
12419TIP3    H258749   3.900   4.059  16.655  2.0839 -2.4104  0.5183
12420TIP3   OH258750   0.418   2.756   2.820  0.3909 -0.4065  0.2601
12420TIP3    H158751   0.450   2.846   2.822  0.9654 -0.6065  1.5560
12420TIP3    H258752   0.381   2.745   2.733 -0.0032  1.1874  0.1968
12421TIP3   OH258753   6.343   4.760   4.248 -0.2445  0.1089 -0.0983
12421TIP3    H158754   6.370   4.846   4.216 -0.8110  0.3809  0.1406
12421TIP3    H258755   6.330   4.772   4.342 -2.3928  0.3196 -0.3731
12422TIP3   OH258756   6.359   5.312   1.702 -0.1455 -0.0170 -0.6763
12422TIP3    H158757   6.307   5.358   1.768  0.6297  0.1677 -0.1796
12422TIP3    H258758   6.317   5.335   1.618 -0.2299  0.9821 -0.3727
12423TIP3   OH258759   1.525   1.738  15.092 -0.4644  0.3105 -0.5873
12423TIP3    H158760   1.486   1.694  15.017 -1.7108 -0.5888  0.5470
12423TIP3    H258761   1.484   1.825  15.094 -0.9232  0.0950 -0.5730
12424TIP3   OH258762   1.368   3.718   3.364 -0.4716 -0.2237 -0.2523
12424TIP3    H158763   1.317   3.685   3.438  0.9575 -1.2722  0.3025
12424TIP3    H258764   1.456   3.730   3.399  0.3317 -1.1275 -1.8663
12425TIP3   OH258765   6.483   4.952  11.936  0.8028  0.2622  0.1306
12425TIP3    H158766   6.400   4.994  11.959  0.4248  0.0897 -0.8582
12425TIP3    H258767   6.536   4.960  12.014 -0.7391 -1.1138  1.4043
12426TIP3   OH258768   4.037   6.270   2.490  0.6328  0.0316 -0.2140
12426TIP3    H158769   4.019   6.325   2.414  1.6524 -1.5424 -1.6869
12426TIP3    H258770   3.955   6.225   2.507  0.8628 -0.9902 -1.6240
12427TIP3   OH258771   1.757   4.058   2.303 -0.1009  0.2334  0.2177
12427TIP3    H158772   1.756   4.152   2.322  0.8894  1.1944 -3.5224
12427TIP3    H258773   1.665   4.035   2.291 -0.2578  1.7367 -2.3124
12428TIP3   OH258774   2.014   3.058   4.961  0.9341  0.0647  0.0658
12428TIP3    H158775   2.040   2.979   5.009  0.3293  0.7367  1.5577
12428TIP3    H258776   2.085   3.074   4.900  1.1671 -1.5072 -0.1041
12429TIP3   OH258777   5.421   3.175  16.140  0.6295 -0.1767  0.0124
12429TIP3    H158778   5.360   3.184  16.067  0.6414  0.2950  0.0573
12429TIP3    H258779   5.367   3.143  16.213 -0.0222  2.1500  0.6384
12430TIP3   OH258780   4.954   6.742  14.711  0.1144  0.2112  0.1701
12430TIP3    H158781   5.004   6.777  14.638  0.0518 -2.7120 -1.4015
12430TIP3    H258782   4.993   6.657  14.730 -2.5990 -1.0798  0.5815
12431TIP3   OH258783   2.263   4.908   1.142 -0.0695 -0.2433  0.1037
12431TIP3    H158784   2.192   4.882   1.201 -1.0614  1.5781 -0.2268
12431TIP3    H258785   2.242   4.865   1.059 -2.0104  1.8731 -0.6060
12432TIP3   OH258786   2.136   6.425   5.889 -0.1926  0.0033 -0.0995
12432TIP3    H158787   2.228   6.404   5.904  0.1959 -0.3158 -2.5227
12432TIP3    H258788   2.089   6.346   5.915  0.4305 -0.5630 -0.6380
12433TIP3   OH258789   0.620   2.742  13.316  0.3175 -0.2999  0.3159
12433TIP3    H158790   0.629   2.786  13.401 -0.2201 -1.9501  1.2868
12433TIP3    H258791   0.535   2.771  13.283  0.1337 -0.3109  0.7652
12434TIP3   OH258792   2.884   2.473  14.363 -0.2000 -0.2871 -0.4932
12434TIP3    H158793   2.813   2.534  14.346  0.9261  1.1456 -0.2131
12434TIP3    H258794   2.887   2.464  14.458 -1.5954 -2.3554 -0.5727
12435TIP3   OH258795   4.535   6.786  12.060 -0.4364 -0.3514  0.0940
12435TIP3    H158796   4.440   6.794  12.046 -0.2696  0.2731 -0.7660
12435TIP3    H258797   4.564   6.874  12.082  0.1047 -0.3069 -0.7447
12436TIP3   OH258798   4.908   2.246  16.586  0.2878  0.1147  0.3930
12436TIP3    H158799   4.826   2.200  16.606 -0.6080  2.0148  1.4032
12436TIP3    H258800   4.973   2.204  16.643 -0.7952  0.9386  2.3347
12437TIP3   OH258801   4.152   5.088  14.627  0.1798  0.5631 -0.5251
12437TIP3    H158802   4.112   5.019  14.679 -0.5927 -0.3692 -2.2823
12437TIP3    H258803   4.107   5.168  14.653 -1.4829 -0.1680 -1.0557
12438TIP3   OH258804   0.716   1.578  13.020 -0.1697  0.2119 -0.1911
12438TIP3    H158805   0.749   1.521  12.951 -0.8737 -1.2044  0.5996
12438TIP3    H258806   0.726   1.666  12.985  0.4096 -0.4182 -1.6891
12439TIP3   OH258807   6.133   4.690  15.352  0.1039  0.4165 -0.1073
12439TIP3    H158808   6.053   4.642  15.372 -0.6086  1.9028  0.7425
12439TIP3    H258809   6.196   4.659  15.417  0.4986 -1.3055 -1.2363
12440TIP3   OH258810   3.696   6.770  12.837 -0.3970 -0.0106 -0.0934
12440TIP3    H158811   3.634   6.841  12.853 -1.4812 -1.2001  1.2219
12440TIP3    H258812   3.712   6.774  12.743  0.6553  2.8077  0.0961
12441TIP3   OH258813   2.341   1.103   1.002  0.8545 -0.7640  0.2321
12441TIP3    H158814   2.364   1.022   1.048  0.4893 -0.3981  1.0830
12441TIP3    H258815   2.249   1.117   1.024  1.4073  0.9038  1.6912
12442TIP3   OH258816   4.166   0.915   2.821  0.6066  0.0812 -0.3504
12442TIP3    H158817   4.206   0.987   2.773  1.5555  0.1539  0.4958
12442TIP3    H258818   4.098   0.882   2.763  2.4985 -0.6576 -2.2928
12443TIP3   OH258819   2.330   0.138   3.264 -0.2860  0.0772 -0.1053
12443TIP3    H158820   2.245   0.102   3.290  0.1364 -0.8496  0.0280
12443TIP3    H258821   2.378   0.147   3.347 -0.2745  0.6917 -0.1686
12444TIP3   OH258822   4.052   3.584   4.721  0.1123  0.5466 -0.6240
12444TIP3    H158823   4.125   3.544   4.675 -0.2785  0.7485 -1.4477
12444TIP3    H258824   4.035   3.527   4.796  0.8979  0.3312 -0.6127
12445TIP3   OH258825   0.068   0.470   3.679  0.2004  0.2697  0.2429
12445TIP3    H158826  -0.003   0.501   3.623  0.2596  1.0714  0.6008
12445TIP3    H258827   0.117   0.549   3.701  1.4157 -0.3094 -0.2743
12446TIP3   OH258828   0.811   5.946   4.271  1.0373 -0.0405  0.3090
12446TIP3    H158829   0.830   5.910   4.357  0.7378 -2.1134 -0.4236
12446TIP3    H258830   0.897   5.961   4.232  1.1694  0.1507  0.6688
12447TIP3   OH258831   0.285   5.034   4.493  0.1150 -0.0529 -0.2134
12447TIP3    H158832   0.278   5.129   4.493  1.3115  0.0642  0.8804
12447TIP3    H258833   0.232   5.006   4.419  0.3132  1.5112 -0.9914
12448TIP3   OH258834   6.671   4.379   4.612  0.2265 -0.4141 -0.0458
12448TIP3    H158835   6.656   4.449   4.548 -0.8525 -0.2823  0.3145
12448TIP3    H258836   6.655   4.298   4.564  2.3441 -0.5035 -0.6997
12449TIP3   OH258837   1.847   6.443  14.507  0.1752  0.0544 -0.5014
12449TIP3    H158838   1.784   6.431  14.579 -0.1205 -1.1664 -0.9415
12449TIP3    H258839   1.913   6.501  14.544  0.1934 -0.7825  0.8837
12450TIP3   OH258840   6.630   4.356   0.219 -0.0809 -0.7181 -0.0246
12450TIP3    H158841   6.657   4.361   0.311  0.7737 -2.4878 -0.1359
12450TIP3    H258842   6.608   4.446   0.196  0.1675 -0.1462  1.7629
12451TIP3   OH258843   6.273   6.103  15.284  0.6547  0.2552  0.3369
12451TIP3    H158844   6.247   6.155  15.208  1.8774  0.9694  0.3787
12451TIP3    H258845   6.192   6.091  15.334 -0.1577 -0.1708 -1.0209
12452TIP3   OH258846   4.112   1.559   5.000  0.4724  0.0653  0.4496
12452TIP3    H158847   4.037   1.540   4.944 -1.7608 -0.0302  3.2411
12452TIP3    H258848   4.135   1.650   4.980 -0.6367  0.2124 -0.2403
12453TIP3   OH258849   5.336   4.450  15.088  0.5670  0.3146 -0.4753
12453TIP3    H158850   5.397   4.513  15.050  1.4790  0.6044  1.3347
12453TIP3    H258851   5.374   4.428  15.173 -1.4735 -0.0779  0.4024
12454TIP3   OH258852   0.577   1.149  16.780 -0.2132  0.5646 -0.2451
12454TIP3    H158853   0.618   1.206  16.714 -2.4792  3.6998  0.7826
12454TIP3    H258854   0.510   1.101  16.732  0.8693 -0.3282 -0.9055
12455TIP3   OH258855   3.795   1.448  12.288  0.1386 -0.3770 -0.2615
12455TIP3    H158856   3.766   1.539  12.283 -0.8831 -0.6030  0.9674
12455TIP3    H258857   3.801   1.430  12.382 -3.1970 -2.5910 -0.2884
12456TIP3   OH258858   4.037   4.922   5.485 -0.0123 -0.0716  0.3183
12456TIP3    H158859   4.015   4.843   5.534 -0.4790 -0.3302 -0.2992
12456TIP3    H258860   3.953   4.969   5.477  0.4807  1.1769  1.8640
12457TIP3   OH258861   1.426   2.728  15.773 -0.2546 -0.8911  0.0275
12457TIP3    H158862   1.352   2.690  15.821 -1.7410 -0.4917 -1.8108
12457TIP3    H258863   1.447   2.663  15.706 -0.6500  0.0761 -1.0666
12458TIP3   OH258864   6.049   4.704  15.808 -0.1801  0.3816  0.1429
12458TIP3    H158865   6.033   4.747  15.724  0.9541 -1.5275 -1.1357
12458TIP3    H258866   6.062   4.776  15.870 -1.6661  1.8408 -1.1500
12459TIP3   OH258867   1.572   4.919   0.969 -0.3997  0.9327  1.1829
12459TIP3    H158868   1.507   4.967   1.020 -1.3693 -1.1654  2.0433
12459TIP3    H258869   1.610   4.857   1.032 -0.7185 -0.8530 -0.3094
12460TIP3   OH258870   1.176   5.198  14.107 -0.0259 -0.5549 -0.7966
12460TIP3    H158871   1.195   5.278  14.156 -0.3848 -0.4147 -0.8771
12460TIP3    H258872   1.086   5.176  14.132  0.0038 -0.8223 -0.9270
12461TIP3   OH258873   6.800   5.502  14.787  0.0903  0.0403  0.3717
12461TIP3    H158874   6.738   5.537  14.851 -0.9694 -0.1217 -0.5386
12461TIP3    H258875   6.784   5.408  14.787  0.3580 -0.0046  0.1345
12462TIP3   OH258876   4.088   0.527   0.166  0.0408  0.0550 -0.2918
12462TIP3    H158877   4.087   0.601   0.227  0.6765 -0.5023  0.4136
12462TIP3    H258878   4.178   0.495   0.169  0.3128  0.4931 -2.1368
12463TIP3   OH258879   5.133   0.135  17.013  0.3467  0.3111 -0.0208
12463TIP3    H158880   5.228   0.126  17.014  0.2688 -0.6475 -0.1598
12463TIP3    H258881   5.115   0.196  16.942  0.8442  0.3345 -0.1283
12464TIP3   OH258882   1.522   2.719   3.478  0.3049 -0.4608 -0.8391
12464TIP3    H158883   1.586   2.651   3.458 -0.7078 -1.8113  0.3123
12464TIP3    H258884   1.564   2.772   3.545  0.3210 -1.2009 -0.2496
12465TIP3   OH258885   0.801   0.220   6.100  0.1691 -0.1389  0.1279
12465TIP3    H158886   0.753   0.152   6.148 -0.2705 -0.9083 -1.3476
12465TIP3    H258887   0.755   0.301   6.121  0.5505 -0.3031  1.7186
12466TIP3   OH258888   1.908   1.460   4.744  0.6081 -0.3946  0.2743
12466TIP3    H158889   1.909   1.502   4.658 -0.4360 -1.0341 -0.0711
12466TIP3    H258890   2.000   1.436   4.761  1.0209  0.8926 -0.0671
12467TIP3   OH258891   1.072   2.747  15.649  0.0341 -0.1706  0.0576
12467TIP3    H158892   1.155   2.727  15.606 -0.0305  0.8459 -0.5771
12467TIP3    H258893   1.031   2.813  15.593 -2.3735 -2.3715 -1.0063
12468TIP3   OH258894   5.985   0.346   1.644 -0.4506  0.3099  0.1136
12468TIP3    H158895   6.073   0.359   1.610 -0.2628  0.9274  0.8085
12468TIP3    H258896   5.969   0.252   1.634  0.7242 -0.0109  0.9745
12469TIP3   OH258897   6.019   6.810   2.279 -0.0966 -0.5911  0.1604
12469TIP3    H158898   5.973   6.733   2.312 -0.6996 -0.2156  0.2024
12469TIP3    H258899   6.032   6.865   2.357  2.0821 -1.5042  0.5238
12470TIP3   OH258900   6.032   5.984  13.333  0.2345  0.2518  0.1257
12470TIP3    H158901   6.060   5.894  13.315  0.0061  0.3745 -0.9403
12470TIP3    H258902   6.110   6.037  13.317  0.2620  0.2833  0.3613
12471TIP3   OH258903   5.018   1.326  16.365  0.1278 -0.2156 -1.1393
12471TIP3    H158904   5.038   1.415  16.336  0.0833  0.3563  0.5137
12471TIP3    H258905   5.100   1.279  16.357  0.5288  0.3805 -0.6198
12472TIP3   OH258906   1.169   6.628  15.017 -0.2551 -0.1395  0.1325
12472TIP3    H158907   1.206   6.664  15.099 -0.1487 -0.5512  0.2663
12472TIP3    H258908   1.245   6.616  14.961 -0.0713 -1.7097  0.6812
12473TIP3   OH258909   2.831   2.022  10.254 -0.5387  0.0265  0.4552
12473TIP3    H158910   2.755   1.966  10.238  0.7621 -1.7830  0.1862
12473TIP3    H258911   2.825   2.044  10.347 -1.2166 -0.3718  0.5171
12474TIP3   OH258912   4.396   0.959  15.871 -0.1164  0.0001  0.4343
12474TIP3    H158913   4.443   0.892  15.822 -0.7939 -0.1587 -0.0179
12474TIP3    H258914   4.418   0.942  15.963  0.5622 -0.1705  0.2443
12475TIP3   OH258915   3.331   6.388   6.605 -0.4480  0.0722 -0.1592
12475TIP3    H158916   3.288   6.322   6.661  2.0723  0.2946  2.3038
12475TIP3    H258917   3.419   6.353   6.592  0.7857  2.5972  0.7361
12476TIP3   OH258918   3.699   0.494  11.111 -0.5273 -0.4193  0.9698
12476TIP3    H158919   3.605   0.482  11.098 -0.7522  1.3962  0.6008
12476TIP3    H258920   3.712   0.589  11.106  1.4931 -0.6933 -0.2031
12477TIP3   OH258921   5.254   2.372   0.815 -0.0946  0.4903  0.4300
12477TIP3    H158922   5.323   2.308   0.799 -0.1692  0.5383 -0.1043
12477TIP3    H258923   5.284   2.422   0.891  1.3768  1.7627 -0.9200
12478TIP3   OH258924   0.556   3.143  17.126 -0.4640  0.2723 -0.6487
12478TIP3    H158925   0.559   3.238  17.118  0.5437  0.5363  1.8748
12478TIP3    H258926   0.469   3.124  17.159 -0.0634  0.5505  0.6291
12479TIP3   OH258927   4.066   3.776  10.232 -0.0304  0.4721  0.2884
12479TIP3    H158928   4.076   3.774  10.327  1.7650  1.4139  0.1599
12479TIP3    H258929   4.059   3.684  10.207  0.9043  0.1175  1.2362
12480TIP3   OH258930   4.956   3.917   4.693  0.0339  0.1452  0.3361
12480TIP3    H158931   4.962   3.830   4.653  1.0289 -0.5552  1.9008
12480TIP3    H258932   4.993   3.976   4.628 -0.2334 -0.6506 -0.5743
12481TIP3   OH258933   6.028   1.546  14.161  0.0253 -0.2148 -0.5842
12481TIP3    H158934   6.099   1.558  14.224  0.2755 -3.0423 -0.1746
12481TIP3    H258935   6.068   1.565  14.076  0.9863 -0.7361 -0.2643
12482TIP3   OH258936   6.500   6.238  15.340 -0.3038  0.2529 -0.4618
12482TIP3    H158937   6.568   6.172  15.353  0.1171  0.5748 -0.9986
12482TIP3    H258938   6.422   6.188  15.316 -0.8991 -0.3186  2.2996
12483TIP3   OH258939   4.238   0.370  16.302  0.0215 -0.0479 -0.1085
12483TIP3    H158940   4.323   0.406  16.278 -0.4508  1.4566  0.3458
12483TIP3    H258941   4.247   0.276  16.291  1.4421  0.1723 -0.9986
12484TIP3   OH258942   6.599   1.950  13.502 -0.1298  0.0620 -0.0991
12484TIP3    H158943   6.641   2.016  13.557 -1.2464  0.9319 -0.2631
12484TIP3    H258944   6.657   1.943  13.426 -0.2272  1.2053 -0.2955
12485TIP3   OH258945   5.165   4.109   3.448 -0.1586 -0.1287 -0.7886
12485TIP3    H158946   5.176   4.014   3.434 -0.2905 -0.1545 -0.7154
12485TIP3    H258947   5.099   4.115   3.517 -1.2702  0.0510 -1.8513
12486TIP3   OH258948   1.206   6.756   4.331 -0.4036 -0.0992 -0.3858
12486TIP3    H158949   1.137   6.745   4.265 -0.6804 -2.1864  0.2071
12486TIP3    H258950   1.206   6.675   4.381  1.2599  0.5854  0.8359
12487TIP3   OH258951   1.097   3.574   1.219 -0.0514 -0.1067  0.2895
12487TIP3    H158952   1.087   3.498   1.161 -2.2979 -0.6468  1.2901
12487TIP3    H258953   1.166   3.548   1.280  1.5693  0.0417 -1.3730
12488TIP3   OH258954   2.100   0.532   5.182  0.0961  0.1585  0.3532
12488TIP3    H158955   2.027   0.591   5.197  0.4368  0.7053 -0.0893
12488TIP3    H258956   2.171   0.588   5.149  0.3331 -0.5241 -0.3515
12489TIP3   OH258957   1.694   4.666   1.476  0.2130  0.2751 -0.7676
12489TIP3    H158958   1.624   4.601   1.486  0.4449  0.0453 -0.6010
12489TIP3    H258959   1.655   4.748   1.506  0.2025  0.0258 -0.0628
12490TIP3   OH258960   3.310   1.156  13.803  0.4878 -0.3769  0.1473
12490TIP3    H158961   3.265   1.217  13.745 -0.8895 -1.4416  0.0542
12490TIP3    H258962   3.380   1.119  13.749  1.2262  0.9246  0.1466
12491TIP3   OH258963   3.077   3.983  16.533 -0.1663 -0.2848 -0.5449
12491TIP3    H158964   3.097   4.074  16.558 -2.8925 -0.1418  1.6658
12491TIP3    H258965   3.141   3.931  16.582  0.3417  0.3741 -0.4781
12492TIP3   OH258966   1.459   5.980   4.660 -0.2185 -0.2968  0.3292
12492TIP3    H158967   1.451   6.075   4.651 -1.3573 -0.4539 -0.6145
12492TIP3    H258968   1.524   5.967   4.729  1.6485  1.1544 -1.0687
12493TIP3   OH258969   4.529   0.448   0.358 -0.5660  0.3533  0.3522
12493TIP3    H158970   4.599   0.424   0.297  0.3703  1.6038  0.8752
12493TIP3    H258971   4.494   0.365   0.389 -0.7675 -0.3101 -1.5441
12494TIP3   OH258972   5.576   0.319  15.765 -0.4913 -0.2616 -0.4478
12494TIP3    H158973   5.630   0.313  15.687 -0.5767  0.2852 -0.5508
12494TIP3    H258974   5.626   0.273  15.833 -0.5731 -1.0295 -0.8983
12495TIP3   OH258975   0.263   6.035   5.189 -0.2480  0.1530 -0.1571
12495TIP3    H158976   0.238   6.007   5.277  1.6092 -0.3973  0.2496
12495TIP3    H258977   0.251   5.958   5.134  0.0110  0.0528 -0.0747
12496TIP3   OH258978   4.842   3.397  11.978  0.4385 -0.8501 -0.1313
12496TIP3    H158979   4.865   3.439  11.894  2.6426 -0.6455  0.5191
12496TIP3    H258980   4.892   3.446  12.043 -1.5191 -0.7865  1.3770
12497TIP3   OH258981   0.087   0.694   0.915  0.4362 -0.3188 -0.1173
12497TIP3    H158982   0.002   0.721   0.880  0.6904  0.1310 -0.3949
12497TIP3    H258983   0.149   0.709   0.844  0.9408  0.4723  0.4689
12498TIP3   OH258984   3.832   0.121  16.785 -0.5545  0.6523 -0.1376
12498TIP3    H158985   3.737   0.110  16.791 -0.4520  0.0198  0.3780
12498TIP3    H258986   3.868   0.065  16.854  0.2039  0.7031 -0.4762
12499TIP3   OH258987   3.668   3.579  15.824 -0.0514 -0.5325 -0.2210
12499TIP3    H158988   3.629   3.663  15.848  0.8496 -0.4196  0.9471
12499TIP3    H258989   3.620   3.552  15.746 -1.0349  0.5821 -0.0374
12500TIP3   OH258990   2.120   2.691  10.588  0.3584  0.1519 -0.1849
12500TIP3    H158991   2.030   2.662  10.602  0.6677 -0.3704  0.7783
12500TIP3    H258992   2.119   2.730  10.500 -1.0539  1.1210  0.2240
12501TIP3   OH258993   5.187   4.649   2.512 -0.4406  0.3899 -0.0682
12501TIP3    H158994   5.278   4.669   2.492 -0.1735 -1.0287 -0.3144
12501TIP3    H258995   5.188   4.560   2.546 -1.6259  0.6964  0.8574
12502TIP3   OH258996   2.969   0.752   1.194 -0.0845  0.2402 -0.0982
12502TIP3    H158997   2.946   0.678   1.138  2.0608  0.2363 -1.0651
12502TIP3    H258998   2.927   0.733   1.278  2.2538 -3.3772  0.5016
12503TIP3   OH258999   6.736   3.347   4.441  0.2078 -0.6816  0.4085
12503TIP3    H159000   6.780   3.355   4.526 -0.6937  0.1492  0.8169
12503TIP3    H259001   6.652   3.391   4.453 -0.2532 -1.2179 -0.7011
12504TIP3   OH259002   3.713   2.289   3.593  0.1862 -0.3531 -0.0131
12504TIP3    H159003   3.651   2.293   3.666 -0.7511  0.6018 -0.8131
12504TIP3    H259004   3.663   2.324   3.519  1.4515 -0.3137 -0.8640
12505TIP3   OH259005   1.800   5.541  13.230 -0.2182 -0.1481  0.0496
12505TIP3    H159006   1.787   5.516  13.322 -1.7692 -0.6611 -0.2743
12505TIP3    H259007   1.851   5.621  13.234 -0.4111 -0.0718  1.3850
12506TIP3   OH259008   0.520   4.724   3.858  0.0654 -0.5183 -0.4925
12506TIP3    H159009   0.543   4.633   3.873 -1.8074 -1.3600 -2.2858
12506TIP3    H259010   0.447   4.721   3.796  1.6083  2.2779 -2.7029
12507TIP3   OH259011   2.288   1.901  14.866  0.1836  0.0480 -0.2799
12507TIP3    H159012   2.295   1.820  14.815  2.2754  0.7736 -1.2471
12507TIP3    H259013   2.211   1.945  14.830 -0.0135 -0.7502 -0.8704
12508TIP3   OH259014   2.280   5.562  13.356  0.4309 -0.1108  0.3458
12508TIP3    H159015   2.294   5.656  13.369 -0.2351  0.5580 -2.8881
12508TIP3    H259016   2.237   5.533  13.436 -0.0376  2.4961  1.1351
12509TIP3   OH259017   0.573   2.633  16.593 -0.2292 -0.4409  0.1425
12509TIP3    H159018   0.607   2.640  16.504 -1.0673  0.4678 -0.1214
12509TIP3    H259019   0.484   2.599  16.582 -0.5896  0.3360  0.5627
12510TIP3   OH259020   3.773   5.138   2.503  0.0103  0.8250 -0.2725
12510TIP3    H159021   3.834   5.120   2.574  0.0244  1.5190 -0.1087
12510TIP3    H259022   3.762   5.053   2.459 -0.8026  0.1409  1.1697
12511TIP3   OH259023   0.963   5.460   0.430  0.1215  0.0538 -0.0178
12511TIP3    H159024   0.961   5.446   0.335 -0.3879 -1.7159  0.2266
12511TIP3    H259025   1.009   5.543   0.440 -0.4858  0.6630 -1.8448
12512TIP3   OH259026   1.593   4.340   4.480 -0.0676 -0.4145 -0.2417
12512TIP3    H159027   1.643   4.310   4.555  0.5931  1.4797  0.1392
12512TIP3    H259028   1.599   4.269   4.416 -0.5154 -2.0045  1.3910
12513TIP3   OH259029   6.472   4.696   4.863  0.5142 -0.5515 -0.0054
12513TIP3    H159030   6.431   4.640   4.797 -0.1928 -0.3300  0.2301
12513TIP3    H259031   6.452   4.785   4.834 -0.1598 -0.4547  0.7091
12514TIP3   OH259032   1.103   5.356  16.830 -0.2294  0.3834  0.8950
12514TIP3    H159033   1.023   5.352  16.884 -1.3525  0.7892 -0.6668
12514TIP3    H259034   1.150   5.433  16.862 -1.8767  1.8152  0.0320
12515TIP3   OH259035   3.189   1.308  13.607  0.1388 -0.6639 -0.2928
12515TIP3    H159036   3.114   1.263  13.647 -0.6973 -0.5528 -1.6811
12515TIP3    H259037   3.153   1.350  13.529  1.4475  0.2603 -0.4316
12516TIP3   OH259038   2.552   0.716   0.765 -0.4692  0.4703 -0.0267
12516TIP3    H159039   2.528   0.778   0.696 -2.3551  0.1955  0.3353
12516TIP3    H259040   2.539   0.630   0.725 -4.4361  0.1940  1.3610
12517TIP3   OH259041   4.929   1.847  11.657  0.2315  0.1078  0.0794
12517TIP3    H159042   4.927   1.878  11.566  0.3254  0.7827  0.2956
12517TIP3    H259043   4.837   1.840  11.682  0.1711  2.1735  0.6446
12518TIP3   OH259044   0.081   1.782  12.977  0.4248 -0.0304 -0.2762
12518TIP3    H159045   0.143   1.843  12.938  0.9094  0.3159  0.9896
12518TIP3    H259046  -0.002   1.830  12.979  0.5944  0.2534 -0.0963
12519TIP3   OH259047   5.935   2.969  10.704  0.4215  0.2896 -0.0601
12519TIP3    H159048   6.020   2.959  10.747 -0.6711  1.4547  2.5919
12519TIP3    H259049   5.898   2.881  10.704  0.8372  0.1075  0.5350
12520TIP3   OH259050   2.439   1.731  13.564 -0.1673  0.1236  0.1412
12520TIP3    H159051   2.392   1.769  13.490 -0.7627 -0.0210  0.4433
12520TIP3    H259052   2.377   1.735  13.637  0.1898 -0.3162  0.4750
12521TIP3   OH259053   3.070   5.581   6.276  0.0230 -0.3077 -0.2412
12521TIP3    H159054   3.058   5.645   6.207 -0.0461  0.5295  0.5249
12521TIP3    H259055   3.154   5.604   6.316  0.0440 -0.7509 -0.0250
12522TIP3   OH259056   4.857   4.856  13.343 -0.3070  0.5197 -0.1265
12522TIP3    H159057   4.891   4.921  13.404  1.5186  0.5070 -1.0260
12522TIP3    H259058   4.859   4.773  13.391 -2.2589  1.0153  0.8923
12523TIP3   OH259059   5.864   1.983   6.385 -0.5215  0.4929  0.0751
12523TIP3    H159060   5.836   2.073   6.368 -1.7501 -0.0686 -1.1084
12523TIP3    H259061   5.797   1.948   6.444 -1.0530 -0.1600 -0.8894
12524TIP3   OH259062   5.675   1.631  15.438 -0.0004  0.3116  0.1858
12524TIP3    H159063   5.657   1.578  15.516  0.2627  0.5290  0.3942
12524TIP3    H259064   5.695   1.718  15.472 -0.0917  0.4589 -0.1381
12525TIP3   OH259065   0.296   1.289  14.737 -0.3930  0.3776 -0.4180
12525TIP3    H159066   0.316   1.239  14.657 -2.3364  0.2400 -0.8674
12525TIP3    H259067   0.249   1.366  14.705 -1.9567 -0.1042  0.6330
12526TIP3   OH259068   1.904   5.295   5.927 -0.2146  0.7858 -0.5624
12526TIP3    H159069   1.925   5.265   6.015 -2.1107 -0.9331 -0.6312
12526TIP3    H259070   1.904   5.216   5.874  0.8098  1.7824 -2.1403
12527TIP3   OH259071   5.432   0.222   4.546  0.4045  0.1810  0.3155
12527TIP3    H159072   5.405   0.185   4.462  3.5964  0.3758 -0.9292
12527TIP3    H259073   5.438   0.147   4.605 -0.1634 -0.1917 -0.0868
12528TIP3   OH259074   3.968   4.690   4.672 -0.1359 -0.4318 -0.2734
12528TIP3    H159075   4.021   4.733   4.605 -0.3109 -1.9866 -1.4977
12528TIP3    H259076   4.026   4.680   4.747 -0.4700  3.0185  0.6168
12529TIP3   OH259077   0.016   3.313  16.532  0.1035  0.1563  0.2359
12529TIP3    H159078   0.083   3.376  16.507 -0.5772  0.5836 -0.5584
12529TIP3    H259079   0.055   3.263  16.604  0.5656  1.6189  1.0346
12530TIP3   OH259080   0.146   2.182   4.733  0.0347  0.1846 -0.0708
12530TIP3    H159081   0.212   2.136   4.786 -0.6649 -0.8148 -0.0422
12530TIP3    H259082   0.160   2.274   4.754 -0.0237 -0.1512  1.6487
12531TIP3   OH259083   5.211   1.729   3.082 -0.2439  0.1077  0.2347
12531TIP3    H159084   5.276   1.782   3.129  0.7314  0.0308 -0.9766
12531TIP3    H259085   5.165   1.792   3.027 -1.5599  0.2393  1.4154
12532TIP3   OH259086   0.482   0.374   0.824 -0.6139 -0.0714  0.0215
12532TIP3    H159087   0.455   0.346   0.737 -2.1358 -0.0828  0.4710
12532TIP3    H259088   0.419   0.441   0.849 -0.1239  0.0274  1.0682
12533TIP3   OH259089   4.572   5.653  14.025 -0.0957  0.3544  0.4196
12533TIP3    H159090   4.550   5.668  13.933 -1.0497  1.4739  0.7981
12533TIP3    H259091   4.489   5.628  14.066  0.4054 -0.5980  0.9067
12534TIP3   OH259092   4.397   1.258  10.755  0.1389 -0.5518 -0.1945
12534TIP3    H159093   4.447   1.327  10.800 -0.3431 -0.9873  1.0334
12534TIP3    H259094   4.318   1.302  10.723  0.8236 -0.0772 -1.3022
12535TIP3   OH259095   6.058   1.948  12.328 -0.1277 -0.5070  0.2991
12535TIP3    H159096   6.033   1.998  12.406 -0.2034 -2.3307  1.5188
12535TIP3    H259097   6.130   1.997  12.290  1.9235 -0.9815  3.2065
12536TIP3   OH259098   6.653   1.688  17.035  0.0967  0.1702 -0.0143
12536TIP3    H159099   6.730   1.643  17.070 -0.2670 -0.6245 -0.2157
12536TIP3    H259100   6.581   1.625  17.046 -0.4426  0.7512 -0.1885
12537TIP3   OH259101   5.316   2.576   5.049  0.3002 -0.4514  0.0159
12537TIP3    H159102   5.410   2.560   5.060  0.4863  1.2032  1.3053
12537TIP3    H259103   5.301   2.569   4.955  1.9815  0.4993 -0.3624
12538TIP3   OH259104   2.459   2.511   4.945  0.2306 -0.0418  0.2545
12538TIP3    H159105   2.416   2.508   5.030  1.4156  1.1742  0.9312
12538TIP3    H259106   2.419   2.586   4.901  0.2823 -0.0986  0.1095
12539TIP3   OH259107   6.641   3.900  11.006  0.0791  0.2603  0.6598
12539TIP3    H159108   6.598   3.831  10.955  1.9133 -0.7020  0.3541
12539TIP3    H259109   6.689   3.951  10.941  2.3509 -0.9123  1.3086
12540TIP3   OH259110   4.208   3.194   0.089  0.2553  0.0282  0.4480
12540TIP3    H159111   4.116   3.186   0.062  0.2006 -2.5960  1.1195
12540TIP3    H259112   4.212   3.277   0.137 -1.7667  0.1964  0.4215
12541TIP3   OH259113   5.328   4.493   2.796  0.2437  0.2520  0.4591
12541TIP3    H159114   5.392   4.525   2.732 -2.1041  1.5115 -1.4345
12541TIP3    H259115   5.381   4.454   2.865  3.0210  0.9228 -1.1229
12542TIP3   OH259116   0.988   4.267   2.031  0.3399 -0.1584 -0.0324
12542TIP3    H159117   0.944   4.350   2.012  1.4149  0.8973  1.8234
12542TIP3    H259118   0.917   4.206   2.053 -0.3695  0.7469  0.2349
12543TIP3   OH259119   2.966   3.115  13.293  0.2369 -0.5677  0.0794
12543TIP3    H159120   3.021   3.133  13.369 -1.1580  5.1517  0.1945
12543TIP3    H259121   2.908   3.044  13.322  1.2985 -0.2426  3.4548
12544TIP3   OH259122   3.702   4.351   2.755  0.9989 -0.0612 -0.1949
12544TIP3    H159123   3.759   4.371   2.829  0.8113 -0.0726 -0.0466
12544TIP3    H259124   3.616   4.385   2.781  1.0024  0.2058 -0.5371
12545TIP3   OH259125   0.071   0.077   2.019  0.3779  0.4556  0.1588
12545TIP3    H159126   0.135   0.123   2.072 -1.1122  2.4657  0.3341
12545TIP3    H259127   0.058   0.133   1.942 -1.1044  0.1044  0.1123
12546TIP3   OH259128   0.309   6.465   4.056 -0.1444 -0.2759 -0.1560
12546TIP3    H159129   0.256   6.477   3.977 -0.6585  0.3191  0.2698
12546TIP3    H259130   0.289   6.542   4.109  1.1653 -0.0329  0.0052
12547TIP3   OH259131   0.988   3.883  17.226  0.4341  0.1976 -0.1476
12547TIP3    H159132   0.951   3.954  17.173  0.5155  0.2987 -0.0707
12547TIP3    H259133   0.969   3.804  17.177  1.6163  0.3963 -0.9775
12548TIP3   OH259134   1.794   3.065   5.195 -0.3031  0.2113  0.1046
12548TIP3    H159135   1.864   3.073   5.259 -0.2380  0.9757 -0.0537
12548TIP3    H259136   1.718   3.105   5.237  0.0766  1.9458 -0.7841
12549TIP3   OH259137   0.696   1.629  12.659 -0.1248 -0.3880 -0.0682
12549TIP3    H159138   0.715   1.540  12.627 -0.0343 -0.1509 -0.6864
12549TIP3    H259139   0.618   1.619  12.712 -0.7976 -0.6607 -1.0745
12550TIP3   OH259140   0.260   0.300   1.850 -1.2539 -0.2654  0.2840
12550TIP3    H159141   0.223   0.224   1.806 -1.1177 -1.3979  2.0595
12550TIP3    H259142   0.345   0.270   1.883  0.0277  1.4503 -1.2253
12551TIP3   OH259143   3.009   0.733  13.315  0.2899  0.0944  0.1357
12551TIP3    H159144   3.025   0.761  13.225 -1.3580  1.0950  0.1163
12551TIP3    H259145   3.087   0.683  13.338  1.1174  0.5118 -1.5580
12552TIP3   OH259146   5.938   2.502  17.129 -0.1088 -0.4313  0.0384
12552TIP3    H159147   5.906   2.548  17.207  2.7394 -0.7779  1.5577
12552TIP3    H259148   6.005   2.561  17.093  0.6395 -1.5402 -0.4192
12553TIP3   OH259149   5.392   1.038  16.031 -0.1210  0.1315  0.5166
12553TIP3    H159150   5.418   1.091  15.956 -1.9321 -0.0659 -0.3045
12553TIP3    H259151   5.438   0.955  16.018 -1.0810 -0.2159 -0.8784
12554TIP3   OH259152   1.211   3.079   4.737 -0.6006  0.5593 -0.3157
12554TIP3    H159153   1.265   3.126   4.801 -3.5073  0.2037  2.6412
12554TIP3    H259154   1.132   3.133   4.728 -1.0201 -0.2963 -2.3398
12555TIP3   OH259155   5.190   0.217   1.608 -0.4157 -0.0975  0.2405
12555TIP3    H159156   5.115   0.178   1.652  0.8835 -2.0505  0.8478
12555TIP3    H259157   5.229   0.275   1.673 -1.1134  0.5816  0.0692
12556TIP3   OH259158   3.351   6.478   3.626 -0.9519  0.2089 -0.6740
12556TIP3    H159159   3.271   6.465   3.678 -0.4030 -1.4818 -0.1913
12556TIP3    H259160   3.340   6.565   3.587 -2.8120  0.2118 -0.2458
12557TIP3   OH259161   1.133   6.426  14.682  0.7458 -0.0920 -0.2336
12557TIP3    H159162   1.203   6.476  14.723 -1.5535  0.5280  3.3891
12557TIP3    H259163   1.095   6.485  14.617  1.9751  0.4650 -0.4649
12558TIP3   OH259164   1.185   6.357  11.778 -0.4875  0.0409 -0.2841
12558TIP3    H159165   1.148   6.423  11.836 -0.8106  0.4753 -0.9656
12558TIP3    H259166   1.110   6.328  11.725 -0.5569 -1.5705  0.6471
12559TIP3   OH259167   0.778   1.403  15.162 -0.0355 -0.3574 -0.1851
12559TIP3    H159168   0.789   1.334  15.096  1.2740 -0.5575  0.1998
12559TIP3    H259169   0.696   1.446  15.139 -1.7244 -2.9949  0.4299
12560TIP3   OH259170   1.774   3.673  10.965 -0.0038 -0.2827  0.8031
12560TIP3    H159171   1.741   3.732  10.897 -0.1908 -0.6286  0.5910
12560TIP3    H259172   1.697   3.629  10.998  0.3393 -1.9749 -0.5213
12561TIP3   OH259173   3.860   5.917   5.721  0.3409 -0.1670  0.2589
12561TIP3    H159174   3.899   5.935   5.636 -0.7722 -3.0822 -1.0070
12561TIP3    H259175   3.777   5.965   5.720  0.8321  0.6965  0.1892
12562TIP3   OH259176   5.790   0.729   4.102  0.2597 -0.1714 -0.2085
12562TIP3    H159177   5.808   0.796   4.036  0.8763  1.8211  1.8323
12562TIP3    H259178   5.728   0.771   4.162  0.7711 -1.3660  1.2238
12563TIP3   OH259179   1.106   4.443  14.155  0.6524  0.0267 -0.3541
12563TIP3    H159180   1.065   4.484  14.079  2.5387  1.7838 -0.5145
12563TIP3    H259181   1.130   4.355  14.126  0.4098  0.3197 -1.4583
12564TIP3   OH259182   2.420   3.972   5.727  0.1122 -0.0641 -0.3534
12564TIP3    H159183   2.392   3.882   5.711 -0.6257  0.2868 -1.1623
12564TIP3    H259184   2.513   3.965   5.748 -0.0300 -1.0453  0.0128
12565TIP3   OH259185   2.474   6.451  15.064  0.2543  0.1204  0.1353
12565TIP3    H159186   2.444   6.379  15.008  1.6377 -0.9003  0.6524
12565TIP3    H259187   2.415   6.448  15.140 -1.2179  1.1033 -0.9094
12566TIP3   OH259188   6.803   3.604   1.761  0.3619  0.0370 -0.3450
12566TIP3    H159189   6.725   3.614   1.705  0.3863 -0.0514 -0.3938
12566TIP3    H259190   6.823   3.511   1.758  0.7479  0.1286 -0.7089
12567TIP3   OH259191   2.063   5.760  14.976  0.3994 -0.1729  0.5806
12567TIP3    H159192   2.138   5.733  14.924  0.1480  0.5240 -0.1622
12567TIP3    H259193   1.987   5.745  14.920 -0.0428 -0.9280  1.3447
12568TIP3   OH259194   5.963   2.629  11.148  0.1342  0.3281  0.0028
12568TIP3    H159195   6.031   2.695  11.134 -0.8515  1.6813  1.2955
12568TIP3    H259196   5.968   2.573  11.070  2.6360  0.4135  0.0060
12569TIP3   OH259197   3.370   1.523   0.768  0.7629  0.6199 -0.3512
12569TIP3    H159198   3.339   1.448   0.819 -1.1333  1.3949 -0.2791
12569TIP3    H259199   3.361   1.495   0.677 -1.4280  1.2316 -0.3779
12570TIP3   OH259200   6.724   1.757   2.512 -0.1616  0.1478  0.0539
12570TIP3    H159201   6.759   1.709   2.437  0.8002 -1.4771  1.4788
12570TIP3    H259202   6.749   1.704   2.588  1.0416  2.9207  1.7510
12571TIP3   OH259203   4.499   1.678  12.549  0.3419  0.2723  0.3822
12571TIP3    H159204   4.582   1.634  12.566 -0.3324 -0.7746  1.0793
12571TIP3    H259205   4.499   1.693  12.454  1.2499  0.1501  0.3559
12572TIP3   OH259206   4.796   3.252   4.762  0.0673  0.0683  0.6557
12572TIP3    H159207   4.865   3.225   4.822  1.3653  1.6503 -0.0410
12572TIP3    H259208   4.839   3.310   4.700 -1.9400  1.3040  0.3055
12573TIP3   OH259209   0.164   3.878  15.689 -0.4564 -0.2960 -0.3945
12573TIP3    H159210   0.177   3.972  15.703 -3.1496  0.0365  0.4449
12573TIP3    H259211   0.098   3.873  15.621 -1.3396 -1.5195  0.5031
12574TIP3   OH259212   4.683   6.151   4.456 -0.1723  0.2654 -0.3155
12574TIP3    H159213   4.635   6.135   4.375 -1.3071  1.5449  0.0767
12574TIP3    H259214   4.775   6.156   4.429 -0.4091 -0.4887 -1.3301
12575TIP3   OH259215   2.447   6.334   1.055  0.0404 -0.7999 -0.9247
12575TIP3    H159216   2.411   6.258   1.102  0.8632 -1.5283 -1.4419
12575TIP3    H259217   2.372   6.393   1.045 -0.1199 -0.4659  1.5624
12576TIP3   OH259218   0.113   3.178  16.776  0.3178  0.1657  0.4385
12576TIP3    H159219   0.082   3.095  16.813 -0.4232  1.2011  2.3306
12576TIP3    H259220   0.077   3.244  16.835  2.5536  1.7231  0.1690
12577TIP3   OH259221   2.214   2.874   1.254 -0.3961 -0.3557 -0.2060
12577TIP3    H159222   2.263   2.939   1.303  0.4124 -2.0228  1.3034
12577TIP3    H259223   2.123   2.888   1.279 -0.2046  0.0336  0.2824
12578TIP3   OH259224   1.136   2.903  13.411  0.0254 -0.1773  0.2660
12578TIP3    H159225   1.110   2.982  13.364 -0.5297 -0.4826  0.0565
12578TIP3    H259226   1.079   2.900  13.487  1.5886  0.8630  1.5546
12579TIP3   OH259227   5.646   3.078   0.357  0.4602 -0.2852  0.7759
12579TIP3    H159228   5.574   3.051   0.415  1.3165 -3.1271  0.6557
12579TIP3    H259229   5.602   3.112   0.279 -0.7018  1.3201  2.0534
12580TIP3   OH259230   1.511   3.866  12.844  0.2001 -0.1369 -0.1016
12580TIP3    H159231   1.543   3.914  12.921 -1.3685 -1.2698  1.3361
12580TIP3    H259232   1.539   3.775  12.860  1.5065 -0.0943 -1.8562
12581TIP3   OH259233   2.714   3.509  15.459  0.5186 -0.1497  0.2586
12581TIP3    H159234   2.741   3.544  15.544 -0.8009  1.9015 -0.0904
12581TIP3    H259235   2.665   3.581  15.418  1.6939 -0.8103 -2.5432
12582TIP3   OH259236   0.463   3.395  12.958  0.6263 -0.2581 -0.5110
12582TIP3    H159237   0.496   3.445  12.884  1.2078 -2.1022 -1.5754
12582TIP3    H259238   0.445   3.308  12.922 -1.0368 -0.6498  1.0704
12583TIP3   OH259239   5.791   6.480   0.088 -0.0005  0.0763  0.1964
12583TIP3    H159240   5.816   6.441   0.005  1.9217 -0.1742  0.8393
12583TIP3    H259241   5.862   6.541   0.108 -1.2607  1.4177  0.8626
12584TIP3   OH259242   1.724   1.639   0.382 -0.0258 -0.3099  0.3343
12584TIP3    H159243   1.756   1.616   0.469  0.4721  0.8841  0.4809
12584TIP3    H259244   1.707   1.554   0.340  1.1124 -0.9348  1.0758
12585TIP3   OH259245   0.525   6.381   2.319  0.0180  0.0039  0.1277
12585TIP3    H159246   0.519   6.462   2.268  0.3621  0.5952  1.0035
12585TIP3    H259247   0.435   6.366   2.350  0.1240  0.5995  0.7634
12586TIP3   OH259248   1.763   0.003  16.725 -0.2434 -0.4717  0.1425
12586TIP3    H159249   1.724  -0.026  16.642  0.2197  0.6176 -0.4720
12586TIP3    H259250   1.814   0.080  16.702 -0.4949  0.1365  1.5351
12587TIP3   OH259251   5.286   3.361   3.518  0.5747 -0.3057  0.4430
12587TIP3    H159252   5.288   3.281   3.465  0.1198 -0.3898  0.5460
12587TIP3    H259253   5.199   3.361   3.557  0.9418 -0.3083  1.2848
12588TIP3   OH259254   3.435   3.305  13.121 -0.6170  0.0331  0.7887
12588TIP3    H159255   3.392   3.222  13.097 -1.1162  0.1368  1.3134
12588TIP3    H259256   3.364   3.365  13.140 -0.2635  0.7326 -0.0368
12589TIP3   OH259257   2.240   4.756  13.414 -0.4039 -0.2543 -0.0905
12589TIP3    H159258   2.243   4.845  13.451 -0.0174 -1.1681  2.2502
12589TIP3    H259259   2.317   4.751  13.357 -0.1506  0.7488  0.1313
12590TIP3   OH259260   2.755   6.192   4.686 -0.1913 -0.1765 -0.0172
12590TIP3    H159261   2.828   6.228   4.737 -0.8406  1.0780  0.0766
12590TIP3    H259262   2.795   6.127   4.629  0.7418 -0.7088  1.2080
12591TIP3   OH259263   3.275   1.538  15.554 -0.4619 -0.0147 -0.9111
12591TIP3    H159264   3.353   1.594  15.553 -0.4876  0.1086  0.9033
12591TIP3    H259265   3.291   1.474  15.484  1.6015 -0.4016 -0.1619
12592TIP3   OH259266   2.639   0.251  15.399  0.2943  0.0073  0.0465
12592TIP3    H159267   2.724   0.206  15.400  1.0167  1.3390  0.9949
12592TIP3    H259268   2.642   0.311  15.473 -0.7845  1.3457 -0.9367
12593TIP3   OH259269   6.039   2.847  14.943 -0.1703  0.3038 -0.0430
12593TIP3    H159270   6.098   2.823  14.871  1.4497 -0.0172  1.3341
12593TIP3    H259271   6.086   2.914  14.991 -1.3816  0.7565  0.5405
12594TIP3   OH259272   4.811   3.907   0.686  0.0991  0.6152 -0.0725
12594TIP3    H159273   4.875   3.922   0.616  1.3251 -1.6370  0.4966
12594TIP3    H259274   4.734   3.872   0.641  0.9266 -0.9395 -0.3332
12595TIP3   OH259275   6.589   0.855   6.106  0.0849  0.3366  0.3112
12595TIP3    H159276   6.595   0.916   6.032  0.1661 -0.5204 -0.4057
12595TIP3    H259277   6.498   0.827   6.108  0.0432  0.4878  0.6534
12596TIP3   OH259278   0.661   1.909  13.652  0.0351 -0.3576  0.6110
12596TIP3    H159279   0.740   1.932  13.603  1.2907 -2.4141  1.5513
12596TIP3    H259280   0.637   1.989  13.698  0.1525  0.9766 -1.4951
12597TIP3   OH259281   0.870   4.733   2.821 -0.0887 -0.2919 -0.1971
12597TIP3    H159282   0.875   4.816   2.772  2.6312  0.0154  0.4617
12597TIP3    H259283   0.954   4.726   2.865 -0.8884 -2.6315  1.1194
12598TIP3   OH259284   2.142   1.630   0.975  0.4211  0.0130  0.4986
12598TIP3    H159285   2.084   1.660   0.906  1.0161  0.3321  0.1237
12598TIP3    H259286   2.084   1.602   1.045 -0.1727  0.5130  0.2152
12599TIP3   OH259287   0.757   6.447  13.191 -0.3572  0.7758  0.0967
12599TIP3    H159288   0.664   6.432  13.174 -0.7231  2.6481  0.1949
12599TIP3    H259289   0.789   6.489  13.112  0.3151  0.5228  0.2285
12600TIP3   OH259290   5.528   3.780  11.070 -0.5969  0.0375 -0.0651
12600TIP3    H159291   5.561   3.842  11.135  0.9867  0.5976 -1.3496
12600TIP3    H259292   5.436   3.767  11.094  0.0404 -0.1784  2.5602
12601TIP3   OH259293   3.833   1.517   2.470 -0.0779 -0.0334  0.3204
12601TIP3    H159294   3.857   1.455   2.538 -0.8299  0.3821  0.9713
12601TIP3    H259295   3.853   1.603   2.507  0.5140  0.1590 -0.3970
12602TIP3   OH259296   5.595   3.852   1.922  0.0642 -0.7826 -0.7051
12602TIP3    H159297   5.608   3.781   1.860 -1.3847 -0.0987 -1.8520
12602TIP3    H259298   5.511   3.833   1.964 -0.1015 -0.0049 -0.6701
12603TIP3   OH259299   5.108   0.299   2.518 -0.8751 -0.3583 -0.7689
12603TIP3    H159300   5.197   0.324   2.540 -1.1196  1.5570 -1.7581
12603TIP3    H259301   5.095   0.214   2.562  1.4381 -0.7444 -0.7139
12604TIP3   OH259302   5.293   1.570   2.750 -0.0453  0.3525 -0.0697
12604TIP3    H159303   5.235   1.506   2.792 -1.2443  0.7164 -1.0838
12604TIP3    H259304   5.296   1.644   2.811 -0.4732  0.2373  0.0925
12605TIP3   OH259305   5.079   5.763  15.353  0.6815  0.0944 -0.2071
12605TIP3    H159306   5.073   5.760  15.449  0.3888 -0.8361 -0.2506
12605TIP3    H259307   5.139   5.692  15.331  1.4004  0.8192 -0.6740
12606TIP3   OH259308   6.034   2.414   4.065  0.7423 -0.3381  0.5984
12606TIP3    H159309   5.948   2.371   4.060 -0.1882  1.5268 -0.5058
12606TIP3    H259310   6.085   2.374   3.995  0.7007 -1.2463  1.0696
12607TIP3   OH259311   4.987   1.274  12.704  0.2690 -0.0565 -0.0370
12607TIP3    H159312   4.978   1.289  12.798  3.1786 -0.2054  0.3447
12607TIP3    H259313   5.060   1.330  12.677 -0.5472  0.0550 -2.2729
12608TIP3   OH259314   3.431   1.753   1.722 -0.3784  0.8917  0.1289
12608TIP3    H159315   3.411   1.761   1.629 -0.6421  1.7409  0.2480
12608TIP3    H259316   3.481   1.832   1.743  0.0514  0.4971  0.6136
12609TIP3   OH259317   3.833   3.698  16.951 -0.2073  0.3907  0.4928
12609TIP3    H159318   3.916   3.714  16.995  0.3093  0.7069 -0.5648
12609TIP3    H259319   3.851   3.625  16.891 -0.1370  1.6692 -1.1271
12610TIP3   OH259320   3.657   6.461  15.681 -0.0465 -0.5061  0.4359
12610TIP3    H159321   3.657   6.370  15.651 -1.7644  0.0073 -1.3984
12610TIP3    H259322   3.619   6.457  15.769 -1.7741 -1.4351 -0.3042
12611TIP3   OH259323   5.811   1.350  15.749 -0.2751 -0.0043  0.2710
12611TIP3    H159324   5.769   1.266  15.771 -0.3543 -0.0852 -0.1731
12611TIP3    H259325   5.890   1.352  15.801  0.1843 -0.7700 -0.3711
12612TIP3   OH259326   3.636   5.519  11.700 -0.0035 -0.4027 -0.3482
12612TIP3    H159327   3.546   5.490  11.686  0.1929 -0.6269 -1.2117
12612TIP3    H259328   3.666   5.468  11.775 -0.5228 -0.4702 -0.1767
12613TIP3   OH259329   3.657   5.347  14.831  0.1766  0.0380 -0.1420
12613TIP3    H159330   3.708   5.395  14.896  0.1700  1.4851 -1.1443
12613TIP3    H259331   3.668   5.255  14.854  0.5408  0.4823  1.6130
12614TIP3   OH259332   1.242   5.560   2.485  0.2546  0.3652 -0.2841
12614TIP3    H159333   1.163   5.517   2.519 -0.8872  2.4587 -0.0921
12614TIP3    H259334   1.234   5.651   2.514  2.6728  0.6915 -0.4368
12615TIP3   OH259335   6.091   2.174  14.270 -0.5913  0.0924  0.1691
12615TIP3    H159336   6.168   2.142  14.318 -1.1405 -1.0998  0.3019
12615TIP3    H259337   6.126   2.234  14.205  0.7712 -2.3366 -1.4742
12616TIP3   OH259338   5.820   3.000  13.249 -0.6034 -0.4759 -0.0630
12616TIP3    H159339   5.740   3.053  13.243 -0.1329  0.2144 -0.3972
12616TIP3    H259340   5.891   3.064  13.243  0.0674 -0.5207  4.2263
12617TIP3   OH259341   6.177   3.900   2.468  0.5252 -0.0034 -0.1632
12617TIP3    H159342   6.145   3.875   2.554 -0.0815  1.5954  0.1115
12617TIP3    H259343   6.100   3.934   2.423  1.4133  2.1250 -0.1775
12618TIP3   OH259344   2.768   4.447   5.776  0.5565  0.2686 -0.0939
12618TIP3    H159345   2.840   4.471   5.718  0.2617  0.1965 -0.4858
12618TIP3    H259346   2.811   4.433   5.861  1.0920 -0.3282 -0.4497
12619TIP3   OH259347   0.780   6.339   2.517  0.1092 -0.0968  0.5041
12619TIP3    H159348   0.696   6.379   2.496  0.0075  0.1055  1.2846
12619TIP3    H259349   0.821   6.325   2.431 -0.6364 -0.0342  0.1268
12620TIP3   OH259350   6.435   2.362   5.085  0.3127 -0.3484 -0.1314
12620TIP3    H159351   6.451   2.274   5.048 -1.8679 -1.3147  1.0444
12620TIP3    H259352   6.384   2.346   5.164  1.1613  1.9388  0.9689
12621TIP3   OH259353   5.392   1.393  12.775  0.4013  0.2301 -0.1903
12621TIP3    H159354   5.322   1.426  12.719 -1.1276  0.0655  1.5328
12621TIP3    H259355   5.432   1.471  12.812 -1.3717  0.3384  1.6909
12622TIP3   OH259356   2.811   3.226  14.671  0.2084 -0.4738  0.8334
12622TIP3    H159357   2.879   3.165  14.641  0.6160 -0.0708  0.9341
12622TIP3    H259358   2.790   3.197  14.760 -0.2487 -1.0194  0.5578
12623TIP3   OH259359   0.685   5.619  15.060 -0.3130  0.4464 -0.7191
12623TIP3    H159360   0.674   5.548  15.123  0.0586  0.2097 -0.9231
12623TIP3    H259361   0.600   5.624  15.014 -0.2976  0.0569 -0.7882
12624TIP3   OH259362   0.608   0.127  13.579  0.0309 -0.0389 -0.1390
12624TIP3    H159363   0.522   0.171  13.578  0.0830  0.0984  0.9257
12624TIP3    H259364   0.622   0.102  13.487 -1.5995 -0.9630 -0.1729
12625TIP3   OH259365   0.760   1.148  12.236  0.0527 -0.5568 -0.2974
12625TIP3    H159366   0.796   1.218  12.181  0.6882  0.4338  1.3229
12625TIP3    H259367   0.837   1.103  12.272 -0.3377 -0.5072  0.6219
12626TIP3   OH259368   6.751   2.200  10.884  0.2089 -0.1094  0.3872
12626TIP3    H159369   6.689   2.268  10.909  0.4519 -0.2529  1.4077
12626TIP3    H259370   6.800   2.238  10.811 -0.9704  0.0581 -0.3342
12627TIP3   OH259371   4.034   5.629   0.959  0.6978 -0.1418 -0.3088
12627TIP3    H159372   3.998   5.581   1.034 -0.1893 -0.9085 -1.1954
12627TIP3    H259373   4.009   5.577   0.883  1.2853  0.8010 -1.1764
12628TIP3   OH259374   3.952   5.226   0.775 -0.3137 -0.1651 -0.2690
12628TIP3    H159375   4.028   5.198   0.724 -1.2484 -0.6498 -1.4748
12628TIP3    H259376   3.929   5.149   0.828 -1.2550 -0.8217 -1.5615
12629TIP3   OH259377   6.392   5.111   0.456  0.3934  0.2095  0.4576
12629TIP3    H159378   6.314   5.114   0.400  1.5334  1.6967 -1.1647
12629TIP3    H259379   6.371   5.170   0.529 -0.4629 -0.3976  0.7172
12630TIP3   OH259380   0.092   6.369   6.296  0.2426 -0.0054 -0.2214
12630TIP3    H159381   0.142   6.425   6.355 -1.5172  0.6125  0.7773
12630TIP3    H259382   0.003   6.404   6.300 -1.3010 -3.5989  1.4797
12631TIP3   OH259383   3.871   2.627  16.044 -0.1017  0.2194 -0.1031
12631TIP3    H159384   3.833   2.665  16.123  1.3752  1.3354  0.1318
12631TIP3    H259385   3.847   2.687  15.974  0.1203  0.2301 -0.1720
12632TIP3   OH259386   4.237   4.806   4.051 -0.2429  0.3526  0.7900
12632TIP3    H159387   4.285   4.849   4.122  2.0034 -1.1312  0.2654
12632TIP3    H259388   4.239   4.713   4.074 -3.7249  0.2188  1.1614
12633TIP3   OH259389   6.370   3.366  14.145  0.2482  0.5461  0.6168
12633TIP3    H159390   6.411   3.285  14.176 -0.4209 -0.7111 -1.5369
12633TIP3    H259391   6.328   3.403  14.222  0.4735 -1.2368  1.6573
12634TIP3   OH259392   4.669   5.718  15.307 -0.1073  0.4458 -0.1030
12634TIP3    H159393   4.606   5.720  15.380  0.0378  0.5639  0.0204
12634TIP3    H259394   4.648   5.638  15.259 -1.8462  1.5906 -1.3845
12635TIP3   OH259395   0.685   3.666  15.974  0.9191  0.0465  0.5369
12635TIP3    H159396   0.768   3.626  15.950  1.0185  0.0812  0.8151
12635TIP3    H259397   0.663   3.723  15.901  0.8789 -0.3619  0.2254
12636TIP3   OH259398   3.448   3.788  14.239  0.2730  0.2534  0.0560
12636TIP3    H159399   3.502   3.709  14.245  0.4899  0.2129 -1.8618
12636TIP3    H259400   3.504   3.852  14.195 -0.0996  1.3157  1.0922
12637TIP3   OH259401   3.258   5.127   5.319  0.2192 -0.2831  0.2851
12637TIP3    H159402   3.188   5.143   5.382  0.7868 -1.7361  1.3570
12637TIP3    H259403   3.300   5.047   5.350  1.6638 -0.0548 -0.9445
12638TIP3   OH259404   4.428   3.694   0.070 -0.7623  0.1067  0.3790
12638TIP3    H159405   4.420   3.770   0.012  0.2834 -0.6729 -0.8321
12638TIP3    H259406   4.390   3.622   0.020 -1.8746 -0.1851  1.5734
12639TIP3   OH259407   3.121   6.038  14.692  0.0135 -0.1596 -0.3149
12639TIP3    H159408   3.098   6.031  14.785  0.7692  0.0926 -0.0957
12639TIP3    H259409   3.152   6.128  14.683  0.5242 -0.3700 -0.6762
12640TIP3   OH259410   1.130   5.697   5.301  0.0871  0.1583 -0.0593
12640TIP3    H159411   1.203   5.640   5.275 -1.1475 -0.8628 -1.4673
12640TIP3    H259412   1.110   5.671   5.390 -0.9718 -2.3040 -0.9252
12641TIP3   OH259413   4.655   5.938   5.616  0.3850  0.4614  0.1178
12641TIP3    H159414   4.746   5.911   5.631  0.4693 -0.0258 -1.1443
12641TIP3    H259415   4.608   5.856   5.598 -0.2303  0.7498  0.3793
12642TIP3   OH259416   5.004   3.359  13.351 -0.3850 -0.5205 -0.2913
12642TIP3    H159417   4.956   3.435  13.317 -0.2261 -0.8231 -1.2212
12642TIP3    H259418   5.053   3.326  13.275  1.1948 -0.2905  0.5826
12643TIP3   OH259419   0.191   2.128   2.190 -0.4362  0.5067  0.3435
12643TIP3    H159420   0.179   2.221   2.169 -1.0415  0.3320 -0.0932
12643TIP3    H259421   0.181   2.123   2.285 -4.2560  0.3356  0.0633
12644TIP3   OH259422   0.570   4.229   2.331  0.4351  0.7746 -0.1585
12644TIP3    H159423   0.565   4.205   2.239  0.7448 -0.6710  0.1743
12644TIP3    H259424   0.578   4.324   2.331  2.0653  0.6785 -1.6901
12645TIP3   OH259425   6.724   5.285   3.310 -0.1027 -0.0642  0.1895
12645TIP3    H159426   6.698   5.251   3.224  2.7329  0.1626 -0.8633
12645TIP3    H259427   6.793   5.348   3.290 -3.0783  4.2981  2.2666
12646TIP3   OH259428   1.388   6.797  14.632 -0.0972 -0.0938  0.6891
12646TIP3    H159429   1.414   6.881  14.670  0.0693  0.2145 -0.1040
12646TIP3    H259430   1.389   6.811  14.538 -0.4500 -0.8780  0.5588
12647TIP3   OH259431   4.932   4.324   3.353  0.2332 -0.5940 -0.1626
12647TIP3    H159432   4.989   4.372   3.413 -0.8991  1.3156 -0.5664
12647TIP3    H259433   4.993   4.284   3.290  1.2878 -0.9070  1.0048
12648TIP3   OH259434   3.971   2.454  13.606 -0.0509 -0.4750 -0.0520
12648TIP3    H159435   3.983   2.537  13.652 -1.1661  0.1734 -0.8938
12648TIP3    H259436   4.061   2.426  13.586  0.3649  0.2561  0.7003
12649TIP3   OH259437   5.905   5.642   1.044 -0.6962  0.0265 -0.6399
12649TIP3    H159438   5.862   5.560   1.070 -2.1816  0.5333 -1.3621
12649TIP3    H259439   5.853   5.711   1.084  1.0068  0.6476  0.6183
12650TIP3   OH259440   2.013   2.830  14.149 -0.4996  0.1049 -0.1763
12650TIP3    H159441   2.076   2.854  14.081  0.6117  0.5851  0.9723
12650TIP3    H259442   1.933   2.809  14.101  0.8555 -1.7624 -1.7929
12651TIP3   OH259443   3.310   0.908  16.423 -0.2929  0.3142 -0.4259
12651TIP3    H159444   3.373   0.909  16.495  0.9127  0.2402 -1.4497
12651TIP3    H259445   3.340   0.977  16.364 -1.4927  0.6404 -0.6849
12652TIP3   OH259446   3.871   6.197   3.137 -0.1937  0.2476  0.1679
12652TIP3    H159447   3.948   6.141   3.144 -0.8640 -0.4880  2.2746
12652TIP3    H259448   3.881   6.260   3.208 -0.0733  2.0955 -1.4023
12653TIP3   OH259449   6.194   4.389  17.079  0.3399  0.2057  0.5523
12653TIP3    H159450   6.217   4.320  17.017 -0.2681  0.0393  0.5105
12653TIP3    H259451   6.100   4.379  17.093  0.5588 -0.1579  1.9650
12654TIP3   OH259452   3.105   3.889   5.359  0.2678  0.0427 -0.1419
12654TIP3    H159453   3.031   3.946   5.341 -0.2535 -1.0066 -1.4983
12654TIP3    H259454   3.145   3.926   5.438 -0.8770  1.4218 -0.1642
12655TIP3   OH259455   2.461   0.917   3.519  0.0661  0.2320 -0.0150
12655TIP3    H159456   2.528   0.889   3.456 -0.9001  0.5476 -1.2098
12655TIP3    H259457   2.511   0.961   3.588  1.2164 -0.7588 -0.1831
12656TIP3   OH259458   1.148   5.797   6.052  0.4653 -0.0355 -0.3212
12656TIP3    H159459   1.131   5.710   6.089  0.8788 -0.1570 -0.4181
12656TIP3    H259460   1.243   5.805   6.051  0.4231  0.8608  0.7328
12657TIP3   OH259461   4.930   1.610   0.112 -0.2272 -0.2318  0.2047
12657TIP3    H159462   5.012   1.626   0.158  0.2872  0.8774 -1.0406
12657TIP3    H259463   4.955   1.561   0.034 -1.0562 -1.8217  0.8816
12658TIP3   OH259464   0.373   6.289   5.485  0.2077  0.1385 -0.0154
12658TIP3    H159465   0.463   6.266   5.507  0.1664  0.0084  0.0174
12658TIP3    H259466   0.368   6.383   5.502  0.6810  0.3939 -1.1811
12659TIP3   OH259467   2.574   3.077  14.100 -0.1514 -0.3139 -0.3221
12659TIP3    H159468   2.554   3.001  14.045 -0.0679 -0.6886  0.1533
12659TIP3    H259469   2.668   3.090  14.089 -0.3347  0.3525 -1.1855
12660TIP3   OH259470   4.619   0.455  16.673  0.1280  0.5182 -0.2244
12660TIP3    H159471   4.624   0.529  16.734  0.7885 -0.1299  0.5335
12660TIP3    H259472   4.569   0.489  16.598 -1.0039  1.2282  0.8134
12661TIP3   OH259473   3.860   5.148   1.038  0.1966 -0.2038 -0.6734
12661TIP3    H159474   3.833   5.060   1.064 -1.8636  0.6186  0.1616
12661TIP3    H259475   3.949   5.157   1.073 -0.2933 -1.2593  0.9525
12662TIP3   OH259476   0.374   3.175  12.162 -0.5036 -0.8595 -0.0519
12662TIP3    H159477   0.302   3.229  12.195 -1.2903 -0.9851 -1.4531
12662TIP3    H259478   0.414   3.137  12.240 -0.1875  1.3935  0.9390
12663TIP3   OH259479   2.514   3.167  14.675  0.5438 -0.7164  0.6203
12663TIP3    H159480   2.536   3.083  14.715  1.4981 -0.2292  1.1481
12663TIP3    H259481   2.597   3.199  14.639  0.0573 -0.3007 -0.1667
12664TIP3   OH259482   5.957   4.804  15.589  0.1708  0.1553 -0.4567
12664TIP3    H159483   5.955   4.714  15.555  3.0809  0.7758 -2.6487
12664TIP3    H259484   5.982   4.858  15.514 -2.9706  3.1140  0.3866
12665TIP3   OH259485   5.531   4.656  12.059 -0.0898 -0.0137  0.2388
12665TIP3    H159486   5.556   4.659  12.151  0.0715  0.8160  0.1783
12665TIP3    H259487   5.436   4.642  12.060 -0.3030  1.2988  0.5751
12666TIP3   OH259488   4.713   1.738   1.264  0.1114  0.2264 -0.2581
12666TIP3    H159489   4.797   1.691   1.258 -0.2553 -0.4709 -0.0753
12666TIP3    H259490   4.714   1.776   1.351  0.1951  0.1283 -0.2144
12667TIP3   OH259491   3.928   1.343   5.955 -0.0813  0.2430 -0.8025
12667TIP3    H159492   3.908   1.348   5.862 -1.5406 -0.6262 -0.5751
12667TIP3    H259493   3.843   1.355   5.998  0.4431 -0.1291  0.3809
12668TIP3   OH259494   1.472   1.551   1.997  0.1576  0.0882  0.6287
12668TIP3    H159495   1.396   1.511   2.041  0.4589 -1.4716 -0.2255
12668TIP3    H259496   1.474   1.511   1.911  2.2433 -0.2562  0.7953
12669TIP3   OH259497   3.666   3.594   4.545  0.4993  0.0695 -0.0324
12669TIP3    H159498   3.680   3.506   4.581  2.0338 -0.5245 -1.9175
12669TIP3    H259499   3.588   3.585   4.490 -0.7419  0.5248  1.5696
12670TIP3   OH259500   3.720   0.099  10.416  0.1377  0.0040  0.1663
12670TIP3    H159501   3.745   0.021  10.367 -0.8850  0.3667 -0.9875
12670TIP3    H259502   3.632   0.079  10.448 -0.2604  0.7819 -0.3984
12671TIP3   OH259503   1.643   2.111  15.559  0.4655  0.4645  0.3382
12671TIP3    H159504   1.733   2.115  15.526 -0.0363  0.3433 -1.1492
12671TIP3    H259505   1.639   2.031  15.611  0.5024 -1.1926 -2.0341
12672TIP3   OH259506   0.410   1.464  12.037 -0.9995 -0.4422 -0.0151
12672TIP3    H159507   0.406   1.372  12.063 -0.7637 -0.1380  1.1486
12672TIP3    H259508   0.319   1.487  12.019 -0.8176 -1.6256 -3.1133
12673TIP3   OH259509   2.282   0.524   5.915  0.0259 -0.3500 -0.0810
12673TIP3    H159510   2.266   0.438   5.877 -2.6641 -0.1412  0.3832
12673TIP3    H259511   2.257   0.585   5.847  0.7362  0.0785  0.0304
12674TIP3   OH259512   3.368   0.428  16.563 -0.2337  0.3285 -0.0111
12674TIP3    H159513   3.353   0.429  16.469  0.1445  1.2672 -0.0696
12674TIP3    H259514   3.318   0.353  16.595 -1.8058  1.0588 -0.7066
12675TIP3   OH259515   0.587   1.695   2.530  0.1780  0.3300 -0.1985
12675TIP3    H159516   0.572   1.608   2.494  0.0867  0.1471  0.2710
12675TIP3    H259517   0.548   1.755   2.466 -0.3364 -0.0119 -0.2055
12676TIP3   OH259518   5.461   5.647  11.271  0.1745 -0.1673  0.0412
12676TIP3    H159519   5.455   5.611  11.183 -2.0111 -0.3603  0.2240
12676TIP3    H259520   5.521   5.721  11.262  0.1602 -0.3065 -1.5597
12677TIP3   OH259521   4.799   0.361   6.097 -0.2112 -0.2014  0.0533
12677TIP3    H159522   4.847   0.444   6.090  0.4565 -0.5802  0.0735
12677TIP3    H259523   4.848   0.311   6.162 -1.4062 -0.0853  1.0692
12678TIP3   OH259524   3.590   6.369  17.180 -0.5741  0.5934  0.0132
12678TIP3    H159525   3.563   6.311  17.250 -0.0243 -0.8506 -0.9335
12678TIP3    H259526   3.553   6.331  17.101 -0.1964  1.5290 -0.6349
12679TIP3   OH259527   6.513   0.634  13.925  0.2274  0.1109 -0.5765
12679TIP3    H159528   6.441   0.636  13.861  1.0454  0.0025 -1.5188
12679TIP3    H259529   6.503   0.550  13.970 -1.0471  0.6866  0.2775
12680TIP3   OH259530   0.370   6.022  14.443  0.9586  0.3980  0.5934
12680TIP3    H159531   0.396   6.111  14.465  0.9860  0.7671 -0.8412
12680TIP3    H259532   0.452   5.978  14.422  0.8930  0.1699  0.8054
12681TIP3   OH259533   4.413   6.806   0.792 -0.3054  0.0458 -0.3123
12681TIP3    H159534   4.435   6.728   0.842  0.9543  0.8011  0.3687
12681TIP3    H259535   4.492   6.826   0.741 -0.3543  1.2302  0.0308
12682TIP3   OH259536   0.196   4.975  12.944  0.4297  0.4490 -0.0410
12682TIP3    H159537   0.118   4.933  12.909  0.4653  1.7916 -1.8963
12682TIP3    H259538   0.267   4.913  12.924  0.3099  0.7732 -1.5928
12683TIP3   OH259539   1.820   5.664  11.087  0.4074  0.3920  0.2741
12683TIP3    H159540   1.866   5.584  11.062  0.0863  0.5481 -0.8386
12683TIP3    H259541   1.727   5.643  11.073  0.2394  0.6075  1.0132
12684TIP3   OH259542   4.226   5.371  12.285  0.2923  0.8839  0.1770
12684TIP3    H159543   4.292   5.405  12.346  0.2722 -0.0675  0.7559
12684TIP3    H259544   4.255   5.282  12.266 -1.0491  0.2908  0.7909
12685TIP3   OH259545   0.424   2.643  11.002 -0.1909  0.0591  0.1369
12685TIP3    H159546   0.399   2.560  11.042  0.7228 -0.1560  0.2927
12685TIP3    H259547   0.376   2.709  11.051  0.4161 -0.2495  1.1814
12686TIP3   OH259548   1.116   6.137   4.922  0.4459 -0.2914 -0.3077
12686TIP3    H159549   1.165   6.217   4.904 -1.1849  0.9680  0.6259
12686TIP3    H259550   1.156   6.102   5.002  0.2332  0.4043  0.1161
12687TIP3   OH259551   3.851   6.035   1.328 -0.2214 -0.3964 -0.4808
12687TIP3    H159552   3.765   6.041   1.370  0.9953  0.7763  2.0601
12687TIP3    H259553   3.908   6.000   1.396  1.6617  0.4757 -1.5393
12688TIP3   OH259554   5.448   2.247   6.419  0.2429 -0.3182 -0.0511
12688TIP3    H159555   5.444   2.220   6.511  0.8585 -0.4498 -0.0558
12688TIP3    H259556   5.361   2.228   6.384 -0.1440  0.1721  0.6213
12689TIP3   OH259557   0.724   6.221  16.014 -0.7251  0.0187 -0.1209
12689TIP3    H159558   0.799   6.269  16.049  0.2904 -0.0937 -2.0047
12689TIP3    H259559   0.743   6.129  16.033 -1.1667  0.0978  0.7615
12690TIP3   OH259560   5.998   6.478   0.705 -0.8399 -0.5293  0.0150
12690TIP3    H159561   6.076   6.534   0.704 -0.6704 -0.7186 -1.7640
12690TIP3    H259562   5.926   6.537   0.683 -0.8987 -0.7081 -0.2788
12691TIP3   OH259563   2.376   5.733  13.104 -0.0560 -0.6932  0.0360
12691TIP3    H159564   2.323   5.805  13.071  1.4917  0.3482 -0.2711
12691TIP3    H259565   2.321   5.692  13.171 -1.3329  0.1619 -0.4430
12692TIP3   OH259566   5.660   4.989  12.898 -0.1229  0.2164  0.1313
12692TIP3    H159567   5.619   5.035  12.824  1.6920  2.4979  0.4134
12692TIP3    H259568   5.620   5.029  12.976  0.9808  0.8938  0.3753
12693TIP3   OH259569   5.675   0.752  12.517  0.2785  0.8325 -0.5587
12693TIP3    H159570   5.754   0.740  12.463  0.9114  3.8470 -0.4763
12693TIP3    H259571   5.707   0.750  12.607  0.0373  0.7834 -0.4743
12694TIP3   OH259572   3.765   3.741  13.968  0.9423 -0.6866  0.3522
12694TIP3    H159573   3.843   3.796  13.959  0.9007 -0.8020 -0.9508
12694TIP3    H259574   3.693   3.803  13.976  1.0281 -0.5598  0.1578
12695TIP3   OH259575   1.554   5.000   4.439  0.0957  0.0246 -0.1217
12695TIP3    H159576   1.507   4.951   4.506 -0.5652  1.2259  0.3211
12695TIP3    H259577   1.492   5.006   4.366  0.1285  0.3031 -0.1265
12696TIP3   OH259578   5.253   3.593  12.385 -0.1329  0.0136  0.4355
12696TIP3    H159579   5.171   3.630  12.415 -0.1792 -0.2772  0.6781
12696TIP3    H259580   5.273   3.639  12.304 -1.2429 -0.8774 -0.3719
12697TIP3   OH259581   5.405   1.043   0.241  0.1473  0.5651 -0.9159
12697TIP3    H159582   5.380   1.136   0.243 -0.4827  0.4091  0.9564
12697TIP3    H259583   5.321   0.996   0.233  0.5326  0.1205 -3.0721
12698TIP3   OH259584   6.139   2.020   3.229 -0.0358  0.0315  0.3011
12698TIP3    H159585   6.105   1.933   3.251  1.8354 -0.9102 -0.3850
12698TIP3    H259586   6.192   2.007   3.151  3.1622  1.0661  2.0901
12699TIP3   OH259587   6.472   5.978   2.016  0.8197  0.1414  0.7647
12699TIP3    H159588   6.543   6.023   1.971  1.6824  0.5289  2.4079
12699TIP3    H259589   6.392   6.017   1.981  1.4646  0.8343  0.0294
12700TIP3   OH259590   4.319   4.216   0.760 -0.0391  0.3924  0.7007
12700TIP3    H159591   4.253   4.259   0.814  0.3991  0.0220  1.5508
12700TIP3    H259592   4.396   4.210   0.817 -0.6050 -3.1493  1.3319
12701TIP3   OH259593   4.877   5.078  15.292  0.6854 -0.0633 -0.0779
12701TIP3    H159594   4.820   5.071  15.216  0.3137 -0.4646  0.2335
12701TIP3    H259595   4.851   5.160  15.334 -0.0663 -0.5270  0.3806
12702TIP3   OH259596   4.086   1.248   5.333 -0.1191  0.2354  0.4163
12702TIP3    H159597   4.031   1.301   5.392 -3.3109 -1.4848 -0.7420
12702TIP3    H259598   4.089   1.162   5.374 -0.4860 -0.3733 -0.7706
12703TIP3   OH259599   1.502   3.723  14.011 -0.0220  0.0265 -0.2233
12703TIP3    H159600   1.580   3.669  14.020 -0.7209 -0.9476  0.0992
12703TIP3    H259601   1.469   3.703  13.923  0.0087  0.3415 -0.3100
12704TIP3   OH259602   2.512   0.611  15.394 -0.1439  0.1253 -0.4101
12704TIP3    H159603   2.542   0.610  15.303 -0.3129 -1.5843 -0.4824
12704TIP3    H259604   2.593   0.612  15.445 -0.0442  0.7076 -0.5746
12705TIP3   OH259605   2.027   3.568   0.618 -1.0010 -0.3136 -0.5220
12705TIP3    H159606   2.102   3.521   0.584 -0.8920  0.1710 -0.9630
12705TIP3    H259607   2.055   3.660   0.620 -1.5501 -0.1417 -0.6049
12706TIP3   OH259608   1.840   4.128  12.095  0.3000 -0.5000 -0.5101
12706TIP3    H159609   1.768   4.108  12.155 -0.0771  1.2689 -0.3221
12706TIP3    H259610   1.859   4.044  12.053 -2.7465 -0.8241 -1.5093
12707TIP3   OH259611   6.782   0.342   6.242  0.1570 -0.3028 -0.7419
12707TIP3    H159612   6.853   0.363   6.303  1.2675 -0.2383 -1.9879
12707TIP3    H259613   6.756   0.426   6.206 -0.2354 -0.3751 -0.6266
12708TIP3   OH259614   0.184   2.331  10.962  0.1581 -0.3028  0.6378
12708TIP3    H159615   0.278   2.319  10.979  0.2433 -0.0019  0.3800
12708TIP3    H259616   0.142   2.266  11.018  0.4570  0.4753  1.8063
12709TIP3   OH259617   5.735   6.316  15.037 -0.2808  0.3249  0.4554
12709TIP3    H159618   5.799   6.339  14.970 -0.6839 -1.1266 -0.4740
12709TIP3    H259619   5.678   6.393  15.044 -0.9382  0.0902 -1.7489
12710TIP3   OH259620   6.060   2.030  11.386  0.3889 -0.5018 -0.2702
12710TIP3    H159621   6.053   1.963  11.318  1.5162  0.2726 -1.1861
12710TIP3    H259622   5.979   2.022  11.436 -0.3297 -1.2970 -1.5035
12711TIP3   OH259623   2.830   0.993   1.243 -0.0901  0.1747 -0.2774
12711TIP3    H159624   2.861   0.917   1.194 -0.8976  0.9305 -2.0547
12711TIP3    H259625   2.792   1.050   1.177 -3.3127  0.2694  1.4847
12712TIP3   OH259626   5.372   1.494   0.464  0.4046 -0.1263  0.3576
12712TIP3    H159627   5.429   1.544   0.523 -0.5729  1.9396 -0.3391
12712TIP3    H259628   5.285   1.501   0.504  0.3120 -1.7591  0.4978
12713TIP3   OH259629   4.120   2.844   0.667  0.5113 -0.1934 -0.4084
12713TIP3    H159630   4.201   2.868   0.623  0.6861  0.1648  0.0984
12713TIP3    H259631   4.130   2.751   0.687  1.5272  0.2025  1.1332
12714TIP3   OH259632   3.213   1.092  11.101 -0.4568  0.1367 -0.0934
12714TIP3    H159633   3.200   1.036  11.177  2.8379  0.9387  1.2126
12714TIP3    H259634   3.246   1.032  11.033  0.2070 -0.0165  0.3509
12715TIP3   OH259635   1.355   0.301  15.035  0.7162 -0.5573  0.2665
12715TIP3    H159636   1.429   0.242  15.046  0.6743 -0.4364  1.2904
12715TIP3    H259637   1.278   0.251  15.063  0.3619 -0.7561 -0.9951
12716TIP3   OH259638   6.160   3.121   4.635 -0.4378  0.0213  0.0095
12716TIP3    H159639   6.162   3.164   4.721  2.5106  1.8613 -0.8546
12716TIP3    H259640   6.230   3.055   4.639 -0.5369 -0.1529 -0.8503
12717TIP3   OH259641   0.310   5.286  12.501 -0.5124  0.2494  0.4581
12717TIP3    H159642   0.381   5.350  12.509 -2.0614  2.2054 -0.5647
12717TIP3    H259643   0.286   5.264  12.591  1.5232 -0.6893  0.8330
12718TIP3   OH259644   5.217   1.336  11.442  0.3139  0.3580  0.4161
12718TIP3    H159645   5.280   1.408  11.449  0.2212  0.3733  1.2790
12718TIP3    H259646   5.231   1.285  11.522 -0.0839 -0.1972  0.1331
12719TIP3   OH259647   1.869   2.017  11.553 -0.1875 -0.0455 -0.0865
12719TIP3    H159648   1.899   2.017  11.462  0.6457 -0.4685  0.1799
12719TIP3    H259649   1.944   1.984  11.603 -1.1978 -1.4948  0.5494
12720TIP3   OH259650   0.244   6.186   5.796 -0.2213 -0.0970 -0.1238
12720TIP3    H159651   0.326   6.177   5.748 -0.8801 -0.1832 -1.2845
12720TIP3    H259652   0.265   6.242   5.871  0.5827  1.0817 -1.1962
12721TIP3   OH259653   6.540   0.783   2.673 -0.2283  0.6977 -0.1814
12721TIP3    H159654   6.540   0.813   2.764 -1.5894  1.2222 -0.3236
12721TIP3    H259655   6.537   0.864   2.622  3.3503  0.5662 -0.8434
12722TIP3   OH259656   6.161   2.833  14.394  0.8348 -0.4633 -0.8060
12722TIP3    H159657   6.091   2.865  14.451  0.8643  1.6453 -1.8440
12722TIP3    H259658   6.175   2.904  14.331  3.3584 -1.1377 -1.1340
12723TIP3   OH259659   6.663   0.531  13.593  0.0637 -0.1526  0.1472
12723TIP3    H159660   6.720   0.473  13.543  1.0728 -0.1472  1.2416
12723TIP3    H259661   6.716   0.610  13.607 -0.3911  0.0506  0.7544
12724TIP3   OH259662   4.371   1.333  16.071 -0.1442  0.3653 -0.0798
12724TIP3    H159663   4.396   1.322  15.979 -1.1035  1.5068 -0.4963
12724TIP3    H259664   4.447   1.376  16.111 -0.4106  1.4952 -0.7561
12725TIP3   OH259665   6.376   2.545   1.756  0.4750 -0.1285  0.2535
12725TIP3    H159666   6.425   2.626   1.772  2.7578 -1.5206  0.8235
12725TIP3    H259667   6.370   2.540   1.660  2.0219 -0.1978  0.1382
12726TIP3   OH259668   4.200   2.181   5.828  0.2575  0.7464  0.1633
12726TIP3    H159669   4.215   2.180   5.734  0.5230  2.1292  0.1743
12726TIP3    H259670   4.210   2.273   5.854 -1.1450  0.6171  1.3253
12727TIP3   OH259671   1.928   1.210   6.734 -0.5024 -0.0511 -0.2082
12727TIP3    H159672   1.967   1.123   6.724 -0.5815  0.0625 -1.5768
12727TIP3    H259673   1.982   1.267   6.680 -2.1086  0.2427 -1.5551
12728TIP3   OH259674   6.490   2.312   2.720 -0.3211 -0.1141  0.5137
12728TIP3    H159675   6.456   2.222   2.719 -0.3606 -0.0981 -0.0451
12728TIP3    H259676   6.478   2.341   2.810 -0.4106 -0.6312  0.6745
12729TIP3   OH259677   1.762   6.285  13.207 -0.2853  0.5745 -0.6464
12729TIP3    H159678   1.736   6.367  13.250  0.6520  1.2183 -1.2585
12729TIP3    H259679   1.729   6.216  13.265  1.1117  1.3935  1.2733
12730TIP3   OH259680   6.441   6.573   0.053  0.5047  0.0020 -0.4684
12730TIP3    H159681   6.382   6.631   0.101  1.1166 -0.4857  0.9407
12730TIP3    H259682   6.398   6.487   0.055  0.9811 -0.2291  0.0612
12731TIP3   OH259683   1.224   1.331  14.125  0.1183  0.1769 -0.2158
12731TIP3    H159684   1.296   1.385  14.155 -0.9533  1.1556  0.6991
12731TIP3    H259685   1.244   1.244  14.160 -0.0384  0.8339  1.6414
12732TIP3   OH259686   3.368   6.309  16.611 -0.2751 -0.1541 -1.0114
12732TIP3    H159687   3.294   6.369  16.624  0.6483  0.3974  3.1317
12732TIP3    H259688   3.412   6.342  16.533 -2.4230  1.6324 -1.5935
12733TIP3   OH259689   2.705   5.152   5.140 -0.4442  0.2800  0.7070
12733TIP3    H159690   2.634   5.134   5.078 -1.4078  2.2542  1.1547
12733TIP3    H259691   2.672   5.118   5.223 -0.1122 -0.3329  0.5964
12734TIP3   OH259692   1.703   5.174  15.054  0.6465  0.0004  0.0861
12734TIP3    H159693   1.774   5.131  15.101  0.5100  1.2376  1.5104
12734TIP3    H259694   1.624   5.146  15.100  0.4885  1.0151  0.4659
12735TIP3   OH259695   2.633   5.251  15.091 -0.1981  0.1883 -0.0107
12735TIP3    H159696   2.617   5.343  15.109  2.4206  1.8694 -4.6377
12735TIP3    H259697   2.727   5.239  15.105 -0.3744 -1.6056 -0.0981
12736TIP3   OH259698   5.031   4.677   1.246  0.1657  0.3958  0.1372
12736TIP3    H159699   5.029   4.632   1.161 -0.3632 -1.0343  0.8687
12736TIP3    H259700   5.032   4.770   1.224  0.5752  0.0488 -1.4407
12737TIP3   OH259701   3.565   1.981  10.894 -0.1483  0.1823  0.2440
12737TIP3    H159702   3.594   2.041  10.826  0.2635 -3.3249 -2.9925
12737TIP3    H259703   3.638   1.977  10.956  0.7974  1.1972 -0.7636
12738TIP3   OH259704   3.769   0.225  10.664  0.4575  0.1770 -0.4227
12738TIP3    H159705   3.738   0.163  10.731  2.1257 -1.1019 -0.7804
12738TIP3    H259706   3.780   0.171  10.586  0.1750  1.3270 -1.2753
12739TIP3   OH259707   5.285   5.836  11.660 -0.0002 -0.2030 -0.0511
12739TIP3    H159708   5.337   5.785  11.597 -0.1554 -0.6319  0.1594
12739TIP3    H259709   5.331   5.824  11.743 -0.7835 -1.1371  0.2738
12740TIP3   OH259710   2.491   2.128   3.556 -0.5546  0.6812 -0.2046
12740TIP3    H159711   2.401   2.128   3.526 -1.2174 -0.8469  1.6112
12740TIP3    H259712   2.488   2.168   3.644  0.5126  0.5605 -0.0926
12741TIP3   OH259713   3.393   2.121  16.732 -0.2635  0.9325 -0.0254
12741TIP3    H159714   3.374   2.151  16.821 -0.1949 -0.5613  0.5108
12741TIP3    H259715   3.324   2.161  16.679  0.1794  2.5317  0.5349
12742TIP3   OH259716   3.649   5.646  16.978 -0.0397 -0.2784  0.2203
12742TIP3    H159717   3.683   5.714  16.919 -2.4238 -0.6597 -1.7287
12742TIP3    H259718   3.722   5.585  16.988  1.0136  0.7460 -0.8421
12743TIP3   OH259719   2.415   1.659   2.220  0.4109 -0.8157  0.2921
12743TIP3    H159720   2.459   1.668   2.136  1.6480  0.2568  1.0235
12743TIP3    H259721   2.464   1.591   2.266  0.5377 -0.4946  0.6361
12744TIP3   OH259722   0.327   2.894   0.538  0.4042  0.0503 -0.2052
12744TIP3    H159723   0.405   2.949   0.528  2.8122 -3.3439 -1.6232
12744TIP3    H259724   0.284   2.897   0.453  0.2687  0.0776 -0.1369
12745TIP3   OH259725   5.096   3.747  13.182  0.1134  0.4050  0.5980
12745TIP3    H159726   5.088   3.820  13.120 -0.0013  0.5288  0.7588
12745TIP3    H259727   5.021   3.691  13.163  0.5449 -0.0001  0.0470
12746TIP3   OH259728   6.110   5.893  15.939 -0.3115  0.5906 -0.7616
12746TIP3    H159729   6.112   5.965  16.002  0.0796 -0.9462  1.0929
12746TIP3    H259730   6.182   5.911  15.879  0.4730  1.2082  0.3347
12747TIP3   OH259731   0.180   6.149  12.007 -0.2417 -0.3118 -0.7387
12747TIP3    H159732   0.140   6.234  11.986 -1.6530 -0.2290  1.9021
12747TIP3    H259733   0.271   6.171  12.028  0.1412  0.1093 -2.6083
12748TIP3   OH259734   1.548   5.873   0.065  0.5343 -0.0041  0.1769
12748TIP3    H159735   1.496   5.827  -0.001  0.1597  0.6071  0.0316
12748TIP3    H259736   1.635   5.833   0.060  0.3920 -0.2544 -0.3878
12749TIP3   OH259737   5.759   2.398   6.033 -0.0359  0.3114 -0.0439
12749TIP3    H159738   5.671   2.410   5.999 -0.2424 -1.3479 -0.1605
12749TIP3    H259739   5.764   2.456   6.109 -1.0960  0.6878 -0.2530
12750TIP3   OH259740   2.352   5.079   0.834  0.5604  0.4312 -0.2564
12750TIP3    H159741   2.326   5.013   0.769  0.8379  0.4015 -0.3404
12750TIP3    H259742   2.282   5.079   0.898 -0.2141  1.1511 -1.0632
12751TIP3   OH259743   6.574   2.648   2.568  0.1491 -0.9090  0.7802
12751TIP3    H159744   6.492   2.616   2.529 -1.0630  0.8665  1.7433
12751TIP3    H259745   6.639   2.582   2.542 -1.3431 -1.8470 -0.8899
12752TIP3   OH259746   4.173   5.082   0.716 -0.0215 -0.1107  0.0756
12752TIP3    H159747   4.222   5.137   0.655  3.0495 -0.1971  2.1815
12752TIP3    H259748   4.160   5.000   0.669  0.0307  0.6271 -1.2897
12753TIP3   OH259749   4.282   6.185  13.215  0.0357  0.3333 -0.0767
12753TIP3    H159750   4.197   6.212  13.250 -0.0762  1.2828 -1.0339
12753TIP3    H259751   4.335   6.265  13.215 -0.2634  0.6276 -2.8411
12754TIP3   OH259752   0.074   5.772   5.304  0.1631 -0.0111  0.2252
12754TIP3    H159753   0.088   5.796   5.395  1.4535  2.9384 -0.6328
12754TIP3    H259754   0.115   5.686   5.295  0.3778 -0.1800  2.2905
12755TIP3   OH259755   4.654   3.409   2.087  0.0673 -0.3050 -0.0754
12755TIP3    H159756   4.590   3.360   2.036 -0.2234 -1.5726  1.4237
12755TIP3    H259757   4.738   3.385   2.049 -0.2361  0.6512 -1.4577
12756TIP3   OH259758   3.806   2.309  15.424 -0.3027 -0.2595  0.2180
12756TIP3    H159759   3.891   2.314  15.469 -0.3327  1.3861  0.1553
12756TIP3    H259760   3.828   2.300  15.331 -0.1723  0.7655  0.1408
12757TIP3   OH259761   6.258   2.663   2.296  0.4018  0.5395 -0.2850
12757TIP3    H159762   6.284   2.585   2.248  3.2901  1.4904 -0.4637
12757TIP3    H259763   6.249   2.634   2.387 -0.3043 -0.3138 -0.6143
12758TIP3   OH259764   0.344   5.881   2.269 -0.2117  0.0666  0.3724
12758TIP3    H159765   0.353   5.927   2.353 -1.1293 -0.9371  1.0521
12758TIP3    H259766   0.401   5.804   2.278  1.5107  1.1251 -0.8525
12759TIP3   OH259767   1.383   0.662   3.688 -0.6055 -0.3363  0.8479
12759TIP3    H159768   1.421   0.586   3.732  0.6668 -0.7315 -0.8497
12759TIP3    H259769   1.418   0.738   3.735 -0.0368 -0.7537  1.1004
12760TIP3   OH259770   4.190   6.732   2.747  0.3313 -0.1955 -0.3456
12760TIP3    H159771   4.190   6.698   2.837  0.3620 -2.1955 -1.0475
12760TIP3    H259772   4.190   6.653   2.692 -1.3333  0.9548 -2.1210
12761TIP3   OH259773   0.708   1.167   2.167  0.4301 -0.0039  0.4760
12761TIP3    H159774   0.689   1.093   2.109  0.8038 -2.9711  3.8170
12761TIP3    H259775   0.803   1.179   2.159  0.2958  0.5299 -0.4697
12762TIP3   OH259776   5.501   6.247  14.459 -0.8048  0.2878  0.0184
12762TIP3    H159777   5.510   6.308  14.386  0.3938  0.7721  0.5449
12762TIP3    H259778   5.547   6.289  14.531 -0.0097 -1.1942  0.4238
12763TIP3   OH259779   4.098   1.635   6.337  0.4431 -0.6305  0.4888
12763TIP3    H159780   4.134   1.568   6.395 -0.0993 -0.1891  1.3564
12763TIP3    H259781   4.136   1.717   6.369 -0.2143 -0.3332  0.5148
12764TIP3   OH259782   3.003   5.081  13.810 -0.1743  0.3184  0.1098
12764TIP3    H159783   2.968   5.169  13.796  1.1598  0.6394 -1.5574
12764TIP3    H259784   3.014   5.046  13.722 -0.5558 -1.5072  0.7359
12765TIP3   OH259785   4.302   1.585  14.527 -0.4623  0.0004 -0.1059
12765TIP3    H159786   4.385   1.554  14.490 -1.5201 -2.3089 -0.7387
12765TIP3    H259787   4.271   1.512  14.579 -1.7966  1.0888  0.6681
12766TIP3   OH259788   6.432   0.586   2.057  0.4843 -0.5390 -0.0171
12766TIP3    H159789   6.489   0.514   2.082 -0.8287 -1.3852  0.6790
12766TIP3    H259790   6.442   0.651   2.127  1.1572 -0.3430 -0.2935
12767TIP3   OH259791   6.470   3.117  13.605  0.4603 -0.0823  0.3261
12767TIP3    H159792   6.383   3.081  13.624  1.1618 -1.4210  1.1872
12767TIP3    H259793   6.523   3.092  13.681  1.5410  0.9620 -0.0455
12768TIP3   OH259794   5.411   6.141   2.521  0.4627  0.5950  0.1884
12768TIP3    H159795   5.476   6.162   2.454  3.2142 -1.8992  1.8593
12768TIP3    H259796   5.419   6.212   2.584  0.2854  1.1870 -0.4351
12769TIP3   OH259797   4.120   6.790   4.628 -0.2979 -0.1152 -0.2135
12769TIP3    H159798   4.158   6.814   4.543 -1.0359 -1.4837 -0.9778
12769TIP3    H259799   4.056   6.721   4.607  2.5397 -3.7383  1.8384
12770TIP3   OH259800   6.768   1.680   3.396 -0.3164 -0.0299  0.0160
12770TIP3    H159801   6.850   1.677   3.348 -0.4229  0.8092 -0.2440
12770TIP3    H259802   6.753   1.774   3.412 -0.2272 -0.2695  1.7745
12771TIP3   OH259803   4.029   2.593   6.276  0.5850 -0.1015 -0.0171
12771TIP3    H159804   4.097   2.566   6.214 -0.9558 -0.0578 -1.8443
12771TIP3    H259805   4.034   2.689   6.277 -0.1359 -0.0373 -1.0295
12772TIP3   OH259806   5.194   5.150  13.574 -0.0015  0.8888 -0.2485
12772TIP3    H159807   5.270   5.161  13.515 -0.8612  4.4061 -0.9000
12772TIP3    H259808   5.172   5.239  13.602 -0.4761 -0.4603  4.4966
12773TIP3   OH259809   4.848   5.284   2.846  0.2081  0.2319  0.5883
12773TIP3    H159810   4.813   5.366   2.812 -2.0279 -0.3534  1.2816
12773TIP3    H259811   4.794   5.216   2.805  1.4782 -0.8534  0.6446
12774TIP3   OH259812   4.194   5.564  15.815  0.2687  0.5990 -0.0993
12774TIP3    H159813   4.229   5.581  15.903  0.3975  1.6195 -0.3379
12774TIP3    H259814   4.159   5.648  15.787 -0.8886 -0.0178 -0.5405
12775TIP3   OH259815   2.059   0.372   6.856 -0.2334 -0.4267 -0.8282
12775TIP3    H159816   2.032   0.298   6.801 -1.2603 -1.0962  0.5274
12775TIP3    H259817   1.977   0.410   6.887  0.3061  0.8242 -0.8915
12776TIP3   OH259818   6.496   6.065   5.122  0.0965 -0.4876  0.0163
12776TIP3    H159819   6.579   6.018   5.134  0.1279 -0.3661  0.2830
12776TIP3    H259820   6.447   6.048   5.202  0.6087  0.9376  0.6766
12777TIP3   OH259821   6.162   2.500  14.566 -0.6941  0.2831 -0.2172
12777TIP3    H159822   6.244   2.453  14.557 -0.4732  0.2876  1.4942
12777TIP3    H259823   6.123   2.497  14.478 -0.3667 -2.4754 -0.3515
12778TIP3   OH259824   4.067   4.840   1.161 -0.3782 -0.2250 -0.3736
12778TIP3    H159825   4.105   4.889   1.088  0.8389  0.0612  0.4202
12778TIP3    H259826   4.121   4.863   1.236 -0.3951 -2.0243  0.2423
12779TIP3   OH259827   1.070   2.228  10.776  0.0670 -0.2998 -0.8336
12779TIP3    H159828   1.075   2.292  10.705 -0.4962  0.6138 -0.0677
12779TIP3    H259829   0.995   2.173  10.754 -1.9909  1.8012  0.4759
12780TIP3   OH259830   3.384   1.427  14.132  0.3661 -0.5298 -0.0718
12780TIP3    H159831   3.403   1.442  14.225 -0.7299 -1.8669  0.4017
12780TIP3    H259832   3.298   1.468  14.119  1.0129  0.6464 -0.8045
12781TIP3   OH259833   1.478   1.266  16.504 -0.4022  0.3983  0.4402
12781TIP3    H159834   1.448   1.226  16.585 -0.5414  1.8418  1.1326
12781TIP3    H259835   1.574   1.262  16.509 -0.4106  0.5610  0.7183
12782TIP3   OH259836   4.519   1.972  12.514 -0.3537  0.1134 -0.3123
12782TIP3    H159837   4.535   2.006  12.602  1.7553 -1.7468  0.0962
12782TIP3    H259838   4.457   1.900  12.526 -1.4421  0.9578 -0.6336
12783TIP3   OH259839   1.749   2.758   2.485 -0.5853 -0.4022 -0.2444
12783TIP3    H159840   1.727   2.779   2.576  0.7465  2.6197 -0.4852
12783TIP3    H259841   1.830   2.707   2.491 -0.3280  0.0507  0.3003
12784TIP3   OH259842   6.552   4.015   3.256 -0.1233 -0.0562 -0.2045
12784TIP3    H159843   6.485   4.001   3.190 -0.2425 -0.3312 -0.0285
12784TIP3    H259844   6.572   3.927   3.288  0.4181  0.0088 -0.3537
12785TIP3   OH259845   0.423   0.991  15.209  0.6617  0.7294  0.0770
12785TIP3    H159846   0.484   0.956  15.145  0.2872  2.2137 -1.1556
12785TIP3    H259847   0.336   0.968  15.175  0.4618 -0.9402  1.5632
12786TIP3   OH259848   6.805   4.290  16.822 -0.0283  0.2534 -0.0274
12786TIP3    H159849   6.870   4.251  16.880 -0.0927  2.2873  1.5185
12786TIP3    H259850   6.728   4.302  16.877  0.0526  2.6459 -0.3170
12787TIP3   OH259851   4.375   3.550  16.754  0.3756 -1.3917  0.6056
12787TIP3    H159852   4.415   3.557  16.667  0.4663  1.4170  0.7756
12787TIP3    H259853   4.383   3.458  16.777  0.3693 -2.2244 -2.3459
12788TIP3   OH259854   3.706   0.782  11.088 -0.8339  0.1633 -0.1630
12788TIP3    H159855   3.711   0.819  11.000 -0.3775 -0.8081 -0.5630
12788TIP3    H259856   3.769   0.834  11.140 -2.4838  2.0194  0.1175
12789TIP3   OH259857   0.648   1.212  11.437 -0.0517  0.5245  0.1021
12789TIP3    H159858   0.558   1.183  11.429  0.7709 -1.9465 -1.1958
12789TIP3    H259859   0.661   1.272  11.363 -1.0049  2.1645  1.2070
12790TIP3   OH259860   6.352   0.448  12.453 -0.0965  0.2422  0.0761
12790TIP3    H159861   6.443   0.451  12.481 -0.7464  1.5016  2.3766
12790TIP3    H259862   6.334   0.535  12.420 -0.1138 -0.4440 -1.8579
12791TIP3   OH259863   0.543   5.195  17.044  0.3337 -0.1992 -0.0130
12791TIP3    H159864   0.605   5.126  17.020 -0.9998 -1.7204  0.7730
12791TIP3    H259865   0.475   5.151  17.094 -0.7862  1.6277  0.1806
12792TIP3   OH259866   2.380   6.334   5.566 -0.6455 -0.0013  0.9142
12792TIP3    H159867   2.339   6.369   5.487 -1.4326 -0.4134  1.1285
12792TIP3    H259868   2.319   6.267   5.597  0.4575 -1.0442  0.9264
12793TIP3   OH259869   4.535   0.096  13.906  0.3368  0.3307  0.2697
12793TIP3    H159870   4.521   0.181  13.863  0.6592  0.5429  0.5783
12793TIP3    H259871   4.530   0.115  13.999  0.0127 -0.0651  0.3344
12794TIP3   OH259872   5.618   2.976   0.054 -0.3969  0.4938  0.0075
12794TIP3    H159873   5.586   3.065   0.069  0.2500  0.8358 -0.6123
12794TIP3    H259874   5.710   2.987   0.028 -0.7422 -0.2338 -1.6490
12795TIP3   OH259875   0.665   3.649  15.499  0.6791  0.7906 -0.9483
12795TIP3    H159876   0.722   3.600  15.559 -0.7780 -0.4905 -0.5496
12795TIP3    H259877   0.650   3.590  15.426 -1.4810  0.3925 -0.2492
12796TIP3   OH259878   0.720   1.969   4.662 -0.0591  0.1478 -0.0538
12796TIP3    H159879   0.632   1.933   4.662  0.5369 -1.4120 -0.5820
12796TIP3    H259880   0.710   2.057   4.626 -1.5354  0.4342  0.9666
12797TIP3   OH259881   6.074   0.450   5.825  0.6467 -0.2242 -0.1150
12797TIP3    H159882   6.146   0.396   5.857  0.3923  1.2930  3.4000
12797TIP3    H259883   6.103   0.540   5.838 -1.9950  0.4665  2.0406
12798TIP3   OH259884   0.489   5.716  12.441 -0.6049 -0.4845  0.2693
12798TIP3    H159885   0.470   5.778  12.371 -1.1363 -1.3758 -0.3883
12798TIP3    H259886   0.530   5.642  12.397 -2.2581 -1.6831  0.6707
12799TIP3   OH259887   4.353   1.443  13.355  0.0147  0.3296  0.2561
12799TIP3    H159888   4.349   1.368  13.414 -0.0774  0.3338  0.2554
12799TIP3    H259889   4.304   1.416  13.277  0.2801  0.2623  0.1111
12800TIP3   OH259890   1.299   5.542   4.679 -0.2310  0.6714 -0.2163
12800TIP3    H159891   1.302   5.482   4.754 -1.9789  2.3730  1.3123
12800TIP3    H259892   1.382   5.590   4.684  0.1116  0.0791 -0.0157
12801TIP3   OH259893   0.072   0.005   2.322  0.2014 -0.4434 -0.2897
12801TIP3    H159894   0.147   0.064   2.310  0.1226 -0.6555 -2.0108
12801TIP3    H259895   0.020   0.015   2.242 -2.0318  0.2282  1.1616
12802TIP3   OH259896   0.780   3.814   2.388  0.6181 -0.2292 -0.2221
12802TIP3    H159897   0.811   3.861   2.466 -1.5727 -1.0779  1.2391
12802TIP3    H259898   0.708   3.868   2.354 -0.8816 -1.6592  0.5526
12803TIP3   OH259899   5.602   5.456   0.411  0.0942  0.3113 -0.3032
12803TIP3    H159900   5.659   5.418   0.344 -0.1476 -0.3289 -0.1501
12803TIP3    H259901   5.661   5.506   0.467  0.5565 -0.5659  0.0128
12804TIP3   OH259902   3.274   3.613  16.812 -0.1530  0.2478  0.1744
12804TIP3    H159903   3.313   3.568  16.887  0.9204 -0.7234 -0.9143
12804TIP3    H259904   3.292   3.556  16.738 -1.9668  0.7468 -0.7118
12805TIP3   OH259905   6.785   1.619   5.224 -0.3402 -0.4231 -0.6050
12805TIP3    H159906   6.753   1.550   5.282 -0.3053  0.3841  0.4098
12805TIP3    H259907   6.811   1.690   5.284  2.3955 -0.6399 -1.4295
12806TIP3   OH259908   5.608   1.371  15.083 -0.5565  0.0195  0.7032
12806TIP3    H159909   5.645   1.457  15.105 -0.6148  0.2389 -0.0522
12806TIP3    H259910   5.669   1.308  15.122 -0.6662  0.3981  1.5156
12807TIP3   OH259911   3.456   2.650   2.677 -0.2518 -0.7174  0.1989
12807TIP3    H159912   3.430   2.735   2.711  0.9663 -0.4339  0.4327
12807TIP3    H259913   3.414   2.645   2.591  0.8197  0.7312 -0.4323
12808TIP3   OH259914   0.680   0.136   2.641 -0.1852 -0.0219  0.3261
12808TIP3    H159915   0.668   0.101   2.729  0.0296  1.8599  1.1432
12808TIP3    H259916   0.772   0.164   2.639  0.0287 -0.7423 -0.7835
12809TIP3   OH259917   3.318   1.052  14.840  0.2677  0.2843 -0.3186
12809TIP3    H159918   3.364   0.976  14.804 -0.6390 -0.7803  0.6812
12809TIP3    H259919   3.299   1.028  14.931  0.3076  1.8778  0.1422
12810TIP3   OH259920   3.575   2.441   5.033 -0.0756 -0.0754 -0.0114
12810TIP3    H159921   3.533   2.382   4.971 -0.7406 -1.3241  1.5427
12810TIP3    H259922   3.640   2.387   5.078  1.3255  1.1484 -0.4933
12811TIP3   OH259923   2.959   4.796   4.974 -0.4047  0.2042  0.3311
12811TIP3    H159924   2.945   4.785   5.068 -1.6604 -2.6339 -0.0622
12811TIP3    H259925   2.873   4.779   4.935  0.8334 -2.6181 -1.4714
12812TIP3   OH259926   5.149   3.037   5.549  0.3220  0.7276  0.4791
12812TIP3    H159927   5.115   2.950   5.571  0.1040  0.6790 -0.0476
12812TIP3    H259928   5.208   3.022   5.475 -0.0885  1.0909  0.0723
12813TIP3   OH259929   3.938   1.180  11.329 -0.7393  0.4601  0.0948
12813TIP3    H159930   4.016   1.180  11.273  1.4133 -0.4834  2.8110
12813TIP3    H259931   3.943   1.264  11.375 -2.0832  0.9438 -0.6209
12814TIP3   OH259932   0.786   1.198   1.082  0.1817  0.4086  0.0632
12814TIP3    H159933   0.831   1.176   1.000 -0.7122  1.4522 -0.7217
12814TIP3    H259934   0.790   1.293   1.087  0.1089  0.3629  1.1813
12815TIP3   OH259935   3.793   2.322   4.664  0.0119  0.0262 -0.6464
12815TIP3    H159936   3.806   2.266   4.740 -0.6391  2.3367  1.3205
12815TIP3    H259937   3.862   2.388   4.671 -1.9219  2.1327 -0.1364
12816TIP3   OH259938   5.232   5.448  12.446  0.1613  0.1487  0.4632
12816TIP3    H159939   5.315   5.491  12.429  0.7712  0.6949  4.0266
12816TIP3    H259940   5.166   5.517  12.439  0.4852  0.5238  1.0192
12817TIP3   OH259941   6.072   3.752  12.350  0.1410 -0.0031 -0.1972
12817TIP3    H159942   6.053   3.838  12.389 -2.1605 -0.2265 -0.6935
12817TIP3    H259943   6.084   3.770  12.257 -0.9970 -0.2678 -0.4091
12818TIP3   OH259944   2.582   2.962  14.377  0.3356  0.1454 -0.2907
12818TIP3    H159945   2.508   2.903  14.365 -0.5663  1.2099 -0.1054
12818TIP3    H259946   2.587   3.011  14.295  1.3881 -0.5020 -0.6333
12819TIP3   OH259947   4.936   1.041   5.585  0.2481  0.2192 -0.0454
12819TIP3    H159948   4.921   1.019   5.677 -1.7702  1.0688 -0.1255
12819TIP3    H259949   4.951   1.135   5.584  0.0047  0.2565 -0.6250
12820TIP3   OH259950   4.852   1.231  13.303 -0.5608  0.2985  0.1711
12820TIP3    H159951   4.925   1.191  13.351  1.7652 -0.4090 -3.5677
12820TIP3    H259952   4.882   1.320  13.285 -1.7807  0.8380  0.7102
12821TIP3   OH259953   1.207   0.268  16.816  0.1795  0.4311  0.2289
12821TIP3    H159954   1.224   0.345  16.761 -1.2943  1.0081  0.5423
12821TIP3    H259955   1.181   0.305  16.901 -1.2303 -0.3874  0.1781
12822TIP3   OH259956   0.455   2.168  16.262  0.1614 -0.1402 -0.0413
12822TIP3    H159957   0.381   2.146  16.206  1.2559  1.2084 -2.1255
12822TIP3    H259958   0.493   2.247  16.224  2.1584 -0.2702  1.4590
12823TIP3   OH259959   4.327   0.519  13.728 -0.0302  0.0863  0.1012
12823TIP3    H159960   4.244   0.548  13.689 -0.8424  0.4730  1.9707
12823TIP3    H259961   4.359   0.595  13.775 -0.8518 -1.1791  2.9320
12824TIP3   OH259962   3.121   2.224  14.366  0.0458  0.1590 -0.2682
12824TIP3    H159963   3.048   2.196  14.421 -0.0148 -0.1506 -0.4992
12824TIP3    H259964   3.084   2.228  14.278  0.1612  0.5679 -0.3000
12825TIP3   OH259965   2.159   0.416  15.856  0.2696 -0.6022  0.5795
12825TIP3    H159966   2.215   0.390  15.783  1.2041 -0.0009  1.0586
12825TIP3    H259967   2.117   0.497  15.827  2.0024  0.6316  1.3249
12826TIP3   OH259968   2.336   1.635   2.936 -0.4590  0.3319 -0.5955
12826TIP3    H159969   2.312   1.619   2.845  0.8332  0.0165 -0.9011
12826TIP3    H259970   2.335   1.730   2.945 -0.0026  0.3941 -1.1276
12827TIP3   OH259971   0.246   6.495  14.080 -0.0625 -0.0611 -0.0724
12827TIP3    H159972   0.189   6.534  14.146 -1.1842 -0.8058 -0.5765
12827TIP3    H259973   0.258   6.404  14.110 -0.1931 -0.2708 -0.6502
12828TIP3   OH259974   6.050   3.188   5.262  0.2552  0.4639  0.3201
12828TIP3    H159975   6.013   3.113   5.309  0.4493  0.0857 -0.1208
12828TIP3    H259976   5.990   3.260   5.282  0.2578  0.2765  1.0264
12829TIP3   OH259977   5.906   6.514  16.260  0.3873 -0.1064  0.2346
12829TIP3    H159978   5.880   6.481  16.346 -0.4617  1.2356  0.5135
12829TIP3    H259979   6.001   6.505  16.259  0.3105 -1.2051  0.8496
12830TIP3   OH259980   6.403   3.893  12.630  0.4369  0.2004 -0.3358
12830TIP3    H159981   6.429   3.877  12.539  0.9937 -0.3065 -0.0968
12830TIP3    H259982   6.318   3.849  12.638 -0.8968  2.4476 -1.3098
12831TIP3   OH259983   2.335   5.119   6.074 -0.2366 -0.5266  0.1649
12831TIP3    H159984   2.330   5.094   6.166 -0.9723 -0.2799  0.1952
12831TIP3    H259985   2.428   5.109   6.052 -0.0574 -0.6046  0.9225
12832TIP3   OH259986   2.119   4.650  15.888  0.1295  0.0935  0.5239
12832TIP3    H159987   2.057   4.723  15.891  2.1963  1.9870 -0.2113
12832TIP3    H259988   2.200   4.686  15.925  1.5153 -1.5309 -0.7709
12833TIP3   OH259989   4.389   6.743   6.618  0.3457 -0.7310  0.1224
12833TIP3    H159990   4.324   6.716   6.682 -1.1985  1.1842 -0.5461
12833TIP3    H259991   4.394   6.838   6.628  1.4268 -0.5971 -1.3475
12834TIP3   OH259992   4.185   3.938   4.798 -0.5398  0.6995 -1.1225
12834TIP3    H159993   4.248   3.868   4.782 -0.3225  0.6654 -0.1465
12834TIP3    H259994   4.229   4.017   4.764  0.4729  0.8419  0.4163
12835TIP3   OH259995   4.590   3.456   5.176  0.3566  0.0675 -0.2322
12835TIP3    H159996   4.574   3.362   5.171 -1.2366  0.3652 -2.7342
12835TIP3    H259997   4.502   3.495   5.177  0.9486  1.5747 -2.0621
12836TIP3   OH259998   3.275   6.142   0.151 -0.5372 -0.3333 -0.1425
12836TIP3    H159999   3.235   6.069   0.199 -1.4187 -0.1550 -0.5824
12836TIP3    H260000   3.200   6.195   0.123  0.0044 -0.1321 -1.2203
12837TIP3   OH260001   6.707   4.818   4.355 -0.2882 -0.4065  0.1569
12837TIP3    H160002   6.750   4.901   4.338 -3.6808  1.2782 -1.1501
12837TIP3    H260003   6.656   4.833   4.434  0.5890 -1.9741  1.0734
12838TIP3   OH260004   3.575   5.346  15.247 -0.0044  0.3928 -0.0618
12838TIP3    H160005   3.509   5.326  15.312  1.2893  0.0262  1.1965
12838TIP3    H260006   3.602   5.261  15.213  0.9038  0.4087  0.5772
12839TIP3   OH260007   5.435   2.576   4.563 -0.1162  0.2975  0.2191
12839TIP3    H160008   5.435   2.480   4.568 -1.5988  0.1839 -1.0821
12839TIP3    H260009   5.403   2.595   4.475 -0.0345  2.0061  0.5279
12840TIP3   OH260010   0.907   1.428   4.764 -0.2367  0.3932 -0.8423
12840TIP3    H160011   0.879   1.391   4.847  0.0697  0.9828 -0.4734
12840TIP3    H260012   0.831   1.477   4.732 -0.2511  0.4260 -0.7570
12841TIP3   OH260013   1.616   0.547  15.275  0.0997 -0.0473 -0.3865
12841TIP3    H160014   1.630   0.581  15.363 -0.1866  0.6718 -0.6172
12841TIP3    H260015   1.653   0.458  15.278  0.5367  0.1489  0.3110
12842TIP3   OH260016   1.576   4.154  11.961  0.0288 -0.7600  0.0301
12842TIP3    H160017   1.591   4.061  11.979 -2.2645 -1.2152 -0.1945
12842TIP3    H260018   1.536   4.188  12.041  0.8283  0.0549  0.0973
12843TIP3   OH260019   2.191   6.498   0.951 -0.0167  0.3180  0.5040
12843TIP3    H160020   2.152   6.571   0.903  1.6978  1.2973  0.5286
12843TIP3    H260021   2.125   6.475   1.018 -1.9744 -0.3581 -1.5229
12844TIP3   OH260022   6.011   4.318   3.515 -0.1581  0.2816 -0.6699
12844TIP3    H160023   6.094   4.351   3.479 -0.7663 -0.3030 -2.7864
12844TIP3    H260024   5.970   4.273   3.441 -1.3661 -1.3765  0.9364
12845TIP3   OH260025   1.138   4.875  12.014 -0.0904 -0.2423 -0.0040
12845TIP3    H160026   1.095   4.811  12.071 -0.3047 -0.1287 -0.0357
12845TIP3    H260027   1.067   4.933  11.986 -0.1264 -0.7500 -1.0007
12846TIP3   OH260028   2.678   5.490   5.572  0.0132  0.2501  0.4798
12846TIP3    H160029   2.743   5.557   5.551  1.1771 -0.4571  1.6768
12846TIP3    H260030   2.617   5.492   5.499 -0.1346  2.7805  0.6087
12847TIP3   OH260031   0.153   1.981   0.354 -0.1547  0.0335  0.0804
12847TIP3    H160032   0.111   1.930   0.284 -1.3378  0.7177  0.2460
12847TIP3    H260033   0.140   1.929   0.433 -0.2225 -0.0022  0.0459
12848TIP3   OH260034   2.434   5.136  14.497  0.4295 -0.0990 -0.6042
12848TIP3    H160035   2.385   5.069  14.450 -0.3477 -1.1351  1.5421
12848TIP3    H260036   2.502   5.087  14.543  1.2748  0.8984 -0.7560
12849TIP3   OH260037   4.020   2.654  17.203 -0.2865  0.6321 -1.0167
12849TIP3    H160038   4.110   2.628  17.224 -0.3820 -0.1608 -1.5222
12849TIP3    H260039   3.974   2.571  17.194 -2.1449  0.8998  3.5450
12850TIP3   OH260040   0.459   5.664  17.106  0.2959 -0.4926 -0.7396
12850TIP3    H160041   0.524   5.728  17.078  1.4853 -1.6472 -0.7439
12850TIP3    H260042   0.416   5.704  17.181 -0.0609  0.9283 -1.6791
12851TIP3   OH260043   3.007   3.795  11.533 -0.0568  0.3813  0.5336
12851TIP3    H160044   2.957   3.804  11.451 -0.6336  1.5484  0.9826
12851TIP3    H260045   2.973   3.866  11.588  1.5620  0.7063  1.1426
12852TIP3   OH260046   4.267   3.103  16.284  0.3416  0.2842  0.5445
12852TIP3    H160047   4.280   3.136  16.373  0.5145  0.5957  0.4070
12852TIP3    H260048   4.305   3.016  16.284  0.1057  0.1796  0.8483
12853TIP3   OH260049   5.267   3.931  12.589  0.1585 -0.1763 -0.4092
12853TIP3    H160050   5.362   3.931  12.599  0.1972 -1.8906 -0.4833
12853TIP3    H260051   5.251   3.974  12.505  0.7218  1.7426  0.4165
12854TIP3   OH260052   0.580   4.704  14.526 -0.1122  0.4013 -0.2365
12854TIP3    H160053   0.655   4.664  14.569 -0.0245  0.4017 -0.3892
12854TIP3    H260054   0.616   4.744  14.447 -0.3842 -0.1776 -0.6535
12855TIP3   OH260055   0.362   4.552  14.052 -0.1233 -0.2048 -0.2030
12855TIP3    H160056   0.427   4.621  14.070  1.2325 -1.4669 -0.0883
12855TIP3    H260057   0.315   4.582  13.974 -0.9113  1.7601  0.9540
12856TIP3   OH260058   2.488   5.276   6.379 -0.2978 -0.3549 -0.3098
12856TIP3    H160059   2.537   5.214   6.326 -1.2041 -0.6577 -0.8047
12856TIP3    H260060   2.549   5.350   6.391  0.7542 -1.2813  0.2233
12857TIP3   OH260061   2.911   6.541   4.694  0.0319 -0.3546 -0.0430
12857TIP3    H160062   2.940   6.549   4.603  0.7676  1.5688  0.3193
12857TIP3    H260063   2.832   6.594   4.700  1.3123  1.5501  0.9441
12858TIP3   OH260064   5.280   5.131  11.528 -0.1712 -0.0184  0.2382
12858TIP3    H160065   5.215   5.198  11.549  1.3775  1.7283 -0.2924
12858TIP3    H260066   5.312   5.102  11.613 -0.6648  0.1111  0.4734
12859TIP3   OH260067   1.781   0.171  12.861  0.7449  0.4340  0.1254
12859TIP3    H160068   1.690   0.163  12.832  0.7737 -0.0986  0.1825
12859TIP3    H260069   1.832   0.137  12.788  0.8169 -0.9641  0.7965
12860TIP3   OH260070   3.416   1.210   3.517  0.1356 -0.4116 -0.1621
12860TIP3    H160071   3.413   1.126   3.562  0.4061 -0.2868  0.0939
12860TIP3    H260072   3.330   1.218   3.475  0.6267 -1.4760 -1.4140
12861TIP3   OH260073   0.353   0.623  15.970 -0.6908 -0.3609  0.5394
12861TIP3    H160074   0.419   0.681  15.931 -0.2158 -1.8102 -0.8706
12861TIP3    H260075   0.389   0.535  15.961 -1.6957 -0.9723  2.0504
12862TIP3   OH260076   6.428   0.971   5.631  0.1978 -0.5812 -0.0895
12862TIP3    H160077   6.454   1.052   5.587  1.6998  0.1850  2.0014
12862TIP3    H260078   6.333   0.970   5.627 -0.0171  2.3428  1.4274
12863TIP3   OH260079   1.890   4.991   5.834 -0.5360  0.8754 -0.8471
12863TIP3    H160080   1.887   4.908   5.788 -0.4753  0.1391  0.4222
12863TIP3    H260081   1.980   5.021   5.826 -0.7667  1.2837 -2.0701
12864TIP3   OH260082   5.487   2.025   4.150 -0.5658 -0.2391  0.5836
12864TIP3    H160083   5.537   2.101   4.183 -1.4821 -0.4647  2.6726
12864TIP3    H260084   5.414   2.064   4.102  0.2529  0.1273 -0.4106
12865TIP3   OH260085   1.933   2.448   2.601 -0.1275  0.5213 -0.1484
12865TIP3    H160086   1.900   2.369   2.644 -0.9633 -0.3932 -2.3311
12865TIP3    H260087   1.908   2.438   2.509  0.5404  2.9185 -0.6701
12866TIP3   OH260088   1.454   6.162   4.339  0.6774  0.3184  0.5354
12866TIP3    H160089   1.438   6.236   4.397 -2.7784 -0.5802  0.9332
12866TIP3    H260090   1.408   6.089   4.379  1.2818 -1.2742 -1.4715
12867TIP3   OH260091   0.464   1.905   4.669 -0.4756 -0.0729  0.0493
12867TIP3    H160092   0.425   1.820   4.648 -2.9928  0.5551  1.6876
12867TIP3    H260093   0.436   1.963   4.598  0.0602 -0.3003 -0.3489
12868TIP3   OH260094   3.402   1.837  13.824 -0.1295 -0.3194  1.2141
12868TIP3    H160095   3.322   1.792  13.798 -0.7179  0.9231  0.7947
12868TIP3    H260096   3.377   1.887  13.902  0.9227 -1.8966  2.6502
12869TIP3   OH260097   1.190   3.523   1.866  0.5668  0.2325 -0.3534
12869TIP3    H160098   1.270   3.494   1.908  0.5880  1.4539  0.4808
12869TIP3    H260099   1.121   3.505   1.931  0.2111 -0.3865 -0.8845
12870TIP3   OH260100   3.343   2.111  14.517 -0.0373 -0.5448  0.4538
12870TIP3    H160101   3.345   2.169  14.440 -2.0843 -2.0449 -0.8298
12870TIP3    H260102   3.254   2.118  14.550  0.1538 -1.7317  1.2760
12871TIP3   OH260103   3.143   4.134   0.889 -0.3285  0.1446  0.0854
12871TIP3    H160104   3.080   4.088   0.832 -0.3916 -0.2805  0.4869
12871TIP3    H260105   3.097   4.143   0.972  0.1543 -0.1941  0.3926
12872TIP3   OH260106   5.678   0.563  11.022  0.1517  0.0404 -0.1348
12872TIP3    H160107   5.745   0.532  10.962  0.3543  0.0577  0.0799
12872TIP3    H260108   5.631   0.631  10.973 -0.0498 -0.3369 -0.4695
12873TIP3   OH260109   4.647   0.220   5.380 -0.0920  0.6735 -0.5700
12873TIP3    H160110   4.564   0.251   5.344  0.6973  2.2574 -1.1188
12873TIP3    H260111   4.673   0.288   5.443  0.7396  0.1640 -0.3457
12874TIP3   OH260112   4.223   1.571   1.897  0.0196 -0.2551 -0.1353
12874TIP3    H160113   4.186   1.514   1.965  0.5241 -0.6369 -0.1672
12874TIP3    H260114   4.305   1.603   1.936 -0.7300  1.2410  0.2586
12875TIP3   OH260115   1.534   5.021   2.416 -0.3243 -0.3256  1.2324
12875TIP3    H160116   1.440   5.038   2.411 -0.1995  0.4725  1.5262
12875TIP3    H260117   1.552   4.966   2.340 -0.6092  1.5623 -0.2780
12876TIP3   OH260118   3.663   1.439  15.524 -0.8809  0.2085 -0.3948
12876TIP3    H160119   3.747   1.471  15.491 -1.7823  1.2160 -1.8126
12876TIP3    H260120   3.607   1.434  15.447 -2.4241  0.5199  0.6638
12877TIP3   OH260121   5.567   1.453   5.834 -0.3979 -0.0414 -0.1609
12877TIP3    H160122   5.485   1.402   5.840  0.0921 -0.8192  0.1257
12877TIP3    H260123   5.585   1.479   5.924 -1.0403  1.3147 -0.4010
12878TIP3   OH260124   1.615   1.339  14.566  0.2719  0.8525  0.5776
12878TIP3    H160125   1.523   1.313  14.562  0.4827  0.2793 -1.5622
12878TIP3    H260126   1.661   1.260  14.592  0.3605  0.5171 -0.5520
12879TIP3   OH260127   0.051   2.974   4.491  0.3310 -0.7688  0.1678
12879TIP3    H160128  -0.020   3.037   4.477  1.2840  0.2077 -0.3660
12879TIP3    H260129   0.084   2.996   4.579  3.4867  2.4762 -1.5840
12880TIP3   OH260130   0.608   0.247  14.513  0.6360 -0.1063 -0.0039
12880TIP3    H160131   0.675   0.254  14.581 -0.4841  1.4286  1.0180
12880TIP3    H260132   0.562   0.166  14.534  0.8922 -0.1253  0.5002
12881TIP3   OH260133   5.846   2.417  14.518 -0.2401 -0.5261  0.3847
12881TIP3    H160134   5.879   2.441  14.605  0.2478 -1.6240  0.5239
12881TIP3    H260135   5.873   2.326  14.507  0.6747 -0.0831 -1.3819
12882TIP3   OH260136   4.470   0.617  15.204  0.2243  0.1037 -0.2126
12882TIP3    H160137   4.521   0.680  15.153 -0.1497  1.6843  1.2699
12882TIP3    H260138   4.388   0.606  15.156 -0.2207  1.7465  0.1178
12883TIP3   OH260139   5.817   1.688  13.952  0.4175  0.5680  0.1457
12883TIP3    H160140   5.904   1.667  13.987 -0.5031 -0.8459  1.7253
12883TIP3    H260141   5.756   1.638  14.006 -1.4510  1.9401 -0.5692
12884TIP3   OH260142   1.294   4.159   3.735  0.0408  0.1085 -0.3978
12884TIP3    H160143   1.349   4.087   3.703 -0.0418  0.3768 -1.1710
12884TIP3    H260144   1.256   4.126   3.816  0.6035 -0.4332 -0.3420
12885TIP3   OH260145   6.289   2.773  11.237 -0.7819 -0.5503  0.7496
12885TIP3    H160146   6.266   2.820  11.317 -0.8783  2.1523 -0.7442
12885TIP3    H260147   6.242   2.819  11.167  1.0754 -1.3377 -1.1337
12886TIP3   OH260148   1.314   4.415  15.834 -0.1567  0.6277  0.0548
12886TIP3    H160149   1.292   4.508  15.821  1.8976  0.9599 -1.5046
12886TIP3    H260150   1.282   4.372  15.754  0.8773  0.4018 -0.2483
12887TIP3   OH260151   6.337   2.027  15.606 -0.4470 -0.7101 -0.4504
12887TIP3    H160152   6.373   1.983  15.529  0.5090 -2.1122  0.7469
12887TIP3    H260153   6.414   2.061  15.652 -1.0335  0.4339 -0.2831
12888TIP3   OH260154   3.563   3.423   1.979  0.1555 -0.2881  0.8475
12888TIP3    H160155   3.565   3.336   1.940  3.0680  0.2796 -0.4722
12888TIP3    H260156   3.531   3.480   1.909 -0.1009 -0.0509  1.1559
12889TIP3   OH260157   5.703   2.744   2.552  0.5582  0.1320  0.5839
12889TIP3    H160158   5.772   2.691   2.511  0.9855 -2.8788  4.6101
12889TIP3    H260159   5.621   2.706   2.519  0.8596 -0.3491  0.3732
12890TIP3   OH260160   6.193   1.639  16.779 -0.0253 -0.4790 -0.0763
12890TIP3    H160161   6.225   1.689  16.705 -2.2275 -0.6610 -1.2269
12890TIP3    H260162   6.113   1.684  16.806  1.2418  0.2176  2.9473
12891TIP3   OH260163   1.213   2.135  16.684 -0.0419 -0.1506 -0.5709
12891TIP3    H160164   1.241   2.064  16.741 -2.6762 -0.7453  0.1152
12891TIP3    H260165   1.153   2.093  16.622 -1.2700  1.3564 -0.4579
12892TIP3   OH260166   6.026   6.054  15.383  0.2815 -0.0528  0.2225
12892TIP3    H160167   6.059   5.970  15.352  0.1095  0.2875 -0.9594
12892TIP3    H260168   5.942   6.064  15.338  0.9356  1.3606 -0.7855
12893TIP3   OH260169   0.888   1.173   4.610  0.1771 -0.3942 -0.7770
12893TIP3    H160170   0.877   1.263   4.579  1.8183  0.0365 -0.1915
12893TIP3    H260171   0.886   1.180   4.706  0.3185 -0.9728 -0.7268
12894TIP3   OH260172   3.926   5.096   5.076 -0.1916 -1.0578  0.1017
12894TIP3    H160173   3.901   5.156   5.146 -4.2412 -1.5814 -0.6368
12894TIP3    H260174   3.978   5.149   5.016 -1.8066  1.2019  0.5607
12895TIP3   OH260175   0.972   2.168  11.789  0.4365 -0.1574 -0.7007
12895TIP3    H160176   1.054   2.174  11.741  0.6263 -0.2669 -0.3942
12895TIP3    H260177   0.907   2.143  11.723  0.4158  1.1253 -1.1825
12896TIP3   OH260178   6.820   3.679  12.571  0.3873 -0.1739  0.1604
12896TIP3    H160179   6.901   3.653  12.527 -0.2996  0.9334 -1.8926
12896TIP3    H260180   6.751   3.648  12.513 -0.5661  1.6973  0.2146
12897TIP3   OH260181   3.024   1.879   1.957 -0.2928 -0.6409 -0.2314
12897TIP3    H160182   3.081   1.827   1.900 -0.9692  0.7148 -2.2622
12897TIP3    H260183   3.017   1.963   1.913 -1.4119  0.2658  1.5707
12898TIP3   OH260184   6.306   4.959   6.721 -0.1610  0.3732  0.3716
12898TIP3    H160185   6.330   5.020   6.791 -1.5280  0.4928  0.7828
12898TIP3    H260186   6.383   4.954   6.664  0.1589  2.0620  0.6276
12899TIP3   OH260187   5.081   1.623  16.379 -0.2550 -0.0872  0.5521
12899TIP3    H160188   5.174   1.648  16.386 -0.4097  0.8587 -0.5524
12899TIP3    H260189   5.033   1.700  16.411 -0.6795 -0.7798  1.6601
12900TIP3   OH260190   1.033   4.850   0.435 -0.3223 -0.3044 -0.8125
12900TIP3    H160191   1.070   4.882   0.354 -0.7273  0.7525 -0.5918
12900TIP3    H260192   1.078   4.898   0.504 -0.0479 -1.1224 -0.4093
12901TIP3   OH260193   4.674   1.444   5.146 -0.5307  0.3374  0.2181
12901TIP3    H160194   4.614   1.378   5.111  0.4848  0.4900 -1.9040
12901TIP3    H260195   4.616   1.514   5.177 -1.4968  0.0611 -0.8955
12902TIP3   OH260196   3.190   1.769   5.777  0.0445 -0.2429  0.2944
12902TIP3    H160197   3.263   1.717   5.743 -1.2818 -1.6718 -0.4880
12902TIP3    H260198   3.229   1.823   5.845  1.7930 -1.1016  0.0336
12903TIP3   OH260199   3.135   3.676  12.906 -0.3507 -0.6015  0.4017
12903TIP3    H160200   3.122   3.690  13.000  2.3137  0.1423  0.7398
12903TIP3    H260201   3.208   3.613  12.901 -1.2831 -1.6281 -1.2024
12904TIP3   OH260202   4.457   5.434  16.014  0.1469 -0.4793  0.4767
12904TIP3    H160203   4.415   5.349  15.997 -0.2247 -0.0575 -0.8483
12904TIP3    H260204   4.383   5.494  16.026  0.3728 -0.6691  3.5195
12905TIP3   OH260205   4.739   3.165   5.078 -0.4617  0.1281 -0.2819
12905TIP3    H160206   4.788   3.083   5.075 -1.4705 -0.4690 -1.1884
12905TIP3    H260207   4.797   3.226   5.124  0.5396 -0.9249 -0.0964
12906TIP3   OH260208   0.330   6.347  10.729  0.2975  0.1832 -0.5841
12906TIP3    H160209   0.242   6.320  10.703  0.5104 -0.8309 -0.3013
12906TIP3    H260210   0.367   6.270  10.772  1.4212  0.5122 -0.9255
12907TIP3   OH260211   0.146   2.704  13.347  0.3397 -0.0180 -0.0671
12907TIP3    H160212   0.074   2.765  13.357  0.5933  0.0555  1.4346
12907TIP3    H260213   0.105   2.617  13.348  0.2927  0.0097  1.1417
12908TIP3   OH260214   0.789   2.733   3.314 -0.2823  0.1630  0.0953
12908TIP3    H160215   0.864   2.765   3.265 -0.1294 -0.0859  0.1620
12908TIP3    H260216   0.767   2.649   3.274  0.7062 -0.7095  1.2939
12909TIP3   OH260217   4.366   4.333  15.702  0.1490  0.5330  0.1118
12909TIP3    H160218   4.371   4.248  15.745  0.6926  0.1982 -0.5930
12909TIP3    H260219   4.347   4.313  15.611 -1.6115  1.2598  0.2740
12910TIP3   OH260220   3.486   1.485  12.395  0.3112 -0.5332  0.7529
12910TIP3    H160221   3.402   1.460  12.356 -1.0058  0.5355  2.7481
12910TIP3    H260222   3.514   1.562  12.346  0.5748 -1.3627 -0.4485
12911TIP3   OH260223   0.087   5.024  12.595  0.4011  0.0868  0.1682
12911TIP3    H160224   0.146   5.088  12.633  1.3317 -0.8333  0.3281
12911TIP3    H260225   0.095   5.035  12.500 -0.9362  1.5083  0.1931
12912TIP3   OH260226   0.548   1.062   1.231  0.0094 -0.0741  0.3146
12912TIP3    H160227   0.533   0.976   1.192 -0.4466 -0.4242  1.2403
12912TIP3    H260228   0.612   1.104   1.173 -0.2271 -0.7992 -0.4798
12913TIP3   OH260229   2.112   0.622   4.760  1.1292 -0.4845  0.1639
12913TIP3    H160230   2.054   0.637   4.685  0.5720 -0.3513  0.6167
12913TIP3    H260231   2.072   0.671   4.832  1.6792 -0.5830  0.5449
12914TIP3   OH260232   2.056   0.978  11.927  0.4530  0.1218 -0.0838
12914TIP3    H160233   2.139   0.947  11.963  0.1080  0.3509  0.9536
12914TIP3    H260234   1.997   0.983  12.003 -0.6080 -0.3465 -0.8467
12915TIP3   OH260235   4.747   5.167  16.466 -0.3274 -0.6309 -0.4876
12915TIP3    H160236   4.665   5.120  16.481 -0.7095  0.1612  0.0095
12915TIP3    H260237   4.815   5.106  16.493 -0.7892 -1.0920 -0.3570
12916TIP3   OH260238   0.138   4.421   3.032 -0.7339 -0.0456  0.7486
12916TIP3    H160239   0.207   4.488   3.031 -0.5823 -0.1719 -0.8851
12916TIP3    H260240   0.185   4.338   3.028 -0.9508 -0.2295  1.7316
12917TIP3   OH260241   3.902   3.824  13.110  0.0072  0.1396 -0.0278
12917TIP3    H160242   3.895   3.740  13.155 -0.3500 -0.1114 -0.5319
12917TIP3    H260243   3.893   3.801  13.017  1.1032  0.5934 -0.2604
12918TIP3   OH260244   1.810   3.885  11.779  0.7062  0.2834 -0.6384
12918TIP3    H160245   1.817   3.976  11.749  0.7430 -0.0642 -1.7021
12918TIP3    H260246   1.901   3.855  11.782  0.6267 -0.0249 -1.2598
12919TIP3   OH260247   1.830   2.090  10.476 -0.1696 -0.2901  0.1380
12919TIP3    H160248   1.824   2.163  10.414 -0.1379 -1.3028 -1.0951
12919TIP3    H260249   1.742   2.080  10.510 -0.2858  0.0049 -0.0694
12920TIP3   OH260250   5.601   0.798   4.532 -0.6629 -0.2054 -0.0452
12920TIP3    H160251   5.651   0.784   4.612  0.6703  1.0959 -0.6051
12920TIP3    H260252   5.572   0.889   4.537 -0.7548 -0.1762 -0.9397
12921TIP3   OH260253   0.380   0.737  13.307 -0.2308  0.5845  0.0708
12921TIP3    H160254   0.331   0.815  13.280 -0.0987 -0.2065 -2.8424
12921TIP3    H260255   0.465   0.746  13.264 -0.4690 -1.4480 -0.9475
12922TIP3   OH260256   2.927   3.917  11.286 -0.4706 -0.7002 -0.0276
12922TIP3    H160257   2.872   3.988  11.254 -0.9191 -0.0247  2.0764
12922TIP3    H260258   2.998   3.910  11.222 -1.3719  0.4323 -1.1962
12923TIP3   OH260259   5.149   1.591   1.347 -0.1498 -0.1528 -0.2366
12923TIP3    H160260   5.239   1.560   1.344 -0.1137  0.0137 -1.0217
12923TIP3    H260261   5.125   1.588   1.440  0.8518  0.3310  0.0502
12924TIP3   OH260262   5.914   5.563   6.138 -0.0785  0.1664  0.5093
12924TIP3    H160263   5.905   5.622   6.213  1.1334  0.0397  0.7862
12924TIP3    H260264   6.006   5.572   6.113  0.1220 -1.5525  0.5177
12925TIP3   OH260265   0.907   5.029   5.494  0.2306  0.3247  0.4539
12925TIP3    H160266   0.965   4.954   5.512 -1.2374 -0.5360  1.9352
12925TIP3    H260267   0.965   5.105   5.494  1.7545 -0.7537 -0.9480
12926TIP3   OH260268   2.918   1.543  12.632  0.4778  0.1508  0.5703
12926TIP3    H160269   2.827   1.522  12.650 -0.4400  1.9633 -1.5352
12926TIP3    H260270   2.956   1.461  12.599 -0.5228 -0.4879  0.9849
12927TIP3   OH260271   2.202   0.602   0.344  0.2056  0.4757  0.0868
12927TIP3    H160272   2.117   0.565   0.321  1.3274 -1.1115 -1.8567
12927TIP3    H260273   2.191   0.696   0.331 -1.4708  0.4141  0.7602
12928TIP3   OH260274   0.743   1.894   2.655 -0.1932  0.3561 -0.2754
12928TIP3    H160275   0.683   1.824   2.632 -0.0893  0.2996 -0.3748
12928TIP3    H260276   0.687   1.969   2.677 -0.3613 -0.1710  1.2210
12929TIP3   OH260277   4.451   3.363  13.726  0.0717  0.3521 -0.3911
12929TIP3    H160278   4.529   3.317  13.697  2.1481  2.0289  2.0491
12929TIP3    H260279   4.452   3.355  13.822 -2.4700  0.9198 -0.2295
12930TIP3   OH260280   3.181   0.415  13.795  0.0228 -0.2436  0.1816
12930TIP3    H160281   3.109   0.471  13.766 -0.5056 -1.2917 -0.6230
12930TIP3    H260282   3.152   0.380  13.880 -1.7195 -2.7357 -1.2721
12931TIP3   OH260283   4.774   5.827  16.707  0.3774  0.4345 -0.0522
12931TIP3    H160284   4.830   5.808  16.782 -1.1489  3.2247  1.9869
12931TIP3    H260285   4.709   5.889  16.740 -3.1695 -1.5171 -2.5729
12932TIP3   OH260286   2.318   3.646   1.903 -0.2272  0.4495  0.3685
12932TIP3    H160287   2.309   3.565   1.851 -1.3142 -0.2878  1.6384
12932TIP3    H260288   2.385   3.626   1.968 -0.9143  0.3438  1.0593
12933TIP3   OH260289   6.448   4.858   6.016  0.8070  0.5289 -0.2284
12933TIP3    H160290   6.370   4.803   6.012  1.7850 -0.8709 -1.1798
12933TIP3    H260291   6.467   4.867   6.109  0.2303 -0.1549 -0.0384
12934TIP3   OH260292   4.531   4.457  17.194  0.3454 -0.0027  0.4498
12934TIP3    H160293   4.531   4.431  17.102  0.5977 -1.3337  0.8082
12934TIP3    H260294   4.550   4.551  17.192 -1.5962  0.4341 -0.9509
12935TIP3   OH260295   2.649   2.179   5.407  0.5702 -0.0230 -0.2166
12935TIP3    H160296   2.604   2.191   5.323 -1.1678 -0.5475  0.6051
12935TIP3    H260297   2.587   2.210   5.472  2.1176  0.9263  0.8796
12936TIP3   OH260298   5.922   0.198  16.062  0.2761 -0.0306  0.2533
12936TIP3    H160299   5.921   0.159  16.150  0.7038 -2.9731 -0.9291
12936TIP3    H260300   5.881   0.131  16.006  3.3229  0.0784 -2.3633
12937TIP3   OH260301   6.516   5.722  13.928 -0.2332 -0.1568  0.3143
12937TIP3    H160302   6.454   5.673  13.983  0.3432  0.4171  1.5286
12937TIP3    H260303   6.477   5.721  13.841 -2.6219  1.2418  1.2692
12938TIP3   OH260304   6.427   1.256   1.915  0.1549  0.0012  0.6530
12938TIP3    H160305   6.392   1.274   2.003 -2.9966 -0.7229 -0.3273
12938TIP3    H260306   6.360   1.289   1.855  2.3187  0.6845 -1.5594
12939TIP3   OH260307   4.038   2.342   2.986 -0.3575 -0.2518 -0.4925
12939TIP3    H160308   4.035   2.247   2.998 -1.7484 -0.1951 -0.1776
12939TIP3    H260309   4.120   2.358   2.939 -0.9936 -1.8019 -2.2650
12940TIP3   OH260310   5.552   5.316   1.706  0.0403 -0.1458  0.1673
12940TIP3    H160311   5.548   5.223   1.729 -0.9760 -0.1715 -0.0715
12940TIP3    H260312   5.576   5.317   1.614 -0.5318 -0.2002  0.0127
12941TIP3   OH260313   4.475   2.712  15.819  0.1936 -0.8196  0.6824
12941TIP3    H160314   4.385   2.740  15.837  0.2168 -1.1349  1.3292
12941TIP3    H260315   4.514   2.701  15.906  1.3890  1.0080  0.4289
12942TIP3   OH260316   0.185   6.168  13.059 -0.5435  0.5930  0.0450
12942TIP3    H160317   0.170   6.222  12.982 -0.2341  1.4146  0.5485
12942TIP3    H260318   0.159   6.223  13.133  0.7397  0.4469  0.6389
12943TIP3   OH260319   2.843   6.568   5.509  0.6053  0.0758  0.2889
12943TIP3    H160320   2.788   6.536   5.437 -2.5568  1.2376  1.9816
12943TIP3    H260321   2.845   6.663   5.497 -2.1728  0.6276  2.9368
12944TIP3   OH260322   2.947   0.703   4.718 -0.2283 -0.3438 -1.0224
12944TIP3    H160323   2.952   0.744   4.631  0.7661  0.6065 -0.5469
12944TIP3    H260324   2.923   0.775   4.777  1.0607 -0.5222 -0.2369
12945TIP3   OH260325   1.300   1.227   5.715  0.3774 -0.1636  0.9151
12945TIP3    H160326   1.268   1.266   5.796  0.4760 -0.8363  1.2825
12945TIP3    H260327   1.377   1.177   5.741  2.7288  2.6684 -0.1792
12946TIP3   OH260328   5.342   3.556  16.282 -0.2344 -0.2305  0.6406
12946TIP3    H160329   5.320   3.463  16.282 -0.2127 -0.2466 -0.1844
12946TIP3    H260330   5.261   3.599  16.310 -0.4488 -0.4596  0.3823
12947TIP3   OH260331   6.259   1.127   5.846 -0.0612 -0.2667 -0.3827
12947TIP3    H160332   6.208   1.046   5.849  1.1401 -1.0073  0.9803
12947TIP3    H260333   6.231   1.176   5.924  1.2413 -0.6704  0.3651
12948TIP3   OH260334   0.269   6.462  16.980  0.3547  0.1306 -0.9349
12948TIP3    H160335   0.253   6.504  16.896  2.0404  0.4652 -1.1325
12948TIP3    H260336   0.356   6.493  17.006 -0.1595  0.1198  0.9903
12949TIP3   OH260337   1.034   3.646   2.597  0.1801  0.2746  0.2147
12949TIP3    H160338   0.960   3.636   2.657  0.4254 -1.9744  0.2410
12949TIP3    H260339   1.087   3.716   2.636 -1.0518  0.7482  1.1125
12950TIP3   OH260340   4.102   5.917   0.538 -0.3900  0.0201 -0.1033
12950TIP3    H160341   4.156   5.955   0.469  2.1343  0.8904  2.1746
12950TIP3    H260342   4.081   5.829   0.507  0.7131  0.3474 -1.9005
12951TIP3   OH260343   0.080   1.905   4.739 -0.0688 -0.1132  0.1765
12951TIP3    H160344   0.084   1.993   4.702  1.2610 -0.3638 -0.3399
12951TIP3    H260345   0.156   1.900   4.797  0.1750 -1.0730 -0.1974
12952TIP3   OH260346   6.032   3.486   3.178  0.1159  0.0798  0.7315
12952TIP3    H160347   6.083   3.527   3.248  0.3448  0.3788  0.3922
12952TIP3    H260348   5.964   3.549   3.157  0.8707  0.6031 -0.2554
12953TIP3   OH260349   5.739   1.124   4.862 -0.3337 -0.0045  0.4854
12953TIP3    H160350   5.799   1.051   4.845 -0.2635  0.1731 -0.0457
12953TIP3    H260351   5.776   1.197   4.814 -1.0876  0.0563 -0.0251
12954TIP3   OH260352   0.091   1.403  15.961 -0.1478 -0.0997 -0.2237
12954TIP3    H160353   0.150   1.463  16.007 -0.2930 -1.0254  1.2449
12954TIP3    H260354   0.006   1.417  16.002 -0.3887 -0.6060 -0.5423
12955TIP3   OH260355   1.147   2.568  16.188 -0.5036  0.4479 -0.2334
12955TIP3    H160356   1.096   2.499  16.230 -1.9147  1.3438 -0.3926
12955TIP3    H260357   1.093   2.646  16.197 -0.4289  0.8872 -2.8243
12956TIP3   OH260358   4.493   0.045  11.594  0.0065  0.1610 -0.1305
12956TIP3    H160359   4.457  -0.040  11.620 -1.7511  0.7489 -0.5223
12956TIP3    H260360   4.548   0.025  11.519  1.5881 -0.9398  1.2527
12957TIP3   OH260361   5.425   4.030   6.006  0.4945  0.7375 -0.2327
12957TIP3    H160362   5.428   4.111   6.058  3.2790 -0.4767  1.7525
12957TIP3    H260363   5.386   3.965   6.064 -0.3084  0.2817 -1.2530
12958TIP3   OH260364   2.219   0.288  11.780 -0.0807  0.0533 -0.1044
12958TIP3    H160365   2.222   0.380  11.756 -1.4233 -0.2382 -1.5859
12958TIP3    H260366   2.126   0.265  11.778  0.1562 -1.1352  1.0583
12959TIP3   OH260367   1.003   4.102  13.378  0.1690  0.1214  0.1537
12959TIP3    H160368   0.914   4.116  13.345  0.7981  1.9506 -0.9157
12959TIP3    H260369   1.056   4.168  13.334  1.7885  0.1645  2.0002
12960TIP3   OH260370   4.008   2.391  16.092 -0.3330 -0.0359  0.7733
12960TIP3    H160371   3.995   2.421  16.182 -3.6661 -0.5717  0.6038
12960TIP3    H260372   3.951   2.447  16.040 -2.3305 -2.8361 -0.2845
12961TIP3   OH260373   5.737   2.370   4.827 -0.6408  0.2089  0.5999
12961TIP3    H160374   5.826   2.350   4.798 -0.5977 -0.8492  1.4106
12961TIP3    H260375   5.744   2.460   4.860 -0.0915  0.4618 -0.1482
12962TIP3   OH260376   1.208   1.641   5.913 -0.5411 -0.2333  0.2140
12962TIP3    H160377   1.184   1.655   5.821 -0.6199  1.5213  0.4690
12962TIP3    H260378   1.303   1.625   5.910 -0.5016  0.0491 -0.1563
12963TIP3   OH260379   5.205   5.717   4.940  0.6440 -0.2796  0.0515
12963TIP3    H160380   5.262   5.681   5.008  0.7467  0.2672  0.2652
12963TIP3    H260381   5.230   5.809   4.934 -0.2971  0.0011  0.2429
12964TIP3   OH260382   1.788   1.369  11.573  0.2402  0.3370  0.5958
12964TIP3    H160383   1.828   1.413  11.648  1.9775 -2.5226  1.4866
12964TIP3    H260384   1.738   1.297  11.612  0.1673 -0.4812 -0.9464
12965TIP3   OH260385   1.122   4.414   5.391  0.1498  0.2003 -0.0802
12965TIP3    H160386   1.114   4.479   5.322  1.1868  0.9792  0.5008
12965TIP3    H260387   1.033   4.396   5.418 -0.1747  1.0216 -0.5774
12966TIP3   OH260388   3.883   0.720  14.872  0.1197 -0.1934 -0.4571
12966TIP3    H160389   3.971   0.686  14.889 -0.0097 -0.5332 -0.4674
12966TIP3    H260390   3.898   0.806  14.831  0.4429  0.7148  1.4395
12967TIP3   OH260391   6.274   2.128   4.134 -0.3489  0.6717  0.0370
12967TIP3    H160392   6.267   2.140   4.039 -2.3991  1.0023  0.1892
12967TIP3    H260393   6.226   2.048   4.152  1.3946 -0.2842  0.6635
12968TIP3   OH260394   0.423   0.121   2.548  0.1505 -0.2553 -0.2244
12968TIP3    H160395   0.391   0.032   2.532  0.6259 -0.9492  2.2891
12968TIP3    H260396   0.513   0.109   2.577 -0.2730  0.8934  1.6957
12969TIP3   OH260397   1.827   2.730  13.983 -0.5583 -0.4515 -0.4363
12969TIP3    H160398   1.770   2.652  13.985 -0.2250 -0.6882 -0.0025
12969TIP3    H260399   1.819   2.763  13.894 -0.2854 -1.2944 -0.7820
12970TIP3   OH260400   0.414   6.181   0.783  0.4599  0.4787 -0.4067
12970TIP3    H160401   0.464   6.154   0.706 -0.6976  1.1300 -1.4335
12970TIP3    H260402   0.426   6.276   0.787  1.6002  0.2966  1.0391
12971TIP3   OH260403   0.189   5.491   4.200 -0.1392 -0.1034  0.5830
12971TIP3    H160404   0.156   5.569   4.244 -0.2147  0.4656 -0.4578
12971TIP3    H260405   0.281   5.510   4.181 -0.8167  0.9328 -2.1536
12972TIP3   OH260406   5.584   4.052   2.302  0.2472 -0.3182  0.0442
12972TIP3    H160407   5.610   4.007   2.383  0.4159  1.1019  0.8138
12972TIP3    H260408   5.653   4.115   2.286 -0.9907  1.1270  0.1888
12973TIP3   OH260409   5.956   3.212   4.206 -0.0507 -0.4697  0.6293
12973TIP3    H160410   5.928   3.292   4.250 -0.0343  0.4377 -0.9609
12973TIP3    H260411   5.894   3.200   4.134  2.0899  0.2267 -1.4523
12974TIP3   OH260412   1.853   0.964   2.289  0.0012  0.1264 -0.1503
12974TIP3    H160413   1.886   1.053   2.300  0.3073 -0.0427  0.3408
12974TIP3    H260414   1.906   0.912   2.350  2.5956 -1.0635 -3.1601
12975TIP3   OH260415   3.289   6.674  14.073 -0.3518 -0.2133  0.1077
12975TIP3    H160416   3.378   6.689  14.106 -0.3826 -1.2768  0.6997
12975TIP3    H260417   3.299   6.674  13.978  0.3855 -0.8213  0.1738
12976TIP3   OH260418   1.415   6.457   0.110 -0.1288 -0.0185 -0.4323
12976TIP3    H160419   1.335   6.444   0.161 -0.5575  0.8091 -0.8675
12976TIP3    H260420   1.412   6.549   0.085  0.6595 -0.1344 -0.9629
12977TIP3   OH260421   0.876   1.099   5.758 -0.1598 -0.1697 -0.0545
12977TIP3    H160422   0.855   1.054   5.840 -2.4775  0.1746 -0.3922
12977TIP3    H260423   0.905   1.186   5.786  1.3990 -0.8206  0.4650
12978TIP3   OH260424   0.649   4.503  16.025 -0.1953  0.3834 -0.0495
12978TIP3    H160425   0.738   4.525  16.052  0.0314 -0.2876 -0.2204
12978TIP3    H260426   0.646   4.407  16.031 -0.2812  0.2297 -1.9511
12979TIP3   OH260427   0.060   5.297   1.589  0.2467  0.3483 -0.1071
12979TIP3    H160428  -0.023   5.292   1.540  1.0719 -1.2492 -1.4457
12979TIP3    H260429   0.125   5.318   1.522  1.0402  0.8115  0.7993
12980TIP3   OH260430   2.090   4.526   6.005  0.2247  0.8336 -0.1415
12980TIP3    H160431   2.163   4.553   5.951  2.1098 -2.4583  0.4941
12980TIP3    H260432   2.121   4.535   6.095 -0.6189  0.6290  0.1870
12981TIP3   OH260433   3.332   4.853  11.271  0.4680 -0.0954 -0.6713
12981TIP3    H160434   3.329   4.803  11.189 -0.9595  0.3243 -0.8942
12981TIP3    H260435   3.338   4.786  11.339 -1.3902 -0.6089 -0.9632
12982TIP3   OH260436   4.523   4.023  17.228 -0.3521  0.2579 -0.6130
12982TIP3    H160437   4.599   3.990  17.179 -0.4263 -1.3576  0.2986
12982TIP3    H260438   4.555   4.036  17.317 -0.6127  1.7300 -0.6946
12983TIP3   OH260439   5.294   2.208   4.312  0.1468 -0.6907  0.8099
12983TIP3    H160440   5.233   2.163   4.370  0.8487 -0.5303  1.6827
12983TIP3    H260441   5.360   2.246   4.370 -0.5518  1.7168  0.1640
12984TIP3   OH260442   4.933   5.057  12.444 -0.2801 -0.2594  0.2920
12984TIP3    H160443   4.965   4.968  12.457 -2.2671 -0.9794  0.4884
12984TIP3    H260444   5.006   5.112  12.472  0.2696 -1.8033  2.1408
12985TIP3   OH260445   5.035   1.490   5.958 -0.2281  0.2403 -0.7078
12985TIP3    H160446   5.070   1.577   5.972 -1.8557  0.7974  0.2145
12985TIP3    H260447   5.036   1.449   6.045 -1.7505  0.2844 -0.6307
12986TIP3   OH260448   1.872   1.317  13.610 -0.2770  0.3707  0.2108
12986TIP3    H160449   1.815   1.386  13.644  0.1251  0.1649  1.3606
12986TIP3    H260450   1.950   1.322  13.666  0.4265  0.0249 -0.7220
12987TIP3   OH260451   4.877   5.340   1.751 -0.2334 -0.0102  0.1496
12987TIP3    H160452   4.972   5.344   1.757 -0.1575  2.5260 -1.1225
12987TIP3    H260453   4.856   5.247   1.748  2.1616 -0.6259  0.8336
12988TIP3   OH260454   2.519   3.511  13.651  0.4066 -0.1959 -0.0824
12988TIP3    H160455   2.438   3.542  13.611  0.9112 -0.7028 -1.5680
12988TIP3    H260456   2.513   3.415  13.645  0.7345 -0.2592  0.5778
12989TIP3   OH260457   4.994   4.824   6.593 -0.1711 -0.3036  0.1712
12989TIP3    H160458   4.984   4.910   6.632  1.2012  0.3925 -0.9121
12989TIP3    H260459   5.013   4.766   6.667  0.4812  0.6207  0.7469
12990TIP3   OH260460   2.298   5.577   1.303 -0.3433  0.0325 -0.0900
12990TIP3    H160461   2.244   5.506   1.338  1.0130 -0.3682  1.2930
12990TIP3    H260462   2.371   5.532   1.261  1.3083  0.5377  2.0670
12991TIP3   OH260463   0.865   2.903   1.640 -0.3667 -0.3262  0.3249
12991TIP3    H160464   0.800   2.902   1.711 -1.2965 -2.7437 -0.4545
12991TIP3    H260465   0.916   2.823   1.653  0.9137  0.3263 -0.4730
12992TIP3   OH260466   6.665   0.027  10.660  0.2272 -0.2051 -0.1668
12992TIP3    H160467   6.624  -0.054  10.631 -0.1727  0.3629 -1.2316
12992TIP3    H260468   6.654   0.087  10.587 -0.3725  1.1190  0.9641
12993TIP3   OH260469   3.201   3.301  14.940  0.6868  0.3284  0.0171
12993TIP3    H160470   3.246   3.247  14.875  0.8864  0.2504  0.2190
12993TIP3    H260471   3.187   3.243  15.014  0.4358  0.4111  0.0342
12994TIP3   OH260472   3.388   5.858   3.385  0.3125  0.5528 -0.0696
12994TIP3    H160473   3.317   5.901   3.338  1.2263  1.3609 -0.7850
12994TIP3    H260474   3.438   5.813   3.317  2.4217  2.8209 -0.2021
12995TIP3   OH260475   6.603   0.073   5.703 -0.0791 -0.4116 -0.7192
12995TIP3    H160476   6.672   0.137   5.691  1.2715 -1.5528  0.5673
12995TIP3    H260477   6.626   0.001   5.644 -0.0971 -0.8444 -0.2072
12996TIP3   OH260478   2.991   5.734  10.857 -0.5507  0.6407  0.1595
12996TIP3    H160479   2.908   5.757  10.814 -0.8492 -2.8609 -1.5571
12996TIP3    H260480   2.979   5.643  10.884  2.6519  0.0655  0.0403
12997TIP3   OH260481   2.050   1.409   2.426 -0.5830  0.6217 -0.9326
12997TIP3    H160482   2.077   1.369   2.509 -3.6714 -1.0048 -0.5885
12997TIP3    H260483   2.108   1.485   2.416  1.0310 -0.1249  1.8012
12998TIP3   OH260484   3.873   2.802   0.547  0.1671  0.1514 -0.4926
12998TIP3    H160485   3.958   2.800   0.592  0.7595  0.8304 -1.5277
12998TIP3    H260486   3.865   2.892   0.516 -2.1504  0.8348  1.7551
12999TIP3   OH260487   5.813   1.347   4.736  0.3887  0.1008  0.3145
12999TIP3    H160488   5.879   1.408   4.704  0.7045 -0.4142 -0.0328
12999TIP3    H260489   5.730   1.383   4.706  0.2792  1.8637  2.4673
13000TIP3   OH260490   4.734   3.507   4.164 -0.1704  0.0768 -0.7421
13000TIP3    H160491   4.767   3.464   4.243  0.8955 -0.5626 -1.5062
13000TIP3    H260492   4.783   3.467   4.093  0.6712  2.3555 -1.5347
13001TIP3   OH260493   2.666   4.288  15.822  0.0757 -0.0960 -0.4406
13001TIP3    H160494   2.699   4.272  15.734  1.3953  0.7865 -0.1330
13001TIP3    H260495   2.637   4.202  15.853 -0.1233 -0.4661 -1.6093
13002TIP3   OH260496   4.762   6.390  14.508  0.2951 -0.3094 -0.1380
13002TIP3    H160497   4.699   6.384  14.436  1.2418 -0.0689 -1.0117
13002TIP3    H260498   4.709   6.391  14.587 -0.7331 -1.5615 -0.7847
13003TIP3   OH260499   2.228   3.715   0.354  0.6287  0.3573  0.5661
13003TIP3    H160500   2.160   3.650   0.336 -0.0891  1.3841 -0.6019
13003TIP3    H260501   2.215   3.738   0.446  1.4091 -1.6880  1.2375
13004TIP3   OH260502   4.972   6.209   5.999  0.2711  0.7743  0.7811
13004TIP3    H160503   5.062   6.196   6.028 -0.0486 -1.0472  1.0535
13004TIP3    H260504   4.940   6.121   5.980 -2.4130  0.9958  3.5848
13005TIP3   OH260505   1.602   1.096  12.960  0.3183  0.6882  0.1904
13005TIP3    H160506   1.530   1.040  12.991  0.4188  0.6320  0.3272
13005TIP3    H260507   1.563   1.182  12.949  0.2726  0.7011  0.4496
13006TIP3   OH260508   6.763   4.157   5.198  0.8275 -0.8259  0.2010
13006TIP3    H160509   6.672   4.129   5.202  0.0009  1.5467 -0.2152
13006TIP3    H260510   6.789   4.168   5.290  0.0953  0.1687  0.3013
13007TIP3   OH260511   4.905   1.282   2.145 -0.3398  0.5237 -0.7527
13007TIP3    H160512   4.896   1.204   2.091  0.3768  2.1257 -3.3814
13007TIP3    H260513   4.999   1.298   2.150 -0.2118 -0.5351  2.6199
13008TIP3   OH260514   5.782   3.640  16.906 -0.2659 -0.4032 -0.4843
13008TIP3    H160515   5.839   3.712  16.932 -1.0886  0.6425 -1.4679
13008TIP3    H260516   5.837   3.562  16.912  0.7811  0.3691  0.1488
13009TIP3   OH260517   2.543   0.737   3.131  0.0068 -0.0964 -0.0443
13009TIP3    H160518   2.576   0.764   3.045 -0.6763 -1.6049 -0.8193
13009TIP3    H260519   2.525   0.644   3.121 -1.2330 -0.0342  1.3894
13010TIP3   OH260520   5.525   4.797   0.603 -0.2522  0.4593  0.3281
13010TIP3    H160521   5.572   4.811   0.685 -1.2553  1.0318  0.8287
13010TIP3    H260522   5.443   4.754   0.629 -0.4973  0.4684 -0.3984
13011TIP3   OH260523   5.131   6.463   1.988 -0.4210  0.4505 -0.3008
13011TIP3    H160524   5.089   6.403   1.926 -0.1004 -0.8269  0.6772
13011TIP3    H260525   5.225   6.447   1.976 -0.3259  0.8469 -0.0989
13012TIP3   OH260526   5.644   3.101  15.689 -0.1080 -0.0812 -0.1454
13012TIP3    H160527   5.679   3.151  15.763  3.3484 -0.1618 -1.5442
13012TIP3    H260528   5.645   3.010  15.719 -1.5458  0.1380  0.6537
13013TIP3   OH260529   5.112   1.624  13.105 -0.2790 -0.0304  0.3651
13013TIP3    H160530   5.182   1.626  13.039 -2.1425 -0.6942 -1.7553
13013TIP3    H260531   5.096   1.716  13.126 -0.0313  0.2464 -0.5841
13014TIP3   OH260532   6.059   2.672  15.189  0.8428  0.5454  0.6173
13014TIP3    H160533   6.013   2.711  15.114 -0.1701 -1.6257  0.0284
13014TIP3    H260534   6.096   2.747  15.236  0.2928  2.0751 -1.2546
13015TIP3   OH260535   0.374   3.817   6.037  0.3499 -0.0660  0.1966
13015TIP3    H160536   0.389   3.724   6.052 -1.7140 -0.2929  1.1919
13015TIP3    H260537   0.439   3.842   5.972  1.4379 -2.0196  0.4781
13016TIP3   OH260538   4.708   6.304   6.072 -0.5935 -0.3602  0.3177
13016TIP3    H160539   4.653   6.304   6.150 -1.4337 -0.9572 -0.2591
13016TIP3    H260540   4.797   6.321   6.106 -0.9469 -0.5465  1.3902
13017TIP3   OH260541   2.968   1.426   4.662  0.5204  0.0904 -0.7906
13017TIP3    H160542   3.043   1.463   4.708 -0.7785  1.9076  0.0332
13017TIP3    H260543   3.004   1.384   4.584  2.3594  0.9720 -0.4561
13018TIP3   OH260544   1.232   4.125  10.454 -0.5010  0.6512 -0.4037
13018TIP3    H160545   1.259   4.036  10.432 -0.4218  0.8131 -1.0009
13018TIP3    H260546   1.202   4.120  10.544 -2.2987 -0.4144 -0.9944
13019TIP3   OH260547   1.964   5.958   2.002  0.3660 -0.0004  0.2026
13019TIP3    H160548   1.985   6.038   1.953 -1.0633  1.1904  1.4320
13019TIP3    H260549   1.871   5.943   1.985  0.3740 -0.8131  0.8086
13020TIP3   OH260550   4.612   2.651   1.172 -0.1196  0.8865  0.0798
13020TIP3    H160551   4.621   2.556   1.167 -1.2622  0.7977 -0.7786
13020TIP3    H260552   4.623   2.681   1.081  1.2589  1.6974  0.4861
13021TIP3   OH260553   6.667   3.868   1.130 -0.5244  0.2304  0.0072
13021TIP3    H160554   6.754   3.857   1.090 -0.2840 -2.1405  1.0328
13021TIP3    H260555   6.679   3.938   1.194  0.3370  0.6910 -0.6322
13022TIP3   OH260556   4.271   2.169  11.883 -0.5781  0.2510 -0.3901
13022TIP3    H160557   4.203   2.176  11.817  0.1531  1.9130 -1.0139
13022TIP3    H260558   4.342   2.225  11.852  1.7900 -2.5433 -0.5767
13023TIP3   OH260559   4.700   5.080  16.777 -0.0149 -0.1764  0.7171
13023TIP3    H160560   4.670   5.140  16.709  0.0880 -0.0466  0.7857
13023TIP3    H260561   4.728   5.137  16.848  0.0221 -0.3081  0.8093
13024TIP3   OH260562   3.082   3.316   3.794  0.3388  0.2790 -0.2251
13024TIP3    H160563   3.124   3.229   3.795  0.7032  0.4574  0.2424
13024TIP3    H260564   2.990   3.298   3.813  0.6375  0.1011  1.2093
13025TIP3   OH260565   6.471   1.170  12.698 -0.2705 -0.2716  0.3976
13025TIP3    H160566   6.489   1.257  12.662  1.9410  0.0265  2.0347
13025TIP3    H260567   6.409   1.186  12.769  1.0190  0.2053  1.4695
13026TIP3   OH260568   6.010   6.058  14.354 -0.1905  0.1091  0.0795
13026TIP3    H160569   6.086   6.100  14.393  0.7101 -0.6550 -0.8033
13026TIP3    H260570   6.045   6.009  14.280 -1.2379 -1.8656  0.8183
13027TIP3   OH260571   1.908   3.351   5.937 -0.1860  0.1765  0.1009
13027TIP3    H160572   1.897   3.421   5.873 -0.2229  0.0955  0.0198
13027TIP3    H260573   1.821   3.336   5.972  0.2658  2.4883  2.5534
13028TIP3   OH260574   3.435   4.629  11.423 -0.4159  0.0774 -0.5255
13028TIP3    H160575   3.377   4.567  11.467  0.5905 -0.7295 -0.3055
13028TIP3    H260576   3.517   4.624  11.471  0.2758  0.1916 -1.6549
13029TIP3   OH260577   6.505   0.132  11.718  0.1182  0.0319  0.0433
13029TIP3    H160578   6.452   0.080  11.779 -2.2814  0.9912 -1.0747
13029TIP3    H260579   6.588   0.145  11.764 -0.7574 -1.1625  2.1406
13030TIP3   OH260580   2.555   5.193   0.263  0.8080  0.1523  0.5311
13030TIP3    H160581   2.562   5.131   0.190  1.3541  1.4722 -0.5788
13030TIP3    H260582   2.541   5.137   0.340 -0.1625 -1.2584 -0.6093
13031TIP3   OH260583   0.816   6.289  12.357 -0.5233 -0.1792  0.3723
13031TIP3    H160584   0.841   6.378  12.379  0.5754  0.0459 -1.5327
13031TIP3    H260585   0.874   6.234  12.410  0.6990  0.3027 -0.4132
13032TIP3   OH260586   6.709   3.589   0.426  0.5773 -0.3948  0.4584
13032TIP3    H160587   6.771   3.517   0.410 -0.4566 -1.1824 -0.1234
13032TIP3    H260588   6.680   3.615   0.339  1.5971  1.3785  0.5941
13033TIP3   OH260589   2.780   5.803  16.073  0.3800  0.3263  0.7472
13033TIP3    H160590   2.689   5.833  16.071  0.7812  1.6466  1.0892
13033TIP3    H260591   2.809   5.818  16.163  1.5327  1.8675  0.1628
13034TIP3   OH260592   2.038   2.226  16.141 -0.0864  0.3127  0.7491
13034TIP3    H160593   2.101   2.275  16.087 -0.0773  1.2634  1.5844
13034TIP3    H260594   1.994   2.294  16.193 -1.2935 -0.4106  0.7112
13035TIP3   OH260595   5.847   5.631   2.736 -0.2389  0.4078 -0.1771
13035TIP3    H160596   5.907   5.640   2.810  1.0902 -0.5686 -1.0716
13035TIP3    H260597   5.768   5.676   2.763  0.2470  0.1756  1.7892
13036TIP3   OH260598   2.422   0.890   4.616 -0.0440  0.4398  0.1985
13036TIP3    H160599   2.411   0.796   4.630  1.7850  0.1279 -0.2114
13036TIP3    H260600   2.365   0.910   4.542 -0.8143 -0.2225  0.5836
13037TIP3   OH260601   1.653   0.345  11.792 -0.5665  0.4531 -0.1141
13037TIP3    H160602   1.684   0.322  11.704 -2.2959  0.4300 -0.7554
13037TIP3    H260603   1.565   0.382  11.778 -0.3471  1.7084  1.4832
13038TIP3   OH260604   6.729   6.598   0.561  0.0548  0.6489  0.6808
13038TIP3    H160605   6.763   6.547   0.488 -0.1968  0.4685  0.6862
13038TIP3    H260606   6.799   6.600   0.625 -0.5147 -1.1518  1.4201
13039TIP3   OH260607   0.239   3.787   4.018 -0.2702 -0.2082  0.9728
13039TIP3    H160608   0.323   3.831   4.003  0.2166 -1.3482  0.1916
13039TIP3    H260609   0.216   3.811   4.108  0.6351  0.5309  1.0292
13040TIP3   OH260610   1.035   3.828   4.990  0.2793  0.2417  0.0554
13040TIP3    H160611   0.948   3.851   4.959  0.6987  0.2711 -1.1253
13040TIP3    H260612   1.048   3.738   4.960  1.7338  1.1473 -2.2569
13041TIP3   OH260613   3.147   4.801  16.066 -0.0261 -0.3881 -0.0416
13041TIP3    H160614   3.206   4.786  16.140  0.4172  0.3754 -0.2347
13041TIP3    H260615   3.188   4.756  15.993 -0.5141 -1.2272  0.1822
13042TIP3   OH260616   0.858   3.347  12.099 -0.2522  0.4315  0.0206
13042TIP3    H160617   0.942   3.337  12.055  0.0214 -0.6935  0.7568
13042TIP3    H260618   0.877   3.401  12.176  0.2884 -1.6095  1.3944
13043TIP3   OH260619   6.531   1.388   1.239  0.2370 -0.4315  0.3488
13043TIP3    H160620   6.444   1.348   1.234 -1.1000  2.3058 -0.5489
13043TIP3    H260621   6.592   1.315   1.230 -1.8983 -2.6441  2.3224
13044TIP3   OH260622   0.457   1.252  15.278  0.6147 -0.1884 -0.1816
13044TIP3    H160623   0.432   1.241  15.369 -0.6176 -1.4189 -0.6337
13044TIP3    H260624   0.474   1.164  15.246 -0.1845  0.0813 -1.4537
13045TIP3   OH260625   3.567   2.110   4.065 -0.3893  0.1908  0.6952
13045TIP3    H160626   3.567   2.032   4.120  0.2226  0.7494  1.5196
13045TIP3    H260627   3.627   2.089   3.993 -1.6589 -0.7703 -0.1310
13046TIP3   OH260628   6.124   6.330   4.719 -0.2505  0.3060 -0.0363
13046TIP3    H160629   6.205   6.345   4.670  2.0510  0.0202  3.3621
13046TIP3    H260630   6.141   6.250   4.769 -1.8111  1.3302  2.3104
13047TIP3   OH260631   6.273   6.361  15.795  0.1180 -0.0700 -0.7349
13047TIP3    H160632   6.201   6.299  15.783 -0.2043  0.5886 -2.5325
13047TIP3    H260633   6.300   6.349  15.886 -2.5420 -0.0355  0.1537
13048TIP3   OH260634   6.525   3.307  12.897  0.0299 -0.8370 -0.8861
13048TIP3    H160635   6.571   3.270  12.973 -1.6212 -0.0406  0.5749
13048TIP3    H260636   6.564   3.394  12.886 -0.3005 -0.6247 -0.4072
13049TIP3   OH260637   5.586   5.529   4.568 -0.0228  0.2933 -0.2252
13049TIP3    H160638   5.499   5.513   4.605 -0.1627  0.4287 -0.4911
13049TIP3    H260639   5.582   5.492   4.480  0.4765 -0.4902  0.0749
13050TIP3   OH260640   1.146   2.959  14.059 -0.5139 -0.4414  0.2611
13050TIP3    H160641   1.227   3.005  14.081  0.0459 -0.0886 -2.2127
13050TIP3    H260642   1.091   3.026  14.019 -1.0770 -1.1635 -0.2009
13051TIP3   OH260643   4.492   0.049   3.213  0.2479  0.2280  0.0041
13051TIP3    H160644   4.555   0.003   3.269  1.3057  0.8517 -0.6459
13051TIP3    H260645   4.434   0.094   3.275  0.4825 -0.2834  0.6138
13052TIP3   OH260646   4.152   4.786   3.207  0.1121  0.7687 -0.2521
13052TIP3    H160647   4.067   4.745   3.189  1.3678 -2.5723  0.5668
13052TIP3    H260648   4.151   4.801   3.302  0.5831  0.2325 -0.1556
13053TIP3   OH260649   4.039   1.092  11.774 -0.3856 -0.5445 -0.2305
13053TIP3    H160650   3.985   1.155  11.821  0.5858 -0.9427  1.5075
13053TIP3    H260651   3.992   1.077  11.691 -1.1778  1.6008 -0.2327
13054TIP3   OH260652   0.057   1.431  14.012  0.2589  0.0419  0.4123
13054TIP3    H160653   0.087   1.449  14.101  0.8733  0.6242  0.0907
13054TIP3    H260654   0.134   1.444  13.958 -0.0146 -0.6976 -0.1699
13055TIP3   OH260655   4.555   3.075  15.194  0.2752  0.2620  0.3885
13055TIP3    H160656   4.474   3.106  15.152  1.4797 -0.1673 -2.5060
13055TIP3    H260657   4.543   3.094  15.287 -3.4688 -0.5317  0.2249
13056TIP3   OH260658   2.604   5.009   5.999  0.5037  0.5288  0.2902
13056TIP3    H160659   2.646   4.931   6.035 -1.0540 -0.8881 -0.8450
13056TIP3    H260660   2.624   5.078   6.062  2.2288 -0.6808  1.1415
13057TIP3   OH260661   4.926   1.405   5.023  0.2314 -0.2324  0.1820
13057TIP3    H160662   4.933   1.323   5.072 -1.3518 -0.1035  0.6789
13057TIP3    H260663   4.851   1.449   5.061 -0.9033  0.0125 -2.1481
13058TIP3   OH260664   3.534   1.952   0.363  0.0969 -0.4973 -0.7790
13058TIP3    H160665   3.570   1.976   0.449  2.4101  0.4214 -1.9358
13058TIP3    H260666   3.519   2.035   0.319  1.2519 -0.9618 -2.1271
13059TIP3   OH260667   2.194   2.088  17.149  0.3158 -0.3806  0.3132
13059TIP3    H160668   2.108   2.054  17.125  0.0235  0.6688 -0.1880
13059TIP3    H260669   2.179   2.139  17.228  0.6677 -0.9942  0.7874
13060TIP3   OH260670   5.862   1.454   0.824  0.6032 -0.1824 -0.2867
13060TIP3    H160671   5.926   1.383   0.831 -0.5179 -1.2215 -0.2246
13060TIP3    H260672   5.787   1.424   0.876 -0.2147  0.6849 -0.9273
13061TIP3   OH260673   1.638   3.109   2.888  0.2970  0.2356 -0.0118
13061TIP3    H160674   1.591   3.141   2.965  2.1578 -1.0761  1.7934
13061TIP3    H260675   1.695   3.181   2.862 -2.1971  1.6716 -1.9386
13062TIP3   OH260676   5.915   5.921  12.941  0.3527 -0.3721  0.1195
13062TIP3    H160677   5.881   5.856  13.003 -0.3332  1.3596  1.6316
13062TIP3    H260678   5.999   5.886  12.914  0.9798 -0.9183  2.5505
13063TIP3   OH260679   2.558   1.900  11.789  0.6711 -0.4023  0.5992
13063TIP3    H160680   2.525   1.877  11.876 -1.4971  1.9062  0.4800
13063TIP3    H260681   2.557   1.817  11.740  0.0867 -1.3700  2.1957
13064TIP3   OH260682   4.997   4.228  12.277 -0.0117  0.0214  0.4694
13064TIP3    H160683   4.935   4.220  12.205  1.4690 -0.7405 -0.7808
13064TIP3    H260684   4.947   4.204  12.355 -1.3730 -0.1554 -0.4240
13065TIP3   OH260685   0.883   1.523   6.107 -0.4958  0.2281  0.1868
13065TIP3    H160686   0.906   1.509   6.199 -0.7199 -1.5534  0.0156
13065TIP3    H260687   0.897   1.437   6.066  1.0779  1.3458 -1.7940
13066TIP3   OH260688   1.482   5.298   2.198 -0.2088  0.2066 -0.1626
13066TIP3    H160689   1.413   5.243   2.160 -0.3794 -2.1532  3.1193
13066TIP3    H260690   1.440   5.382   2.214 -1.7303 -0.5217 -0.1447
13067TIP3   OH260691   0.106   1.091  12.292 -0.3830 -0.1480 -0.2282
13067TIP3    H160692   0.157   1.141  12.229 -0.9377  2.2837  1.0768
13067TIP3    H260693   0.021   1.136  12.295 -0.6170 -0.6028  1.6880
13068TIP3   OH260694   5.742   1.956   4.513  0.3732  0.4221 -0.9617
13068TIP3    H160695   5.676   2.025   4.506  0.3061  0.9112  2.7815
13068TIP3    H260696   5.825   2.000   4.498  0.1941  0.9147 -0.5321
13069TIP3   OH260697   4.176   1.361  12.016 -0.0200  0.0354 -0.4663
13069TIP3    H160698   4.223   1.292  12.063 -0.4946 -1.2253 -1.7605
13069TIP3    H260699   4.099   1.317  11.978 -2.4580  2.0350  1.7350
13070TIP3   OH260700   6.397   2.297   1.123  0.0877  0.3603 -0.0475
13070TIP3    H160701   6.484   2.303   1.084 -0.2810 -0.1070 -0.9992
13070TIP3    H260702   6.389   2.375   1.178  0.7968  0.8248 -0.5870
13071TIP3   OH260703   4.967   5.097   6.152  0.6279 -0.2596 -1.1111
13071TIP3    H160704   4.924   5.028   6.103 -0.7118  0.2514 -0.6892
13071TIP3    H260705   4.925   5.178   6.123  0.6253  0.1618  0.0046
13072TIP3   OH260706   1.572   1.146   0.454 -0.1548  0.9594 -0.1475
13072TIP3    H160707   1.610   1.196   0.526  2.4657  0.5753 -1.1464
13072TIP3    H260708   1.535   1.068   0.495  1.1443  0.8206  0.8308
13073TIP3   OH260709   1.022   4.896  15.029  0.0341  0.4823  0.4512
13073TIP3    H160710   0.942   4.912  15.081 -0.1515  0.7674  0.0856
13073TIP3    H260711   0.990   4.884  14.940  0.0892 -2.5130  0.7225
13074TIP3   OH260712   1.401   0.782  11.446  0.0323  0.2665 -0.4011
13074TIP3    H160713   1.324   0.748  11.400 -0.8986  1.0908  0.5157
13074TIP3    H260714   1.475   0.755  11.391 -0.8452 -1.0863 -0.9739
13075TIP3   OH260715   4.766   6.318  13.915  0.1690  0.2283 -0.4512
13075TIP3    H160716   4.674   6.338  13.895 -0.1043  2.3158  2.4021
13075TIP3    H260717   4.807   6.403  13.929  1.5626 -0.7654  2.1067
13076TIP3   OH260718   2.517   4.139  13.760 -0.1098 -0.6495  0.0086
13076TIP3    H160719   2.440   4.157  13.815 -0.8375 -0.5529 -1.0107
13076TIP3    H260720   2.504   4.192  13.682  1.9420  0.8115  0.5798
13077TIP3   OH260721   0.680   6.100  16.894  0.9027  0.2679  0.7113
13077TIP3    H160722   0.692   6.115  16.988 -2.0322  0.9976  1.0781
13077TIP3    H260723   0.629   6.175  16.864  1.8717  0.1077 -1.5331
13078TIP3   OH260724   4.799   3.497   2.300 -0.1851 -0.1866 -0.1326
13078TIP3    H160725   4.727   3.492   2.237  0.1830 -0.7122 -0.5245
13078TIP3    H260726   4.783   3.577   2.349 -1.1735 -0.4292 -0.0488
13079TIP3   OH260727   4.462   0.193   0.998 -0.1416 -0.3382 -0.1132
13079TIP3    H160728   4.445   0.153   0.912 -2.0565 -0.7299  0.4087
13079TIP3    H260729   4.512   0.126   1.045 -1.3045 -1.1878 -0.0524
13080TIP3   OH260730   0.692   6.407   5.209 -0.7286  0.2962  0.0633
13080TIP3    H160731   0.761   6.469   5.232 -0.0006 -0.4520 -0.0518
13080TIP3    H260732   0.735   6.322   5.211 -1.7694 -0.2328  0.4491
13081TIP3   OH260733   4.767   5.096  14.652  0.5981  0.0560  0.4509
13081TIP3    H160734   4.698   5.109  14.587  0.2382 -0.3939  0.7418
13081TIP3    H260735   4.774   5.001  14.662  0.7690  0.1190  0.9447
13082TIP3   OH260736   0.377   6.781  16.902 -0.8657  0.6863 -0.0172
13082TIP3    H160737   0.313   6.852  16.912  0.1549  1.5134  0.9701
13082TIP3    H260738   0.384   6.742  16.989 -0.7971 -0.0955 -0.3619
13083TIP3   OH260739   0.142   2.660  11.597 -0.6789  0.2389  0.4737
13083TIP3    H160740   0.080   2.593  11.627 -2.1078  1.0164 -0.6309
13083TIP3    H260741   0.087   2.728  11.558  0.9213  0.5811 -1.3187
13084TIP3   OH260742   2.119   3.130   3.174 -0.3000  0.1578  0.7717
13084TIP3    H160743   2.045   3.106   3.119 -1.4997  1.1529  1.9128
13084TIP3    H260744   2.184   3.061   3.156 -1.3372 -0.5508 -0.4904
13085TIP3   OH260745   6.612   0.609  16.307  0.5997  0.2802 -0.3611
13085TIP3    H160746   6.595   0.677  16.241  2.7261  0.0775 -1.1927
13085TIP3    H260747   6.666   0.653  16.373 -1.6287  0.5263  1.4431
13086TIP3   OH260748   5.994   1.251   5.738 -0.3076 -0.6060  0.1710
13086TIP3    H160749   5.938   1.329   5.730 -1.2096 -1.2389  0.2134
13086TIP3    H260750   6.081   1.287   5.758 -0.6589  0.4015 -0.0110
13087TIP3   OH260751   5.512   6.671   0.649 -0.3239  0.2516  0.0525
13087TIP3    H160752   5.416   6.668   0.658 -0.5306  1.6500 -1.2873
13087TIP3    H260753   5.528   6.650   0.557  0.6437  0.3969  0.1786
13088TIP3   OH260754   3.076   1.766   3.808 -0.4867 -0.1133  0.2416
13088TIP3    H160755   3.112   1.684   3.843 -2.6542 -1.7126 -0.9962
13088TIP3    H260756   3.125   1.835   3.852  0.9431 -2.0668  1.8887
13089TIP3   OH260757   1.621   2.948   4.730  0.1147  0.0967  0.5006
13089TIP3    H160758   1.617   2.964   4.824 -0.3502  0.5719  0.4051
13089TIP3    H260759   1.531   2.961   4.699  0.1806 -0.4632  0.0526
13090TIP3   OH260760   3.944   2.479   2.717 -0.3177  0.0728 -0.1536
13090TIP3    H160761   3.895   2.561   2.722 -0.8358 -0.3116  1.9924
13090TIP3    H260762   3.976   2.465   2.806  0.8774 -1.4064 -0.7721
13091TIP3   OH260763   1.483   1.535  17.069  0.4674 -0.2827 -0.4760
13091TIP3    H160764   1.525   1.522  17.154 -0.1373 -1.4593 -0.3492
13091TIP3    H260765   1.505   1.457  17.018  0.4190  0.1858 -1.2489
13092TIP3   OH260766   4.133   3.115   6.703 -0.0733  0.0379 -0.5679
13092TIP3    H160767   4.123   3.204   6.737 -0.8480 -1.0048  2.2136
13092TIP3    H260768   4.043   3.087   6.685 -0.0282 -0.8252  0.4696
13093TIP3   OH260769   2.040   3.156  16.299  0.6750 -0.2139  0.0140
13093TIP3    H160770   2.084   3.233  16.336 -0.8490 -0.0679  1.6572
13093TIP3    H260771   2.027   3.098  16.374 -0.5489 -0.9048 -0.7083
13094TIP3   OH260772   1.220   4.450   3.410  0.1514 -0.0982 -0.1912
13094TIP3    H160773   1.143   4.436   3.465  0.6772  0.1042  0.6108
13094TIP3    H260774   1.187   4.440   3.321 -1.1560  1.5201  0.0567
13095TIP3   OH260775   5.262   5.745  12.855  0.4415 -0.4512  0.0309
13095TIP3    H160776   5.286   5.686  12.784  2.2422  0.3324 -0.0719
13095TIP3    H260777   5.214   5.690  12.917  1.2205 -1.8044 -0.5274
13096TIP3   OH260778   5.035   1.009   5.878 -0.0664 -0.5847 -0.2085
13096TIP3    H160779   5.074   1.040   5.959 -1.4704  0.4007  0.1394
13096TIP3    H260780   5.083   1.053   5.808 -0.0941  0.0611  0.1777
13097TIP3   OH260781   0.170   6.661   1.360  0.3924  0.1213  0.3992
13097TIP3    H160782   0.139   6.620   1.280 -1.9197  0.1951  1.1947
13097TIP3    H260783   0.215   6.740   1.330 -2.2021  1.2564 -0.8151
13098TIP3   OH260784   5.222   4.088   0.636  0.1043  0.5471  0.4881
13098TIP3    H160785   5.218   4.081   0.732 -2.8589  2.1190  0.5937
13098TIP3    H260786   5.133   4.066   0.607  0.5953  1.3179 -1.7992
13099TIP3   OH260787   0.236   5.301  14.686 -0.2624 -0.1407  0.0436
13099TIP3    H160788   0.150   5.279  14.650  0.1096  0.2668 -1.1548
13099TIP3    H260789   0.242   5.397  14.677 -0.4755  0.0802  1.9733
13100TIP3   OH260790   5.634   2.236  11.621  0.3485  0.7058 -0.2075
13100TIP3    H160791   5.677   2.320  11.637 -0.1914  0.7126  1.3077
13100TIP3    H260792   5.552   2.241  11.670 -1.4513  0.6808 -2.9762
13101TIP3   OH260793   1.163   6.159  15.335 -0.2507 -0.2913  0.2170
13101TIP3    H160794   1.238   6.219  15.332 -1.4655  1.4609  2.3351
13101TIP3    H260795   1.202   6.072  15.324  1.8908  0.6574 -0.2440
13102TIP3   OH260796   5.467   1.486   5.458 -0.3614 -0.1123 -0.1345
13102TIP3    H160797   5.420   1.513   5.537  0.1616 -0.9330  0.4759
13102TIP3    H260798   5.429   1.402   5.436 -1.2150  0.5711 -1.3788
13103TIP3   OH260799   6.367   6.140   0.400  0.1352  0.6080 -0.2901
13103TIP3    H160800   6.306   6.138   0.326  1.0308  0.4326 -1.0418
13103TIP3    H260801   6.433   6.074   0.379  1.7579  2.2260 -0.5394
13104TIP3   OH260802   0.943   6.345   4.165  0.5205  0.1396 -0.3597
13104TIP3    H160803   0.979   6.258   4.147 -0.3547 -0.4421  0.5913
13104TIP3    H260804   0.927   6.345   4.259  0.9989  1.5339 -0.2603
13105TIP3   OH260805   2.218   4.484  16.426  0.4169  0.2570  0.2039
13105TIP3    H160806   2.215   4.494  16.521 -0.9974 -0.6012  0.2764
13105TIP3    H260807   2.252   4.568  16.394  2.1577  0.1049  1.5125
13106TIP3   OH260808   3.867   1.605  12.883 -0.6129  0.1549 -0.1178
13106TIP3    H160809   3.822   1.660  12.948 -1.0353  2.1992 -1.9851
13106TIP3    H260810   3.873   1.519  12.923  0.3203  1.5883  3.1398
13107TIP3   OH260811   6.639   0.015   2.886  0.0609 -0.0253  0.2401
13107TIP3    H160812   6.628  -0.052   2.818 -0.1292  0.5383 -0.3014
13107TIP3    H260813   6.693  -0.027   2.953  1.8217 -0.0270 -1.0915
13108TIP3   OH260814   1.740   1.376  16.620 -0.3176 -0.8425 -0.1786
13108TIP3    H160815   1.811   1.420  16.574 -0.0056 -1.1454  0.0112
13108TIP3    H260816   1.779   1.295  16.654 -0.8188 -1.1525 -0.3178
13109TIP3   OH260817   1.600   2.433   2.866  0.8034  0.0836  0.1128
13109TIP3    H160818   1.555   2.349   2.867  0.1413  0.4213 -0.4445
13109TIP3    H260819   1.693   2.410   2.857  0.6395 -0.5913  0.0928
13110TIP3   OH260820   5.616   6.566  11.913 -0.6382  0.0944 -0.2303
13110TIP3    H160821   5.561   6.623  11.859  1.4755  1.1864 -1.3304
13110TIP3    H260822   5.705   6.581  11.882  0.5826 -0.0683  2.8235
13111TIP3   OH260823   2.566   6.052   5.032 -0.2133  0.2529 -0.4210
13111TIP3    H160824   2.517   6.084   4.957 -0.3824  0.0050 -0.4183
13111TIP3    H260825   2.635   5.998   4.995 -0.0939  0.3999 -0.4131
13112TIP3   OH260826   1.153   2.273   2.239 -0.2325 -0.8022  0.1108
13112TIP3    H160827   1.078   2.253   2.296 -0.0417 -2.4518 -0.1647
13112TIP3    H260828   1.222   2.300   2.299 -0.6532 -0.5284  0.4803
13113TIP3   OH260829   3.811   6.549  14.315 -0.2472 -0.2581  0.0055
13113TIP3    H160830   3.819   6.625  14.258  0.7379 -0.6247 -0.3612
13113TIP3    H260831   3.852   6.477  14.266 -1.7101 -1.1923  0.0686
13114TIP3   OH260832   2.913   5.645   6.513 -0.0988 -0.1659  0.1775
13114TIP3    H160833   2.945   5.610   6.430  1.1578  2.4910 -0.5826
13114TIP3    H260834   2.843   5.585   6.540 -0.2085 -1.3852 -2.5239
13115TIP3   OH260835   1.488   0.685  15.786 -0.0184  0.0596 -0.1060
13115TIP3    H160836   1.445   0.671  15.871 -0.7415  2.9942  0.1377
13115TIP3    H260837   1.417   0.704  15.726  0.6421  0.3491 -0.8142
13116TIP3   OH260838   1.787   1.192  12.177  0.4734 -0.0003 -0.1596
13116TIP3    H160839   1.717   1.186  12.242  0.2914  0.3572 -0.3175
13116TIP3    H260840   1.859   1.140  12.213  0.5929  0.6790  0.6200
13117TIP3   OH260841   0.506   4.923   4.597  0.3543 -0.1718 -0.2546
13117TIP3    H160842   0.557   4.999   4.626 -0.9103  0.2288  1.0680
13117TIP3    H260843   0.423   4.960   4.567  0.2787 -0.9219 -0.9971
13118TIP3   OH260844   0.895   1.958  15.202  0.1416 -0.7483 -0.2213
13118TIP3    H160845   0.951   1.892  15.243  3.7657  2.3351  0.4359
13118TIP3    H260846   0.885   2.025  15.270  0.8646  1.5599 -2.2312
13119TIP3   OH260847   6.460   5.113   6.069 -0.0563  0.0794 -0.5284
13119TIP3    H160848   6.496   5.033   6.030  0.6817  0.3356 -0.3884
13119TIP3    H260849   6.521   5.182   6.043 -0.4860  0.5410 -0.3379
13120TIP3   OH260850   4.171   4.627  12.785  0.3630 -0.1456 -0.2734
13120TIP3    H160851   4.133   4.685  12.852  0.0553 -0.7702  0.0969
13120TIP3    H260852   4.243   4.583  12.829  2.0566  1.5556 -1.1630
13121TIP3   OH260853   3.115   5.389  11.628  0.5275  0.3331  0.2341
13121TIP3    H160854   3.158   5.305  11.644 -0.2198  0.2261  1.8777
13121TIP3    H260855   3.071   5.378  11.543  0.8123 -0.7629  0.2151
13122TIP3   OH260856   1.298   2.885   0.022 -0.1654 -0.0356 -0.3662
13122TIP3    H160857   1.339   2.971   0.013  0.0647 -0.2758 -1.9302
13122TIP3    H260858   1.356   2.836   0.080 -0.0771  0.7205  0.1975
13123TIP3   OH260859   5.068   2.858  15.614 -0.0394  0.0311  0.0356
13123TIP3    H160860   5.116   2.812  15.545 -1.9217 -0.2722 -1.1517
13123TIP3    H260861   5.133   2.874  15.682  1.5252 -1.0810 -1.1221
13124TIP3   OH260862   3.744   3.685  13.404 -0.6074 -0.3793  0.6702
13124TIP3    H160863   3.748   3.703  13.498  1.1145 -0.4316  0.6469
13124TIP3    H260864   3.721   3.593  13.398 -1.1987 -0.2597  1.0220
13125TIP3   OH260865   2.278   2.694  15.194  0.1133  0.1702  0.4496
13125TIP3    H160866   2.268   2.602  15.218  0.1625 -0.0180 -0.2154
13125TIP3    H260867   2.373   2.708  15.193  0.0966  0.3015  0.8230
13126TIP3   OH260868   5.421   4.481  13.283  0.5300 -0.4217 -0.1375
13126TIP3    H160869   5.439   4.392  13.255 -0.9356 -0.7965 -0.0037
13126TIP3    H260870   5.464   4.489  13.369  1.4083 -0.6917 -0.5476
13127TIP3   OH260871   2.693   2.109   1.887  0.6375  0.6895  0.4470
13127TIP3    H160872   2.668   2.080   1.975 -1.1768  0.3277 -0.1464
13127TIP3    H260873   2.787   2.125   1.893  1.0607 -1.7603  1.7951
13128TIP3   OH260874   0.193   3.829   5.077 -0.0050  0.0173 -0.0263
13128TIP3    H160875   0.219   3.870   4.994 -0.1586 -1.0379 -0.6212
13128TIP3    H260876   0.099   3.817   5.069 -0.0675  0.1894  0.4389
13129TIP3   OH260877   3.943   4.543  15.264 -0.1150 -0.2652  0.3061
13129TIP3    H160878   3.946   4.469  15.203  1.4310 -0.2618  0.3159
13129TIP3    H260879   3.955   4.620  15.209  0.9571 -0.2391  0.5416
13130TIP3   OH260880   4.658   1.255   2.306 -0.5613 -0.4744  0.1591
13130TIP3    H160881   4.699   1.181   2.351  2.0554  1.1525  0.6272
13130TIP3    H260882   4.671   1.237   2.213  0.6265 -0.3329  0.2868
13131TIP3   OH260883   0.179   0.221   5.275 -0.0570 -0.1101  0.5192
13131TIP3    H160884   0.190   0.313   5.253 -0.8460  0.1648  1.2289
13131TIP3    H260885   0.108   0.191   5.219 -0.9454  0.1626  1.4735
13132TIP3   OH260886   1.787   4.045   5.078 -0.2096 -0.1879  0.2507
13132TIP3    H160887   1.737   3.998   5.011  0.7110 -0.7789 -0.0390
13132TIP3    H260888   1.725   4.056   5.150 -0.8055 -0.7712 -0.1596
13133TIP3   OH260889   4.561   5.305  16.318  0.0646  0.1263  0.1904
13133TIP3    H160890   4.515   5.297  16.401 -0.0435  0.9782  0.2213
13133TIP3    H260891   4.637   5.247  16.327 -0.7846 -1.0148  0.2728
13134TIP3   OH260892   2.006   5.206   6.147  1.2780  0.2440  0.4173
13134TIP3    H160893   2.100   5.220   6.130  1.3958  0.1721  1.0090
13134TIP3    H260894   2.004   5.146   6.221  0.7587  0.0293  0.2336
13135TIP3   OH260895   4.957   0.496  14.077 -0.0429  0.7920  0.4218
13135TIP3    H160896   4.964   0.465  13.986  0.7508 -0.7077  0.9412
13135TIP3    H260897   4.962   0.591  14.070 -0.7187  0.7562 -1.1562
13136TIP3   OH260898   0.644   6.277   5.767 -0.0074 -0.5118  0.0397
13136TIP3    H160899   0.689   6.321   5.695 -0.6205 -2.0510 -1.3759
13136TIP3    H260900   0.657   6.183   5.749  0.0411 -0.9344  2.1036
13137TIP3   OH260901   3.882   1.777   1.488 -0.4677  0.6009  0.0126
13137TIP3    H160902   3.820   1.833   1.534 -0.2647  1.6427 -0.9392
13137TIP3    H260903   3.912   1.830   1.414  0.9625 -0.1652  0.0024
13138TIP3   OH260904   3.047   4.446   5.967  0.0216 -0.0891  0.4485
13138TIP3    H160905   3.028   4.355   5.990 -0.3710  0.2908  1.7004
13138TIP3    H260906   3.024   4.496   6.046  1.9256  0.9115  0.4225
13139TIP3   OH260907   2.931   2.056   3.492  0.7243  0.0551  0.1748
13139TIP3    H160908   2.846   2.077   3.455  0.6124 -1.6489 -0.6554
13139TIP3    H260909   2.913   1.993   3.561  1.3529 -1.2785 -0.8206
13140TIP3   OH260910   6.428   3.211  16.230 -0.9029  0.6268  0.3383
13140TIP3    H160911   6.475   3.128  16.240 -0.2727  1.1254  1.8403
13140TIP3    H260912   6.355   3.204  16.291 -1.8975  0.4866 -0.8397
13141TIP3   OH260913   6.554   1.709   0.991 -0.2540 -0.3485  0.4154
13141TIP3    H160914   6.613   1.771   0.948 -0.4345  0.2199  0.9646
13141TIP3    H260915   6.586   1.705   1.081 -0.6599 -0.5372  0.5512
13142TIP3   OH260916   6.195   2.508   4.725 -0.0556 -0.5935 -0.2678
13142TIP3    H160917   6.157   2.563   4.657  2.3440  1.3886 -0.1644
13142TIP3    H260918   6.288   2.502   4.701  0.5297 -1.2707  1.9292
13143TIP3   OH260919   5.240   2.991  16.574  0.6317 -0.0708 -0.2223
13143TIP3    H160920   5.236   3.072  16.624 -0.4146 -0.2474  0.0042
13143TIP3    H260921   5.206   2.924  16.634 -0.4337 -0.3238 -1.0882
13144TIP3   OH260922   1.151   0.666   4.890  0.8831 -0.7939  0.4450
13144TIP3    H160923   1.132   0.634   4.801  0.6239 -0.1856  0.2800
13144TIP3    H260924   1.076   0.637   4.942 -0.4516  1.3973 -0.1561
13145TIP3   OH260925   6.089   1.133  14.103 -0.3431  0.0631  0.3602
13145TIP3    H160926   6.066   1.071  14.173 -0.4233  0.4221  0.6501
13145TIP3    H260927   6.045   1.214  14.127 -1.4281 -0.1597 -0.7666
13146TIP3   OH260928   4.929   6.811  12.779  0.0106  0.4263  0.1367
13146TIP3    H160929   4.978   6.736  12.743  3.6376  2.4157  0.4801
13146TIP3    H260930   4.914   6.868  12.704 -1.3993  0.0738  0.1333
13147TIP3   OH260931   3.573   2.889   3.435 -0.0782 -0.3285 -0.5907
13147TIP3    H160932   3.563   2.862   3.526  2.2895 -0.5612 -0.3324
13147TIP3    H260933   3.610   2.977   3.440  1.2277 -0.8175 -1.2871
13148TIP3   OH260934   3.565   0.025  10.753  0.0723  0.2050  0.2750
13148TIP3    H160935   3.647  -0.021  10.769 -0.6288 -1.1672  0.0616
13148TIP3    H260936   3.497  -0.034  10.786 -0.9922  0.0940 -1.9319
13149TIP3   OH260937   2.430   5.419  12.556 -0.0501  0.4783  0.1780
13149TIP3    H160938   2.386   5.405  12.472  0.1482 -0.1830  0.1717
13149TIP3    H260939   2.454   5.511  12.556  0.8464  0.2760 -0.9419
13150TIP3   OH260940   3.613   0.572  12.928  0.2447  0.0817  0.6617
13150TIP3    H160941   3.680   0.579  12.860  2.3766  3.9738  2.8395
13150TIP3    H260942   3.536   0.615  12.891 -0.1824 -1.7585 -0.7526
13151TIP3   OH260943   6.124   6.387  12.226 -0.2212  0.3406  0.3749
13151TIP3    H160944   6.044   6.415  12.271 -0.2673 -1.0662  1.2431
13151TIP3    H260945   6.108   6.295  12.204  0.5671  0.4789 -0.8177
13152TIP3   OH260946   0.010   4.629  12.582  0.4349 -0.2271  0.3517
13152TIP3    H160947   0.104   4.640  12.596  0.8300 -1.3010 -1.1324
13152TIP3    H260948  -0.010   4.544  12.621  0.5978 -1.0844 -1.3557
13153TIP3   OH260949   3.195   5.201   1.630  0.2975 -0.3256  0.0600
13153TIP3    H160950   3.286   5.172   1.630  0.3615 -0.1791  1.5328
13153TIP3    H260951   3.198   5.287   1.672 -0.6191 -0.6471  0.7905
13154TIP3   OH260952   0.613   4.915   0.016 -0.7951 -0.2988  0.2946
13154TIP3    H160953   0.554   4.852  -0.025 -0.4954 -0.8282  0.6757
13154TIP3    H260954   0.681   4.862   0.057 -0.5693  0.2680  0.6676
13155TIP3   OH260955   5.824   6.383   0.951 -0.2292 -0.0076 -0.3654
13155TIP3    H160956   5.912   6.409   0.927 -1.1718  3.2041 -0.7481
13155TIP3    H260957   5.770   6.406   0.875 -1.6105 -0.5658  0.3970
13156TIP3   OH260958   5.923   2.176  14.875  0.7280 -0.0541 -0.2579
13156TIP3    H160959   5.942   2.153  14.785  2.1790 -1.0687  0.2791
13156TIP3    H260960   5.984   2.247  14.896 -0.2724  0.8576 -0.3552
13157TIP3   OH260961   6.357   3.194   2.657 -0.0078  0.2783  0.5734
13157TIP3    H160962   6.448   3.170   2.638  0.4312  1.7786  0.6532
13157TIP3    H260963   6.305   3.136   2.602  1.0583  0.7586 -1.0194
13158TIP3   OH260964   1.180   3.250  13.458 -0.4713 -0.3836  0.2369
13158TIP3    H160965   1.206   3.313  13.391  0.5404 -1.2921 -0.2588
13158TIP3    H260966   1.121   3.190  13.414 -0.8993 -0.1810  0.5288
13159TIP3   OH260967   1.456   5.899  11.251 -0.2675 -0.3548 -0.3252
13159TIP3    H160968   1.417   5.852  11.177  0.9213  0.0200 -1.2165
13159TIP3    H260969   1.383   5.951  11.287 -1.1062 -1.3335 -0.5650
13160TIP3   OH260970   0.271   1.394   1.598  0.1003  0.6828  0.3094
13160TIP3    H160971   0.270   1.401   1.693  1.5638 -2.4033  0.6724
13160TIP3    H260972   0.347   1.446   1.571  1.4116 -0.7155  1.1666
13161TIP3   OH260973   6.429   4.429   3.065  0.0123 -0.0833 -0.6654
13161TIP3    H160974   6.354   4.382   3.030 -1.9175  2.1597  0.1916
13161TIP3    H260975   6.447   4.387   3.149  0.3239 -1.1965 -1.2727
13162TIP3   OH260976   5.426   4.684   6.000 -0.3404  0.3187  0.1461
13162TIP3    H160977   5.340   4.694   5.959 -0.4503 -1.4891 -0.1603
13162TIP3    H260978   5.418   4.730   6.083 -0.7324  2.4095 -0.9805
13163TIP3   OH260979   4.510   5.473   2.070  0.0217 -0.0649 -0.3902
13163TIP3    H160980   4.482   5.390   2.108 -0.3613  0.2676  0.0665
13163TIP3    H260981   4.431   5.510   2.031 -0.4453  1.2894  1.6672
13164TIP3   OH260982   1.388   5.287  12.149 -0.2865 -0.1155  0.0593
13164TIP3    H160983   1.459   5.344  12.121 -0.3003 -0.5259 -0.8494
13164TIP3    H260984   1.416   5.199  12.122 -1.1177 -0.2832 -0.2836
13165TIP3   OH260985   3.940   3.989  15.464  0.1117  0.2669 -0.0326
13165TIP3    H160986   3.860   3.940  15.443  0.3511 -0.2451  0.2212
13165TIP3    H260987   3.929   4.014  15.555  1.2265 -1.7986  0.7291
13166TIP3   OH260988   4.089   4.830  11.052 -0.0135 -0.1599 -0.2116
13166TIP3    H160989   4.137   4.794  10.978 -2.6472 -2.6209 -0.9058
13166TIP3    H260990   4.112   4.773  11.126 -0.0347  0.1483  0.0370
13167TIP3   OH260991   0.953   6.646   6.548 -0.6119 -0.2146  0.1998
13167TIP3    H160992   0.902   6.565   6.543  0.1052 -0.6899  0.4476
13167TIP3    H260993   1.025   6.625   6.607  0.6730  0.0005 -1.2211
13168TIP3   OH260994   3.115   1.594   3.507 -0.4337 -0.0502  0.3742
13168TIP3    H160995   3.032   1.547   3.515 -0.8742  0.4100 -1.1804
13168TIP3    H260996   3.182   1.527   3.519 -1.0420 -1.1716 -2.0365
13169TIP3   OH260997   2.855   2.069  12.945 -0.2101 -0.3291  0.7926
13169TIP3    H160998   2.931   2.108  12.902 -0.7855 -0.4340 -0.3762
13169TIP3    H260999   2.823   2.004  12.882 -0.7948 -0.8386  1.6047
13170TIP3   OH261000   5.589   1.889   1.814 -0.0954  0.2173  0.0539
13170TIP3    H161001   5.659   1.853   1.759  0.4595 -1.3140  1.6754
13170TIP3    H261002   5.613   1.862   1.903 -1.2520  2.1311  1.0052
13171TIP3   OH261003   6.349   0.150   5.825 -0.5127  0.7836 -0.3344
13171TIP3    H161004   6.332   0.069   5.873 -0.6102  0.9872 -0.0187
13171TIP3    H261005   6.420   0.128   5.765  0.3924  0.8019  0.6860
13172TIP3   OH261006   2.805   3.947  12.395  0.0995  0.2535  0.1038
13172TIP3    H161007   2.773   3.987  12.314 -0.2721 -1.4534 -0.6421
13172TIP3    H261008   2.739   3.968  12.461  1.0561  2.7984  0.3460
13173TIP3   OH261009   0.362   2.515   3.266 -0.1499  0.2592 -0.4815
13173TIP3    H161010   0.360   2.542   3.174 -0.4360  0.3746 -0.4413
13173TIP3    H261011   0.369   2.596   3.315  2.8775  0.1192 -0.4710
13174TIP3   OH261012   1.817   1.570   2.481 -0.1955  0.2781 -0.6562
13174TIP3    H161013   1.772   1.556   2.564  0.0141  1.1141 -0.3976
13174TIP3    H261014   1.897   1.518   2.488 -1.0418 -1.1444 -1.0820
13175TIP3   OH261015   0.386   5.931  15.255  0.0765 -0.2964 -0.3295
13175TIP3    H161016   0.299   5.946  15.220  0.1089 -0.6353 -0.5612
13175TIP3    H261017   0.383   5.841  15.289  0.4871 -0.4990 -0.8117
13176TIP3   OH261018   1.453   0.426  10.947 -0.3570  0.1771 -0.8337
13176TIP3    H161019   1.455   0.336  10.977  0.9854  0.7523  0.9417
13176TIP3    H261020   1.534   0.437  10.897  0.0193  0.6965 -0.1153
13177TIP3   OH261021   1.360   1.326   2.615 -0.4433 -0.5491 -0.2674
13177TIP3    H161022   1.277   1.361   2.583 -0.2191  2.1030  1.6661
13177TIP3    H261023   1.342   1.302   2.706  0.7849 -0.3081  0.0603
13178TIP3   OH261024   2.444   6.809   3.638  0.0462 -0.5882 -0.5394
13178TIP3    H161025   2.349   6.798   3.638  0.0653 -0.8145 -1.8247
13178TIP3    H261026   2.479   6.725   3.610  0.6446 -0.5296 -0.0218
13179TIP3   OH261027   1.234   2.713   3.869  0.2507 -0.2449 -0.4002
13179TIP3    H161028   1.206   2.719   3.778 -1.0780 -0.0980 -0.0050
13179TIP3    H261029   1.156   2.685   3.916  0.9793 -0.5480  0.6664
13180TIP3   OH261030   4.835   0.879  13.292 -0.1157 -0.2268  0.1673
13180TIP3    H161031   4.891   0.824  13.346 -1.1564 -0.0974  1.4337
13180TIP3    H261032   4.889   0.956  13.271  1.5172 -1.8322 -2.0216
13181TIP3   OH261033   1.331   0.940  12.635 -0.0930 -0.0043 -0.4367
13181TIP3    H161034   1.347   0.871  12.699 -1.2213 -0.5071 -0.6570
13181TIP3    H261035   1.313   0.893  12.553 -1.0011  0.5274 -0.5612
13182TIP3   OH261036   6.066   2.829   5.518 -0.2845 -0.4985  0.1254
13182TIP3    H161037   6.072   2.800   5.427  1.5659 -0.3828  0.1726
13182TIP3    H261038   6.150   2.804   5.557  0.2712  2.2665  0.9526
13183TIP3   OH261039   0.527   4.012   5.305  0.0273 -0.1748  0.2252
13183TIP3    H161040   0.526   3.970   5.219  2.1209 -0.1398  0.1446
13183TIP3    H261041   0.471   4.089   5.294  0.6037  0.0686 -1.2533
13184TIP3   OH261042   2.652   3.664   5.161  0.4835  0.2032 -0.7400
13184TIP3    H161043   2.724   3.631   5.107  1.3892  1.1320 -0.1205
13184TIP3    H261044   2.689   3.673   5.248 -1.0974 -1.7821  0.2296
13185TIP3   OH261045   3.594   3.772  12.602  0.5473 -0.5225 -0.2425
13185TIP3    H161046   3.689   3.771  12.614  0.7760 -0.9295 -1.8682
13185TIP3    H261047   3.565   3.684  12.628  0.7356 -0.6962 -0.6249
13186TIP3   OH261048   4.244   5.560   1.963  0.0193  0.1394 -0.3646
13186TIP3    H161049   4.162   5.595   1.927 -0.2888  0.3019  0.4608
13186TIP3    H261050   4.216   5.500   2.032  0.4978 -2.7427 -2.5021
13187TIP3   OH261051   4.791   0.136   2.637  0.3510  0.4012 -0.7920
13187TIP3    H161052   4.851   0.073   2.677  0.9220  0.4940 -1.4839
13187TIP3    H261053   4.740   0.171   2.711  0.6601 -0.1927 -0.2886
13188TIP3   OH261054   0.004   0.602  11.355  0.4415 -0.1450  0.8502
13188TIP3    H161055  -0.024   0.582  11.444  0.5426  0.2983  0.9866
13188TIP3    H261056   0.097   0.582  11.355  0.0484 -2.1651  0.2349
13189TIP3   OH261057   2.719   5.681  12.492 -0.3369  0.0139  0.4229
13189TIP3    H161058   2.696   5.719  12.407  1.3116  0.2631  0.0497
13189TIP3    H261059   2.680   5.741  12.556 -0.0322  0.8616 -0.1620
13190TIP3   OH261060   0.176   0.528  12.511  0.3287  0.0805 -0.1010
13190TIP3    H161061   0.118   0.552  12.438  0.4868  0.0736 -0.2289
13190TIP3    H261062   0.208   0.441  12.488 -0.2477 -0.2654  0.3671
13191TIP3   OH261063   4.986   2.321  14.171  0.3019  0.2915 -0.6207
13191TIP3    H161064   4.931   2.325  14.250 -0.0348 -0.5698 -0.8019
13191TIP3    H261065   5.047   2.249  14.187  0.4182  0.2949 -1.0271
13192TIP3   OH261066   1.689   3.432  11.202  0.4068  0.0121 -0.5707
13192TIP3    H161067   1.724   3.350  11.169 -0.7965 -0.8940  0.3228
13192TIP3    H261068   1.615   3.452  11.143 -1.3784 -1.3061  1.1033
13193TIP3   OH261069   0.955   0.531  13.125 -0.7983 -0.1332  0.3492
13193TIP3    H161070   0.941   0.471  13.198 -1.3693  0.0453  0.3873
13193TIP3    H261071   0.910   0.490  13.051 -0.8174  0.0357  0.2665
13194TIP3   OH261072   5.076   0.440  15.842 -0.1596  0.1331 -0.4265
13194TIP3    H161073   4.991   0.405  15.870  1.0793 -1.8307  1.2239
13194TIP3    H261074   5.083   0.525  15.885 -1.4301  0.4888 -0.8920
13195TIP3   OH261075   3.332   4.965   4.584 -0.4475 -0.2290 -0.2570
13195TIP3    H161076   3.393   5.013   4.527  0.1774 -0.8614 -0.1418
13195TIP3    H261077   3.267   5.030   4.610  0.8887  0.8086  0.6595
13196TIP3   OH261078   0.673   2.015   6.274  0.0135  0.3464 -0.0071
13196TIP3    H161079   0.642   2.080   6.337  0.5954  0.5317  0.0915
13196TIP3    H261080   0.686   2.064   6.193 -0.3788  0.1805 -0.1726
13197TIP3   OH261081   3.896   3.893   5.410 -0.2754  0.0269  0.6945
13197TIP3    H161082   3.821   3.942   5.379 -0.0010  0.4431  0.6772
13197TIP3    H261083   3.868   3.856   5.494 -0.0566  1.2917  1.3357
13198TIP3   OH261084   5.545   3.972   1.196 -0.3025  0.2175 -0.4919
13198TIP3    H161085   5.609   3.987   1.265  0.5003 -1.9844 -0.6824
13198TIP3    H261086   5.482   4.045   1.204  1.8835  2.1563  0.0385
13199TIP3   OH261087   0.584   2.619   0.394  0.1088 -0.0092  0.7902
13199TIP3    H161088   0.504   2.576   0.426  1.3705 -2.8895  0.3626
13199TIP3    H261089   0.654   2.584   0.449  1.8797 -2.4324 -2.6310
13200TIP3   OH261090   5.979   1.352  10.504  0.1772  0.0321 -0.0022
13200TIP3    H161091   6.013   1.304  10.580  2.0541  0.0563 -0.7801
13200TIP3    H261092   5.884   1.354  10.518  0.3088 -1.4656  1.4597
13201TIP3   OH261093   4.338   3.166   1.019  0.6352  0.1476  0.4902
13201TIP3    H161094   4.386   3.100   1.070  0.6784 -0.0515  0.1903
13201TIP3    H261095   4.255   3.176   1.065  1.4885  1.5348  1.8631
13202TIP3   OH261096   0.057   2.705   1.848 -0.2717  0.3279  0.1115
13202TIP3    H161097   0.135   2.757   1.866 -0.1680  0.0339  0.5272
13202TIP3    H261098   0.008   2.706   1.931 -1.3217  1.5302 -0.4866
13203TIP3   OH261099   4.015   2.178  13.018  0.1767 -0.4690  0.6466
13203TIP3    H161100   3.953   2.131  13.073 -0.4832 -0.8319 -0.3811
13203TIP3    H261101   4.090   2.118  13.009  0.1375 -0.5497  0.8531
13204TIP3   OH261102   3.825   4.820   1.047 -0.3076 -0.3400 -0.1846
13204TIP3    H161103   3.756   4.832   1.112 -0.1605 -0.0983 -0.0718
13204TIP3    H261104   3.907   4.826   1.097 -0.2051 -0.6665 -0.3106
13205TIP3   OH261105   0.032   2.622  16.430  0.5497 -0.2937  0.2198
13205TIP3    H161106   0.106   2.596  16.376 -0.9189 -1.8555 -1.1291
13205TIP3    H261107   0.015   2.713  16.406  0.3870 -0.7401 -1.4515
13206TIP3   OH261108   5.146   0.574  13.790  0.5741 -0.5959 -0.1130
13206TIP3    H161109   5.145   0.530  13.705  2.3644 -0.6776 -0.1163
13206TIP3    H261110   5.235   0.563  13.822  0.7971  2.1183  0.3966
13207TIP3   OH261111   3.421   5.121   6.087  0.0056 -0.1333 -0.4548
13207TIP3    H161112   3.425   5.145   6.179 -1.8184 -0.1423 -0.3323
13207TIP3    H261113   3.366   5.042   6.085  1.3984 -1.1361 -1.3962
13208TIP3   OH261114   2.751   2.533   1.337 -0.1924  0.6014 -0.0332
13208TIP3    H161115   2.665   2.498   1.314 -0.2018  0.5987  0.0062
13208TIP3    H261116   2.810   2.494   1.273 -0.3269  1.1414 -0.4894
13209TIP3   OH261117   6.813   1.427  17.130  0.0020  0.2076 -0.1250
13209TIP3    H161118   6.891   1.476  17.155 -0.8110  1.0947  0.7084
13209TIP3    H261119   6.786   1.381  17.210 -0.2593 -0.2111 -0.4442
13210TIP3   OH261120   2.557   3.184   4.398 -0.3953 -0.2067  0.4265
13210TIP3    H161121   2.559   3.204   4.492  0.5918  0.1651  0.3439
13210TIP3    H261122   2.510   3.258   4.359 -2.4975 -1.2690  0.7993
13211TIP3   OH261123   1.255   0.730  14.190 -0.1592  0.1330  0.5063
13211TIP3    H161124   1.264   0.755  14.282  0.0695  1.7204  0.0824
13211TIP3    H261125   1.345   0.724  14.158 -0.2271 -0.7797  0.4636
13212TIP3   OH261126   1.152   5.310   2.098  0.1056 -0.0733  0.0546
13212TIP3    H161127   1.191   5.352   2.174  0.2289  0.4441 -0.2874
13212TIP3    H261128   1.090   5.246   2.134 -0.9561  1.2148  0.5854
13213TIP3   OH261129   4.751   3.409  15.430 -0.2650  0.3301  0.0403
13213TIP3    H161130   4.823   3.422  15.492 -1.6601  1.4931  1.5086
13213TIP3    H261131   4.765   3.477  15.363 -0.7099  1.4518  1.0486
13214TIP3   OH261132   3.038   6.394  14.083 -0.3007 -0.3133  0.2691
13214TIP3    H161133   3.031   6.433  14.170 -2.2270  0.5997 -0.2265
13214TIP3    H261134   3.019   6.301  14.096  0.0512 -0.3036  0.8942
13215TIP3   OH261135   0.675   6.807   2.401  0.1294 -0.1464 -0.0780
13215TIP3    H161136   0.683   6.861   2.480  0.0198 -0.4161  0.1168
13215TIP3    H261137   0.760   6.814   2.358  0.9245 -1.7251  1.1603
13216TIP3   OH261138   0.166   0.369  12.098  0.2397  0.2288 -0.0194
13216TIP3    H161139   0.143   0.394  12.009 -0.0004  1.6227  0.4005
13216TIP3    H261140   0.256   0.401  12.109  1.2575 -2.2496 -0.5755
13217TIP3   OH261141   2.068   1.901  13.709  0.3914 -0.8240 -0.8833
13217TIP3    H161142   2.111   1.937  13.631  1.5458 -3.0817 -1.3819
13217TIP3    H261143   2.092   1.808  13.709 -0.1324 -1.0436  1.8213
13218TIP3   OH261144   4.663   2.137  10.759 -0.1692  0.1110  0.2303
13218TIP3    H161145   4.707   2.210  10.804  1.7341  0.2284 -1.6696
13218TIP3    H261146   4.732   2.072  10.748 -1.0133 -0.5914 -1.0315
13219TIP3   OH261147   5.714   1.545   0.519  0.0676  0.4009 -0.6036
13219TIP3    H161148   5.662   1.507   0.590 -0.9511 -2.3292 -2.6443
13219TIP3    H261149   5.787   1.485   0.507  0.5400  1.1148 -1.4901
13220TIP3   OH261150   3.107   1.096  16.418  0.4726  0.3014  0.1747
13220TIP3    H161151   3.104   1.104  16.514 -0.1901 -0.3307  0.2161
13220TIP3    H261152   3.136   1.006  16.403 -1.9143 -0.4871 -0.1760
13221TIP3   OH261153   3.430   5.213   4.433  0.3661  0.1061 -0.5077
13221TIP3    H161154   3.461   5.262   4.509  1.2757  1.1989 -1.5419
13221TIP3    H261155   3.499   5.225   4.367 -0.9974  0.2969 -1.9588
13222TIP3   OH261156   5.882   5.616  14.218 -0.4953  0.5420  0.4543
13222TIP3    H161157   5.845   5.540  14.263 -0.1317  0.4631  0.6241
13222TIP3    H261158   5.821   5.687  14.237  1.5099  1.5284  4.4512
13223TIP3   OH261159   6.045   4.167  15.499  0.1742  0.7619 -0.3930
13223TIP3    H161160   6.043   4.090  15.442  1.5872  1.1319 -0.9994
13223TIP3    H261161   6.054   4.241  15.438  0.1029  1.3038  0.2394
13224TIP3   OH261162   0.727   3.166   2.328 -0.4413  0.3000 -0.0976
13224TIP3    H161163   0.780   3.224   2.274 -1.3141  0.7725 -0.4646
13224TIP3    H261164   0.638   3.176   2.294 -0.9775  0.4643  1.2841
13225TIP3   OH261165   2.827   3.720   5.388 -0.1319 -0.1717 -0.3841
13225TIP3    H161166   2.827   3.815   5.377 -0.2373 -0.2626 -1.2902
13225TIP3    H261167   2.872   3.705   5.471  1.5113  0.5807 -1.0961
13226TIP3   OH261168   3.686   1.705  16.320  0.3323  0.6109 -0.0799
13226TIP3    H161169   3.744   1.748  16.383  0.7277  0.1795 -0.1408
13226TIP3    H261170   3.671   1.618  16.358 -0.1913  0.6805 -0.1211
13227TIP3   OH261171   2.042   6.319  15.424 -0.2561  0.0433  0.1544
13227TIP3    H161172   2.125   6.353  15.456  0.2297 -1.7686  0.9767
13227TIP3    H261173   2.066   6.250  15.362 -1.1399 -0.1997  0.0594
13228TIP3   OH261174   2.143   1.660   0.312  0.2851 -0.4538  0.2156
13228TIP3    H161175   2.229   1.631   0.283  0.5882 -0.1856  0.8372
13228TIP3    H261176   2.145   1.755   0.302  0.0041 -0.4599  0.0822
13229TIP3   OH261177   6.291   3.364  11.031  0.2045  0.2736  0.0584
13229TIP3    H161178   6.217   3.384  11.088 -0.2601 -0.1011 -0.4109
13229TIP3    H261179   6.366   3.405  11.074  0.4013 -2.3162  2.4504
13230TIP3   OH261180   6.638   0.403   5.059 -1.0065 -0.2775  0.0998
13230TIP3    H161181   6.705   0.467   5.084 -0.3495 -0.4682 -1.1129
13230TIP3    H261182   6.561   0.456   5.040 -1.2651 -0.0632  1.6357
13231TIP3   OH261183   2.227   6.358  15.746  0.2411  0.4532  0.3621
13231TIP3    H161184   2.207   6.446  15.712  1.1048 -0.0254 -1.5197
13231TIP3    H261185   2.321   6.360  15.763  0.2083 -0.0217  0.5903
13232TIP3   OH261186   4.150   1.357  10.630 -0.4829 -0.1277 -0.3247
13232TIP3    H161187   4.082   1.304  10.670 -0.4979 -1.7690 -2.3556
13232TIP3    H261188   4.131   1.353  10.536  1.9470  0.0295 -0.8822
13233TIP3   OH261189   1.320   5.064  13.948  0.1343 -0.0369  0.5198
13233TIP3    H161190   1.359   5.143  13.910  1.2745  0.8823  3.3015
13233TIP3    H261191   1.250   5.097  14.005 -0.2243 -1.1477  0.7513
13234TIP3   OH261192   3.890   2.298   4.008  0.8138  0.1056 -0.2453
13234TIP3    H161193   3.928   2.386   4.012  1.1690  0.2158 -3.3520
13234TIP3    H261194   3.798   2.310   4.032  1.0861  1.1441  0.3278
13235TIP3   OH261195   4.854   2.967   6.064  0.0308 -0.4659  0.3320
13235TIP3    H161196   4.763   2.945   6.044 -0.3063  1.0078  0.0975
13235TIP3    H261197   4.872   3.043   6.008  1.8414 -1.5484 -0.6296
13236TIP3   OH261198   6.346   2.580   1.167  0.2076  0.2477 -0.0933
13236TIP3    H161199   6.351   2.599   1.074 -0.0160  1.2014  0.0773
13236TIP3    H261200   6.285   2.646   1.202 -0.0615 -0.3720  0.6475
13237TIP3   OH261201   1.103   3.279  14.213 -0.0096  0.0023  0.1483
13237TIP3    H161202   1.036   3.267  14.145  1.4658  0.4846 -1.4540
13237TIP3    H261203   1.067   3.234  14.289 -1.3057 -1.4217 -1.2264
13238TIP3   OH261204   3.649   2.289  13.993 -0.3082  0.1422 -0.7223
13238TIP3    H161205   3.700   2.296  13.912  0.1467 -1.2777 -0.5820
13238TIP3    H261206   3.673   2.368  14.043 -1.8822  1.9249 -2.6376
13239TIP3   OH261207   5.415   2.367  11.310  0.6664 -0.2068  0.1639
13239TIP3    H161208   5.510   2.380  11.303  0.7132 -0.3092  0.5669
13239TIP3    H261209   5.403   2.272  11.314  0.3570 -0.3205 -2.2788
13240TIP3   OH261210   1.892   1.121   2.692 -0.0497  0.7292  0.6492
13240TIP3    H161211   1.801   1.131   2.665 -0.1825  0.0755  0.8468
13240TIP3    H261212   1.888   1.068   2.772  0.3557  2.3004  1.7783
13241TIP3   OH261213   4.234   1.565   6.605  0.1826  0.4020 -0.4791
13241TIP3    H161214   4.208   1.476   6.583 -1.1184  0.1689  1.6679
13241TIP3    H261215   4.329   1.560   6.619  0.1443 -0.6069 -0.5491
13242TIP3   OH261216   1.386   1.896  12.136  0.0269  0.4115  0.5089
13242TIP3    H161217   1.324   1.969  12.134 -1.3761 -0.7648 -0.9509
13242TIP3    H261218   1.450   1.918  12.068 -0.3330  0.3342  0.1421
13243TIP3   OH261219   0.288   5.931   3.437 -0.3365 -0.7412  0.0476
13243TIP3    H161220   0.299   5.838   3.416 -0.5536 -0.9182  0.6971
13243TIP3    H261221   0.196   5.941   3.460 -0.8579  0.0993 -2.1947
13244TIP3   OH261222   1.809   0.286   1.570 -0.3668  0.6616  0.0295
13244TIP3    H161223   1.879   0.232   1.608 -1.1573  0.9647  2.0653
13244TIP3    H261224   1.838   0.303   1.480  0.8855 -1.4132 -0.0314
13245TIP3   OH261225   5.770   2.046  15.881 -0.2430 -0.4750 -0.5561
13245TIP3    H161226   5.729   1.980  15.826 -1.1156  1.5383 -2.4614
13245TIP3    H261227   5.705   2.065  15.949  0.2208 -1.8595  0.3265
13246TIP3   OH261228   1.995   6.000  15.324  0.4376  0.1478 -0.3549
13246TIP3    H161229   1.909   5.967  15.296  0.5229 -0.4355  0.0519
13246TIP3    H261230   2.006   5.966  15.413  1.3324 -0.2483 -0.6034
13247TIP3   OH261231   1.201   3.207   3.032  0.1237  0.2596  0.3675
13247TIP3    H161232   1.165   3.146   2.969 -2.4302  1.3424  0.6407
13247TIP3    H261233   1.280   3.242   2.990  0.2910 -1.4015 -0.7868
13248TIP3   OH261234   6.536   0.987   0.358  0.5812 -0.0877  0.3681
13248TIP3    H161235   6.532   1.008   0.265  2.7125 -2.8867 -0.5184
13248TIP3    H261236   6.616   1.030   0.389 -0.1046  0.8106  0.9461
13249TIP3   OH261237   0.676   1.578  13.286 -0.2205  1.0545 -0.2217
13249TIP3    H161238   0.648   1.487  13.282  2.1275  0.2875 -0.6365
13249TIP3    H261239   0.667   1.610  13.196  1.5014  0.3580 -0.6801
13250TIP3   OH261240   3.008   4.407   5.557  0.1506  0.3738  0.1521
13250TIP3    H161241   3.080   4.421   5.619  0.3054  0.9513 -0.1496
13250TIP3    H261242   3.042   4.441   5.474 -0.0010 -0.5249 -0.2817
13251TIP3   OH261243   4.263   0.237   3.940 -0.1225  0.1259  0.0053
13251TIP3    H161244   4.268   0.319   3.989 -0.2353  1.2425 -1.7813
13251TIP3    H261245   4.181   0.197   3.969  0.4758  0.0355  1.7308
13252TIP3   OH261246   6.277   1.641  12.437 -0.0768  0.1599  0.1198
13252TIP3    H161247   6.268   1.625  12.343  0.6644 -0.0906  0.0873
13252TIP3    H261248   6.323   1.725  12.442 -0.9486  0.6450  0.2735
13253TIP3   OH261249   2.229   5.364   6.043 -0.2183 -0.3690  0.8167
13253TIP3    H161250   2.304   5.423   6.029 -1.0424  0.3877 -0.5718
13253TIP3    H261251   2.268   5.277   6.045  0.7166  0.0116  0.1895
13254TIP3   OH261252   3.057   1.691  16.215 -0.1407  0.2313 -0.4060
13254TIP3    H161253   3.145   1.704  16.180  1.3072 -2.1266  2.0417
13254TIP3    H261254   3.006   1.659  16.140  1.5531 -0.1404 -1.4447
13255TIP3   OH261255   3.202   5.089  15.260  0.8033  0.1648  0.3809
13255TIP3    H161256   3.109   5.080  15.280  0.4709  2.8753  0.4130
13255TIP3    H261257   3.247   5.065  15.342  0.0545  0.1944  0.8082
13256TIP3   OH261258   6.210   2.557   0.024 -0.4503  0.0193  0.5538
13256TIP3    H161259   6.121   2.525   0.009 -0.5302  0.5228 -0.1262
13256TIP3    H261260   6.200   2.653   0.026  0.3370  0.1991 -1.5545
13257TIP3   OH261261   2.970   3.027   1.023  0.7947 -0.5721  0.0426
13257TIP3    H161262   2.921   3.074   1.091 -0.2289 -1.3632 -0.1141
13257TIP3    H261263   2.953   3.076   0.943 -4.1432 -3.4729 -1.1198
13258TIP3   OH261264   4.912   2.389   6.075 -0.2001 -0.3051  0.1060
13258TIP3    H161265   4.984   2.376   6.136 -0.1874  1.3302  0.4855
13258TIP3    H261266   4.941   2.347   5.994  0.4474 -1.1233  0.7420
13259TIP3   OH261267   3.574   4.525   4.748  0.3405 -0.1062 -0.0611
13259TIP3    H161268   3.583   4.618   4.723  1.0821 -0.2665 -0.4325
13259TIP3    H261269   3.558   4.527   4.842  1.8895  0.3630  0.2312
13260TIP3   OH261270   3.676   4.681  14.865 -0.1436  0.2096  0.4144
13260TIP3    H161271   3.587   4.715  14.881 -0.2330  0.7441 -1.0764
13260TIP3    H261272   3.664   4.613  14.800  0.4916 -0.0652  0.5845
13261TIP3   OH261273   1.479   1.476  13.261  0.3746  0.3629  0.2991
13261TIP3    H161274   1.547   1.503  13.199 -0.0415  1.1486  0.1836
13261TIP3    H261275   1.397   1.486  13.213  0.2260 -1.6640  0.0479
13262TIP3   OH261276   4.334   1.179   5.611 -0.1240 -0.1781  0.1226
13262TIP3    H161277   4.354   1.249   5.549  0.2085  0.1334  0.5757
13262TIP3    H261278   4.386   1.104   5.581  0.1957  0.0333  0.1452
13263TIP3   OH261279   3.486   2.513  11.542  0.0264 -0.2332  0.5032
13263TIP3    H161280   3.438   2.595  11.541 -1.5583 -1.1168 -0.0065
13263TIP3    H261281   3.492   2.489  11.634  0.6063  0.4982  0.6632
13264TIP3   OH261282   4.159   1.298  15.708  0.6163 -0.7523  0.4496
13264TIP3    H161283   4.165   1.368  15.773 -0.5554 -0.1810 -0.0434
13264TIP3    H261284   4.091   1.240  15.741 -1.5469  0.6696 -1.2651
13265TIP3   OH261285   5.351   0.835   5.356 -0.1571  0.5573 -0.5665
13265TIP3    H161286   5.265   0.793   5.348  0.0042 -0.0334  0.5250
13265TIP3    H261287   5.413   0.761   5.361 -0.0654  0.6649  3.8944
13266TIP3   OH261288   3.948   2.197   0.463 -0.4183 -0.3929 -0.0769
13266TIP3    H161289   3.910   2.181   0.549  1.7652 -2.2913  0.6299
13266TIP3    H261290   3.981   2.112   0.434 -1.5509  0.0560 -3.0904
13267TIP3   OH261291   4.519   0.719   1.576 -0.1637 -0.6368 -0.1466
13267TIP3    H161292   4.529   0.629   1.547 -0.6907 -0.6168 -0.4010
13267TIP3    H261293   4.561   0.771   1.508  0.0538 -0.6812 -0.0482
13268TIP3   OH261294   3.295   4.900   2.911  0.4510 -0.2617 -0.3130
13268TIP3    H161295   3.270   4.947   2.831 -1.1275 -0.3392  0.0992
13268TIP3    H261296   3.271   4.809   2.893  0.9326 -0.4399 -0.0738
13269TIP3   OH261297   6.022   1.400  15.909 -0.3321 -0.0854  0.1139
13269TIP3    H161298   6.082   1.328  15.931 -0.4966 -0.1910  0.2154
13269TIP3    H261299   6.047   1.424  15.820 -1.1773 -1.1980 -0.4583
13270TIP3   OH261300   3.139   4.678  10.491  0.2205  0.3714  0.3339
13270TIP3    H161301   3.137   4.592  10.533  0.3489 -0.5724 -1.5042
13270TIP3    H261302   3.092   4.666  10.409  1.5247  1.6622 -0.6617
13271TIP3   OH261303   1.567   3.946   4.871 -0.2299  0.0757 -0.9198
13271TIP3    H161304   1.486   3.946   4.921 -0.5075 -0.8374 -1.3430
13271TIP3    H261305   1.565   3.864   4.821  1.4587 -0.5004 -0.1254
13272TIP3   OH261306   3.287   2.911  16.723  0.0606  0.0657  0.2686
13272TIP3    H161307   3.316   2.862  16.646  1.9885  0.9948  0.3473
13272TIP3    H261308   3.264   2.997  16.690 -1.1324 -0.1634  0.4578
13273TIP3   OH261309   1.371   5.626  11.272  0.0114  1.0535  0.1216
13273TIP3    H161310   1.330   5.627  11.186  1.6610  0.4064 -0.7351
13273TIP3    H261311   1.379   5.718  11.297 -2.1660  1.1810  0.4741
13274TIP3   OH261312   1.917   4.925  13.852 -0.0826 -0.2539  0.1648
13274TIP3    H161313   1.974   4.940  13.928 -0.3974  0.1473  0.3234
13274TIP3    H261314   1.893   5.012  13.822  3.2089 -0.1669 -2.8712
13275TIP3   OH261315   5.695   0.351  13.302 -0.3194  0.7782 -0.1517
13275TIP3    H161316   5.665   0.285  13.239 -0.4931  1.7155 -1.0834
13275TIP3    H261317   5.658   0.323  13.385  0.4376 -0.8476 -0.3202
13276TIP3   OH261318   5.481   3.517  11.796 -0.3440  0.3108 -0.3927
13276TIP3    H161319   5.552   3.489  11.738  0.4159  0.4737  0.4271
13276TIP3    H261320   5.417   3.558  11.738 -0.4208 -1.0528 -1.3279
13277TIP3   OH261321   5.157   4.956  16.422  0.1654  0.1757  0.4080
13277TIP3    H161322   5.241   4.941  16.379 -0.1702 -0.3899 -0.0563
13277TIP3    H261323   5.101   4.994  16.354 -0.9224 -2.3626 -0.2291
13278TIP3   OH261324   2.519   5.976   2.406 -0.0209 -0.1887  0.0008
13278TIP3    H161325   2.599   5.927   2.386 -0.0471 -0.7065  1.0948
13278TIP3    H261326   2.540   6.067   2.382  1.7408  0.1216  2.3413
13279TIP3   OH261327   3.139   6.173   4.243 -0.1964  0.3009  0.2696
13279TIP3    H161328   3.209   6.136   4.189  0.0808 -1.0180  1.4622
13279TIP3    H261329   3.058   6.151   4.196 -0.0070 -1.4606  0.6749
13280TIP3   OH261330   5.216   1.948   0.436  0.1651  0.5352  0.5438
13280TIP3    H161331   5.198   2.014   0.502 -0.9618  1.6580 -0.8094
13280TIP3    H261332   5.223   1.866   0.485  2.5795  1.7286  2.3932
13281TIP3   OH261333   5.406   0.520   3.790  0.7114  0.3110  0.3896
13281TIP3    H161334   5.320   0.548   3.757  0.1291 -2.4958 -0.8448
13281TIP3    H261335   5.465   0.592   3.769 -1.1232  1.8449  0.2282
13282TIP3   OH261336   5.037   6.766  13.754  0.0264 -0.4727  0.6887
13282TIP3    H161337   4.947   6.799  13.747  0.4690  0.6211 -0.3115
13282TIP3    H261338   5.066   6.791  13.842  0.4228  2.1682 -0.1018
13283TIP3   OH261339   3.408   3.737   2.468 -0.2122  0.1384  0.4243
13283TIP3    H161340   3.418   3.831   2.455 -1.3589  0.0571 -1.4804
13283TIP3    H261341   3.328   3.714   2.420 -1.2586 -1.4682  2.7267
13284TIP3   OH261342   3.468   3.992   3.876  0.2865  0.4708 -0.2291
13284TIP3    H161343   3.553   4.012   3.835  0.3773  0.2203 -0.1677
13284TIP3    H261344   3.475   4.028   3.964 -0.1875  1.6778 -0.6644
13285TIP3   OH261345   1.653   5.330  10.760 -0.5365  0.1637 -0.5493
13285TIP3    H161346   1.606   5.412  10.768 -2.0014 -0.6843 -0.1597
13285TIP3    H261347   1.585   5.262  10.762  0.3083 -0.9752 -3.9145
13286TIP3   OH261348   6.672   2.702  13.241  0.4762  0.5845  0.3745
13286TIP3    H161349   6.685   2.608  13.231 -2.0248  0.1346  0.6577
13286TIP3    H261350   6.681   2.737  13.153  0.2842 -0.0970  0.0786
13287TIP3   OH261351   4.511   5.582   0.928 -0.6291 -0.2578  0.7602
13287TIP3    H161352   4.487   5.612   1.015 -4.1696 -0.4432  0.0138
13287TIP3    H261353   4.516   5.487   0.935  1.5183 -0.1565  1.1986
13288TIP3   OH261354   6.094   1.181  13.044  0.1113  0.0943  0.5456
13288TIP3    H161355   6.085   1.186  12.949 -2.4774 -2.2351  0.5522
13288TIP3    H261356   6.013   1.219  13.078  0.7158  0.2881  1.8328
13289TIP3   OH261357   4.100   3.168   4.145 -0.6047  0.0729  0.3988
13289TIP3    H161358   4.145   3.252   4.154 -1.5176  0.6930 -0.5633
13289TIP3    H261359   4.007   3.191   4.146 -0.8599 -0.8741 -0.3815
13290TIP3   OH261360   6.530   3.402  16.063  0.0087 -0.7242 -0.6161
13290TIP3    H161361   6.525   3.480  16.118  0.9926 -0.5674 -0.7306
13290TIP3    H261362   6.499   3.330  16.118  1.7680 -0.7127  0.4316
13291TIP3   OH261363   4.821   0.421  15.903  0.3494  0.0691 -0.7061
13291TIP3    H161364   4.794   0.399  15.814 -2.3613  1.5162 -0.3662
13291TIP3    H261365   4.792   0.347  15.956 -3.7685  1.6550 -0.3174
13292TIP3   OH261366   3.360   1.193   3.032  0.0153 -0.0977  0.1715
13292TIP3    H161367   3.273   1.223   3.008  0.5686  0.5720 -1.1162
13292TIP3    H261368   3.365   1.104   2.999  0.3029  0.3614 -1.0759
13293TIP3   OH261369   5.359   6.195   4.159 -0.1910 -0.0939 -0.2280
13293TIP3    H161370   5.415   6.186   4.235 -1.5412 -0.3728  0.7618
13293TIP3    H261371   5.419   6.200   4.085  1.1020 -0.9386  0.7405
13294TIP3   OH261372   2.951   4.208   2.643  0.0007  0.5156  0.2822
13294TIP3    H161373   2.934   4.231   2.552  0.6580 -1.7302 -0.4736
13294TIP3    H261374   2.874   4.239   2.691 -1.4077 -0.2631 -1.3938
13295TIP3   OH261375   3.241   4.878   0.980 -0.1056 -0.1632  0.1946
13295TIP3    H161376   3.314   4.938   0.965 -1.1947  1.4422  1.0041
13295TIP3    H261377   3.242   4.819   0.904  1.2346  0.6300 -0.4381
13296TIP3   OH261378   2.933   1.312  13.993  0.3782  0.1417 -0.0462
13296TIP3    H161379   2.944   1.379  13.925  1.4843 -1.1478 -1.1942
13296TIP3    H261380   2.870   1.351  14.055  0.2690  1.8428 -1.1534
13297TIP3   OH261381   0.970   3.314   0.181 -0.7561  0.1163 -0.2185
13297TIP3    H161382   1.043   3.369   0.154  0.0458 -0.6410  0.3492
13297TIP3    H261383   1.005   3.260   0.252 -1.2972 -1.6364 -1.2322
13298TIP3   OH261384   3.814   5.343  11.418 -0.2468  0.0433 -0.2105
13298TIP3    H161385   3.802   5.353  11.324  0.9590 -1.7080 -0.5974
13298TIP3    H261386   3.726   5.327  11.452 -0.5832 -0.1638 -1.1662
13299TIP3   OH261387   0.107   4.980   6.597 -0.2284  0.7522  0.0741
13299TIP3    H161388   0.025   5.027   6.582  0.3392  1.8256  0.2332
13299TIP3    H261389   0.164   5.009   6.526  0.9227  2.2270  1.5291
13300TIP3   OH261390   0.462   1.588   1.188  0.5520 -0.5247 -0.0382
13300TIP3    H161391   0.471   1.500   1.226  3.3429 -0.7761 -1.0384
13300TIP3    H261392   0.515   1.643   1.245  0.4852  0.1098 -0.5851
13301TIP3   OH261393   2.489   5.247  14.838 -0.0223 -0.0764  0.1302
13301TIP3    H161394   2.409   5.262  14.887  0.7980  0.1427  1.4480
13301TIP3    H261395   2.554   5.221  14.904  0.7806 -1.0883 -1.0120
13302TIP3   OH261396   3.975   4.100  14.825  0.1327 -0.2649 -0.3977
13302TIP3    H161397   4.037   4.110  14.897 -0.5416 -0.1205  0.1784
13302TIP3    H261398   3.897   4.062  14.865 -1.1696  2.0690 -0.5219
13303TIP3   OH261399   2.549   4.743  16.624  0.3451 -0.8943 -0.1822
13303TIP3    H161400   2.465   4.709  16.593 -0.7876  0.5865  1.0685
13303TIP3    H261401   2.565   4.820  16.570  1.1199 -1.3824 -0.6700
13304TIP3   OH261402   4.647   6.191   0.998 -0.0636  0.3110 -0.5636
13304TIP3    H161403   4.709   6.142   1.052 -0.2795  0.1943 -0.4176
13304TIP3    H261404   4.681   6.184   0.909 -0.9420 -1.4761 -0.7969
13305TIP3   OH261405   0.516   4.204   4.506  0.3935  0.8714 -0.0133
13305TIP3    H161406   0.487   4.289   4.540  0.9353  0.3540  1.8351
13305TIP3    H261407   0.604   4.192   4.543 -0.4578 -1.4023  1.4746
13306TIP3   OH261408   0.084   6.361   4.474  0.0077  0.3700  0.3975
13306TIP3    H161409   0.010   6.408   4.437 -0.0149  0.1878  0.2060
13306TIP3    H261410   0.136   6.334   4.398 -0.4952 -0.7621  0.4265
13307TIP3   OH261411   0.413   2.633  13.025 -0.3455 -0.1482 -0.2270
13307TIP3    H161412   0.413   2.703  13.090  0.8880 -0.4887  0.1742
13307TIP3    H261413   0.487   2.577  13.050 -0.8969 -1.2242 -0.9294
13308TIP3   OH261414   2.453   3.326   5.017 -0.3577 -0.4090 -0.2700
13308TIP3    H161415   2.463   3.357   5.107 -0.0817 -0.1529 -0.3887
13308TIP3    H261416   2.491   3.238   5.018  1.6817  0.4049 -0.6287
13309TIP3   OH261417   5.930   3.696   1.423 -0.2069 -0.4292  0.1047
13309TIP3    H161418   5.957   3.712   1.333 -2.1323 -0.2960 -0.5078
13309TIP3    H261419   5.996   3.637   1.458  0.8720 -0.0601 -1.2106
13310TIP3   OH261420   3.826   4.868  12.031  0.4688  0.7223 -0.2001
13310TIP3    H161421   3.734   4.859  12.057  0.7323  0.6928  0.7621
13310TIP3    H261422   3.854   4.779  12.011  1.1063  0.2663  2.4416
13311TIP3   OH261423   1.673   1.171   3.169  0.2097  0.0658 -0.0493
13311TIP3    H161424   1.589   1.128   3.180  0.6644 -0.9576 -0.4139
13311TIP3    H261425   1.669   1.209   3.081 -0.4753  1.4746  0.5514
13312TIP3   OH261426   5.859   5.697  11.367 -0.2590  0.0046  0.1785
13312TIP3    H161427   5.936   5.753  11.372  1.0702 -1.8289  1.3908
13312TIP3    H261428   5.870   5.647  11.285 -0.9301  0.7530 -0.3867
13313TIP3   OH261429   6.625   3.505   4.045  0.0262 -0.3031 -0.5960
13313TIP3    H161430   6.664   3.556   4.116 -3.1387  1.3840  0.1377
13313TIP3    H261431   6.630   3.414   4.073  1.4350  0.0611  0.3870
13314TIP3   OH261432   4.211   0.343  14.511 -0.2514 -0.1836 -0.0236
13314TIP3    H161433   4.159   0.280  14.561 -0.0343 -0.6533 -0.3815
13314TIP3    H261434   4.173   0.341  14.424  0.8040 -1.0858 -0.5011
13315TIP3   OH261435   5.517   0.883  11.678 -0.1697 -0.0609 -1.2356
13315TIP3    H161436   5.502   0.938  11.755 -1.4385 -1.1719 -0.6580
13315TIP3    H261437   5.486   0.937  11.605 -1.1257  0.1334 -0.7112
13316TIP3   OH261438   2.686   4.690  11.071 -0.3921 -0.1607  0.0151
13316TIP3    H161439   2.617   4.735  11.021  0.2012  2.5122  1.4146
13316TIP3    H261440   2.648   4.676  11.157  0.2441 -0.1596  0.3007
13317TIP3   OH261441   3.851   0.927   3.485  0.0658  0.5422  0.2925
13317TIP3    H161442   3.829   0.927   3.578 -2.2091  1.8932 -0.1722
13317TIP3    H261443   3.868   1.018   3.464 -0.4445  0.4005 -0.8011
13318TIP3   OH261444   0.508   0.134   5.868 -0.4043  0.5958  0.2133
13318TIP3    H161445   0.492   0.127   5.962 -0.9283  0.3549  0.1137
13318TIP3    H261446   0.464   0.215   5.842 -0.5470  0.4905  0.1217
13319TIP3   OH261447   5.266   4.800  15.124  0.5383  0.5900  0.6271
13319TIP3    H161448   5.253   4.889  15.158  2.2191  1.5244 -0.9704
13319TIP3    H261449   5.350   4.773  15.160 -0.4810 -0.8755  2.0275
13320TIP3   OH261450   5.857   0.183  11.388  0.1579  0.4338  0.0328
13320TIP3    H161451   5.949   0.158  11.399 -0.1929 -0.5644  0.9183
13320TIP3    H261452   5.843   0.183  11.293  1.1035  0.7562 -0.1175
13321TIP3   OH261453   4.135   4.182  12.714 -0.0532  0.8715 -0.0865
13321TIP3    H161454   4.066   4.220  12.659 -1.4318 -1.6248 -0.2082
13321TIP3    H261455   4.182   4.122  12.656  0.8133  0.8909  0.5693
13322TIP3   OH261456   6.337   2.868   5.073 -0.2767 -0.1225 -0.3857
13322TIP3    H161457   6.315   2.777   5.049 -0.5982  0.1749 -1.2517
13322TIP3    H261458   6.348   2.865   5.168 -1.7812 -0.7631 -0.2073
13323TIP3   OH261459   5.426   2.011  16.356 -0.0768  0.7064  0.2004
13323TIP3    H161460   5.436   2.105  16.370 -0.7221  0.9925 -1.0400
13323TIP3    H261461   5.492   1.970  16.412  2.7378  2.0635 -1.8983
13324TIP3   OH261462   0.738   0.817   4.804 -0.2539 -0.3638 -0.0030
13324TIP3    H161463   0.676   0.844   4.737  0.5718 -2.4128 -1.6963
13324TIP3    H261464   0.725   0.723   4.813  0.8125 -0.4041  1.5182
13325TIP3   OH261465   5.003   5.225  14.730 -0.4837  0.5184 -0.8548
13325TIP3    H161466   4.952   5.256  14.805  0.2424  0.5027 -0.3493
13325TIP3    H261467   4.937   5.192  14.669 -1.1937  1.8325 -0.8381
13326TIP3   OH261468   4.635   0.695  11.607  0.0011  0.2803 -0.2720
13326TIP3    H161469   4.597   0.764  11.661  1.0573  0.9122 -0.2935
13326TIP3    H261470   4.635   0.731  11.518 -0.2595 -0.1118 -0.4356
13327TIP3   OH261471   5.746   3.294  12.126 -0.0456  0.6419 -0.2517
13327TIP3    H161472   5.725   3.237  12.201  0.2156 -0.8984 -1.2895
13327TIP3    H261473   5.822   3.345  12.155 -0.6298  0.8864  0.9112
13328TIP3   OH261474   2.667   2.430  10.949 -0.1829  0.3777 -0.2751
13328TIP3    H161475   2.673   2.500  11.014 -1.0807 -0.8209  1.1549
13328TIP3    H261476   2.728   2.363  10.981  0.1578  0.2144 -1.2522
13329TIP3   OH261477   3.532   6.150  13.245 -0.0028 -0.0727 -0.0528
13329TIP3    H161478   3.564   6.131  13.157 -1.2576 -0.4980 -0.4456
13329TIP3    H261479   3.464   6.216  13.232 -2.7634 -2.6440  0.0866
13330TIP3   OH261480   6.334   5.257   5.436  0.3206  0.3016 -0.3790
13330TIP3    H161481   6.408   5.226   5.488  0.7540  1.8414 -0.0189
13330TIP3    H261482   6.257   5.235   5.489  0.6531  0.4008  0.1528
13331TIP3   OH261483   4.648   6.814   1.477  0.1007 -0.1011 -0.8286
13331TIP3    H161484   4.625   6.904   1.497  0.1647 -0.2197 -0.1688
13331TIP3    H261485   4.732   6.820   1.431 -0.4126  0.2292 -1.7304
13332TIP3   OH261486   1.998   5.150   3.385  0.1471 -0.0333  0.5376
13332TIP3    H161487   1.942   5.226   3.366 -0.3994 -0.7552 -0.8881
13332TIP3    H261488   1.939   5.087   3.427  0.1809 -0.2990  0.1964
13333TIP3   OH261489   4.106   0.826   5.300  0.5565 -0.1344  0.5892
13333TIP3    H161490   4.031   0.767   5.310  1.0042 -1.2158 -1.8468
13333TIP3    H261491   4.182   0.773   5.324  0.8400 -0.1447 -0.3046
13334TIP3   OH261492   2.268   1.390   1.790  0.4118 -0.0226 -0.3115
13334TIP3    H161493   2.261   1.444   1.711  2.8881 -0.2187 -0.7564
13334TIP3    H261494   2.274   1.452   1.862  0.7008  0.2314 -0.5528
13335TIP3   OH261495   0.908   2.086  16.352  0.2750  0.9275 -0.2726
13335TIP3    H161496   0.870   2.089  16.264 -1.9674  1.1613  0.6327
13335TIP3    H261497   0.833   2.093  16.410  1.5641 -0.5243  1.6998
13336TIP3   OH261498   1.552   2.662  16.136  0.1258 -0.2388 -0.1106
13336TIP3    H161499   1.560   2.584  16.081 -0.5828  1.0873 -2.1821
13336TIP3    H261500   1.481   2.642  16.196 -0.3101 -1.0548 -0.8760
13337TIP3   OH261501   4.289   1.698  13.993 -0.5316 -0.3197 -0.8159
13337TIP3    H161502   4.366   1.738  13.952 -0.7294  0.7118 -0.2302
13337TIP3    H261503   4.244   1.653  13.922  0.1759 -0.2282 -1.3297
13338TIP3   OH261504   2.334   0.894   3.241 -0.5824 -0.0696 -0.3353
13338TIP3    H161505   2.418   0.853   3.219 -1.0927 -1.9410  0.9751
13338TIP3    H261506   2.281   0.823   3.277 -1.7608  1.6322  1.4968
13339TIP3   OH261507   3.794   3.868  11.316 -0.3555  0.3208 -0.3570
13339TIP3    H161508   3.717   3.925  11.320  0.2531  1.1472 -0.0689
13339TIP3    H261509   3.783   3.807  11.389 -0.9559  0.1589 -0.5865
13340TIP3   OH261510   1.229   5.329  14.348 -0.0000 -0.5917  0.4149
13340TIP3    H161511   1.210   5.393  14.416 -2.8627 -2.2675  1.3866
13340TIP3    H261512   1.240   5.246  14.396 -0.4473 -1.5314 -1.0222
13341TIP3   OH261513   3.582   3.324  12.210  0.4572 -0.5151  0.6475
13341TIP3    H161514   3.605   3.336  12.117  0.7755 -0.2722  0.7579
13341TIP3    H261515   3.609   3.234  12.229  1.2189 -0.2748  0.7418
13342TIP3   OH261516   4.762   1.605   6.054 -0.5812 -0.3785  0.0409
13342TIP3    H161517   4.793   1.678   6.001  0.4955 -0.4028  0.6045
13342TIP3    H261518   4.841   1.570   6.096 -1.1711 -1.4208  0.3372
13343TIP3   OH261519   2.115   6.376  14.956  0.2660 -0.1209 -0.3624
13343TIP3    H161520   2.024   6.368  14.926  0.6197 -0.3998 -1.3961
13343TIP3    H261521   2.167   6.342  14.883  1.3565  2.5683 -0.9484
13344TIP3   OH261522   5.966   3.047  13.512 -0.5293 -0.1707  0.0411
13344TIP3    H161523   5.971   3.088  13.426 -0.3588 -0.8096 -0.2590
13344TIP3    H261524   5.895   3.093  13.556 -1.0004 -0.2202 -0.6475
13345TIP3   OH261525   2.756   6.180   3.109 -0.9588 -0.6348 -0.1930
13345TIP3    H161526   2.812   6.103   3.113  0.9183  0.6629 -0.5516
13345TIP3    H261527   2.780   6.232   3.186  0.0509  1.0154 -1.5472
13346TIP3   OH261528   3.744   6.778   3.491  0.2456 -0.2646 -1.4596
13346TIP3    H161529   3.713   6.688   3.498  1.8265 -0.7230  0.8933
13346TIP3    H261530   3.837   6.771   3.473  1.3792  0.5827  2.8233
13347TIP3   OH261531   0.960   2.150   0.145 -0.2714 -0.4237 -0.8994
13347TIP3    H161532   0.931   2.239   0.167 -0.7895 -0.2932 -2.0343
13347TIP3    H261533   1.056   2.155   0.150 -0.2985  0.1608 -0.8310
13348TIP3   OH261534   0.701   1.368   3.532 -0.0002 -0.0887 -0.1973
13348TIP3    H161535   0.609   1.392   3.534 -0.2281 -0.8799 -0.5927
13348TIP3    H261536   0.726   1.373   3.440  0.7874  1.6130  0.0686
13349TIP3   OH261537   6.508   5.496   4.464  0.5049  0.3083  0.3997
13349TIP3    H161538   6.443   5.446   4.513  1.9055 -3.5183 -1.2455
13349TIP3    H261539   6.582   5.504   4.524  0.1136  0.7738  0.8207
13350TIP3   OH261540   4.973   4.819  14.086  0.0621 -0.5249  0.0448
13350TIP3    H161541   5.025   4.784  14.014  2.4151 -0.1618  1.4398
13350TIP3    H261542   4.960   4.912  14.065  1.4010 -0.2389  0.3896
13351TIP3   OH261543   6.581   1.352  13.948  0.0698 -0.3490 -0.1587
13351TIP3    H161544   6.649   1.409  13.984  0.5101  0.0504 -1.5684
13351TIP3    H261545   6.500   1.385  13.988  0.0550  2.5121 -2.2277
13352TIP3   OH261546   6.720   2.425  16.534  0.6999  0.5105  0.4312
13352TIP3    H161547   6.644   2.447  16.588  0.0492  0.4322 -0.4224
13352TIP3    H261548   6.746   2.508  16.493  0.9106  0.4902  0.5237
13353TIP3   OH261549   2.876   0.587   1.681 -0.1001  0.2316  0.3532
13353TIP3    H161550   2.879   0.638   1.762  0.2217 -0.9630  1.1036
13353TIP3    H261551   2.967   0.563   1.664 -0.0002  1.3670 -0.9788
13354TIP3   OH261552   1.667   0.409  17.056  0.0545  0.3090  0.0535
13354TIP3    H161553   1.583   0.375  17.025  0.2098 -0.5414  0.5278
13354TIP3    H261554   1.705   0.453  16.980 -0.4553 -0.0144 -0.3927
13355TIP3   OH261555   2.762   2.833  11.492  0.0470  0.1952  0.0897
13355TIP3    H161556   2.803   2.919  11.484 -1.7222  0.9796 -1.2669
13355TIP3    H261557   2.810   2.777  11.431  0.6235  0.4439  0.3089
13356TIP3   OH261558   5.342   0.446   6.774  0.5376 -0.0109 -0.5127
13356TIP3    H161559   5.314   0.415   6.688  1.7415 -0.4244 -0.7765
13356TIP3    H261560   5.334   0.369   6.831 -0.9062  0.4277 -0.0575
13357TIP3   OH261561   6.201   5.515  16.964  0.3951 -0.5277  0.1565
13357TIP3    H161562   6.247   5.542  17.044  0.6988 -0.8315  0.0848
13357TIP3    H261563   6.163   5.430  16.987  0.4700 -0.6075 -0.0205
13358TIP3   OH261564   0.102   5.869   1.353  0.1057  0.2745 -0.2623
13358TIP3    H161565   0.196   5.888   1.353 -0.2379  2.0925 -0.1471
13358TIP3    H261566   0.063   5.937   1.408 -1.2463 -0.7025  0.0447
13359TIP3   OH261567   0.991   3.825  11.773  0.5046 -0.2568  0.2673
13359TIP3    H161568   1.075   3.784  11.796  0.7906 -0.2129 -0.6380
13359TIP3    H261569   0.999   3.915  11.804  0.6195 -0.3774  0.5851
13360TIP3   OH261570   5.355   6.156   0.002 -0.6902 -0.1663 -0.5291
13360TIP3    H161571   5.395   6.238  -0.028  1.0225 -1.0310 -0.7469
13360TIP3    H261572   5.293   6.183   0.070 -1.2030  1.4196 -1.5687
13361TIP3   OH261573   5.024   5.140  13.165  0.3999 -0.3997  0.1109
13361TIP3    H161574   4.943   5.096  13.142  0.4699  0.6647 -2.5126
13361TIP3    H261575   5.005   5.233  13.153  1.5716 -0.0024  1.0578
13362TIP3   OH261576   4.369   4.403  11.892  0.1763  0.0786 -0.2676
13362TIP3    H161577   4.462   4.425  11.884  0.3921 -0.7248 -0.0808
13362TIP3    H261578   4.368   4.319  11.938 -0.6743  0.3957  0.3158
13363TIP3   OH261579   3.263   0.433  11.503 -0.1574 -0.5081  0.2034
13363TIP3    H161580   3.175   0.396  11.494  0.1919 -1.7705  1.6081
13363TIP3    H261581   3.313   0.365  11.547  1.3905  0.4254 -0.0473
13364TIP3   OH261582   2.895   0.040  14.821  0.1236  0.1757  0.0006
13364TIP3    H161583   2.890   0.009  14.731  2.7569 -1.2761  0.2500
13364TIP3    H261584   2.931   0.129  14.814  0.1698  0.1269 -0.3966
13365TIP3   OH261585   2.144   5.984  11.321  0.4514  0.0776  0.5242
13365TIP3    H161586   2.198   5.905  11.317  0.6055  0.1507  1.0452
13365TIP3    H261587   2.122   5.993  11.414 -1.1180 -0.3911  0.2450
13366TIP3   OH261588   6.765   0.710   1.479  0.3136  0.5221  0.1793
13366TIP3    H161589   6.759   0.805   1.474  1.3781  0.5490 -0.9451
13366TIP3    H261590   6.749   0.690   1.572  0.4758  1.8148  0.5054
13367TIP3   OH261591   1.862   3.516   4.208 -0.2908 -0.3835 -0.1412
13367TIP3    H161592   1.831   3.433   4.243 -3.5817  0.1400 -1.4438
13367TIP3    H261593   1.924   3.493   4.140  0.2240 -1.6675  0.7355
13368TIP3   OH261594   4.731   3.312   3.929  0.8054  0.3149 -0.3490
13368TIP3    H161595   4.827   3.311   3.932  0.7739  0.1076  0.7347
13368TIP3    H261596   4.709   3.239   3.871  1.2687 -0.5595  0.5455
13369TIP3   OH261597   5.493   2.054  13.620  0.2677  0.1778  0.7095
13369TIP3    H161598   5.443   2.078  13.697  0.7169  4.6103 -0.0931
13369TIP3    H261599   5.585   2.064  13.647  0.5605 -1.2676  0.3546
13370TIP3   OH261600   4.183   4.212  12.353  0.1167 -0.0028  0.4322
13370TIP3    H161601   4.200   4.119  12.341  0.5604  0.1272  0.0239
13370TIP3    H261602   4.262   4.256  12.322 -0.3705  0.5402 -0.0844
13371TIP3   OH261603   3.843   1.928   6.145 -0.4242  0.9728 -0.1960
13371TIP3    H161604   3.795   1.845   6.142 -0.3656  0.8558  1.2101
13371TIP3    H261605   3.924   1.906   6.190  0.6334  1.3361 -1.8596
13372TIP3   OH261606   1.356   5.637  13.374 -0.0946 -0.2849 -0.2001
13372TIP3    H161607   1.434   5.676  13.334 -0.8114  1.3044 -0.1270
13372TIP3    H261608   1.344   5.687  13.455 -0.1745 -1.7182  0.7010
13373TIP3   OH261609   6.176   0.355  13.030 -0.1439  0.1011  0.7030
13373TIP3    H161610   6.121   0.285  13.065  0.8200  0.2551  2.6432
13373TIP3    H261611   6.242   0.311  12.977 -1.6568 -0.1340 -1.0864
13374TIP3   OH261612   1.503   4.173   5.989 -0.1535  0.0908  0.2829
13374TIP3    H161613   1.563   4.099   5.977  0.3457  0.5548 -0.1370
13374TIP3    H261614   1.438   4.141   6.053  0.3141 -0.5491  0.4517
13375TIP3   OH261615   6.675   0.036   0.434  0.1785  0.4134 -0.1031
13375TIP3    H161616   6.665  -0.059   0.426  1.9495  0.3193 -2.9324
13375TIP3    H261617   6.592   0.071   0.402 -0.5001 -0.1353  0.9871
13376TIP3   OH261618   5.149   2.650  11.678 -0.1152  0.1359  0.1829
13376TIP3    H161619   5.142   2.677  11.770  0.0272 -1.8282  0.8009
13376TIP3    H261620   5.173   2.731  11.632  1.5229  0.8299  2.0934
13377TIP3   OH261621   4.852   2.090  16.263  0.2776 -0.5888 -0.6010
13377TIP3    H161622   4.810   2.033  16.199  0.9836  0.4496 -2.0563
13377TIP3    H261623   4.941   2.057  16.271  0.7410  0.3678 -1.5814
13378TIP3   OH261624   2.081   3.515   2.046 -0.3160  0.2187 -0.1464
13378TIP3    H161625   2.156   3.523   1.988  0.9831  1.7784  1.6108
13378TIP3    H261626   2.022   3.585   2.018 -1.1496 -0.9728 -1.4920
13379TIP3   OH261627   0.774   5.602  12.184  0.3574  0.1698 -0.0318
13379TIP3    H161628   0.686   5.641  12.182  0.1300 -0.1530 -3.9643
13379TIP3    H261629   0.767   5.524  12.130  2.8582 -0.4926  0.4634
13380TIP3   OH261630   6.220   3.782  16.474  0.2437 -0.0394 -0.0026
13380TIP3    H161631   6.162   3.746  16.406  0.0962 -3.4573  1.6984
13380TIP3    H261632   6.279   3.840  16.427 -1.5589 -0.0966 -2.5687
13381TIP3   OH261633   3.191   0.868   2.481  0.1808 -0.6194  0.3187
13381TIP3    H161634   3.233   0.787   2.510  0.5989 -0.9776 -1.1680
13381TIP3    H261635   3.099   0.858   2.505  0.2499 -1.5045  0.2341
13382TIP3   OH261636   2.723   4.814  12.629 -0.7089 -0.3651 -0.0093
13382TIP3    H161637   2.689   4.868  12.558 -0.2322  1.2894  0.9728
13382TIP3    H261638   2.787   4.869  12.673  0.1682 -1.9245  0.7553
13383TIP3   OH261639   0.413   0.708   4.991 -0.2570  0.8183 -0.8453
13383TIP3    H161640   0.359   0.738   5.064 -0.5780  0.1823 -0.8153
13383TIP3    H261641   0.352   0.700   4.918 -0.3603 -0.6316 -0.6148
13384TIP3   OH261642   5.126   5.206  11.242  0.3571  0.0365  0.0567
13384TIP3    H161643   5.045   5.237  11.202 -0.9028 -1.8525  0.9636
13384TIP3    H261644   5.188   5.199  11.170 -0.9299 -0.4379 -1.0409
13385TIP3   OH261645   3.412   1.748  11.250  0.2799  0.2286 -0.2111
13385TIP3    H161646   3.490   1.804  11.256 -0.3918  1.4290 -2.0140
13385TIP3    H261647   3.367   1.777  11.171 -2.3991  0.0403  1.1434
13386TIP3   OH261648   5.091   3.098  13.605 -0.1855 -0.1643 -0.4764
13386TIP3    H161649   5.014   3.056  13.644 -0.6089 -0.2579 -1.3900
13386TIP3    H261650   5.154   3.026  13.595 -0.1743 -0.1917 -0.2301
13387TIP3   OH261651   4.607   4.077  14.298  0.2751  0.0283 -0.5626
13387TIP3    H161652   4.625   3.995  14.251  0.5688  1.0340 -2.2651
13387TIP3    H261653   4.566   4.048  14.380 -1.2048 -1.7685 -1.8430
13388TIP3   OH261654   3.220   5.360  14.180  0.1484  0.3026  0.2936
13388TIP3    H161655   3.244   5.449  14.206 -0.3448  0.1628  1.2772
13388TIP3    H261656   3.138   5.344  14.226  0.9397 -1.1658  1.2595
13389TIP3   OH261657   6.255   3.532  16.211  0.5766 -0.4762 -0.2622
13389TIP3    H161658   6.340   3.549  16.251  0.5029 -0.7974  0.0434
13389TIP3    H261659   6.215   3.466  16.268 -1.1025  1.7544  1.3160
13390TIP3   OH261660   4.282   0.736   3.759  0.0471  0.1433 -0.0803
13390TIP3    H161661   4.331   0.700   3.684 -0.6409  0.5920 -0.7630
13390TIP3    H261662   4.200   0.766   3.721 -0.1888  0.6568  0.8181
13391TIP3   OH261663   2.657   5.396   0.847 -0.1538  0.4234 -0.0563
13391TIP3    H161664   2.690   5.334   0.913 -0.2143  0.5168  0.0617
13391TIP3    H261665   2.613   5.340   0.782 -0.3632  0.3545  0.1418
13392TIP3   OH261666   4.490   3.440   4.012 -0.7187  0.4706 -0.0822
13392TIP3    H161667   4.582   3.430   4.036 -0.7636  0.1960 -0.0205
13392TIP3    H261668   4.488   3.424   3.918 -0.8465 -0.5336  0.0763
13393TIP3   OH261669   2.158   0.266   6.412 -0.1040 -0.1944 -0.6583
13393TIP3    H161670   2.224   0.292   6.477 -0.8706 -0.4422  0.2316
13393TIP3    H261671   2.173   0.172   6.400 -1.4171 -0.6380  0.8879
13394TIP3   OH261672   3.284   6.751  15.022  0.3467 -0.1624  0.6220
13394TIP3    H161673   3.311   6.807  14.948  0.1198 -0.5623  0.2323
13394TIP3    H261674   3.305   6.803  15.100 -2.3183  1.6466  0.2743
13395TIP3   OH261675   1.942   5.221   4.259  0.2571 -0.4542 -0.0659
13395TIP3    H161676   1.925   5.147   4.318 -0.3797 -0.8091 -0.6705
13395TIP3    H261677   1.856   5.258   4.242  0.4135 -0.4190 -0.8378
13396TIP3   OH261678   6.633   3.026   5.503 -0.5906  0.6386  0.0361
13396TIP3    H161679   6.678   3.110   5.515  1.2867  0.0613 -2.1467
13396TIP3    H261680   6.648   2.978   5.584  0.6122  1.4277  0.2984
13397TIP3   OH261681   0.583   4.161   5.737  0.6176 -0.1933  0.1070
13397TIP3    H161682   0.602   4.175   5.830  1.0801 -2.2015  0.3455
13397TIP3    H261683   0.645   4.094   5.709  0.5250  0.4082 -1.6886
13398TIP3   OH261684   2.388   4.707  15.962  0.0219  0.1966  0.3521
13398TIP3    H161685   2.432   4.788  15.936  0.3051  0.2867  1.0751
13398TIP3    H261686   2.459   4.653  15.997 -0.2174 -0.2465  0.1481
13399TIP3   OH261687   5.811   0.854  15.725  0.7244 -0.2755 -0.0975
13399TIP3    H161688   5.885   0.803  15.756 -0.5601 -0.6785  2.5525
13399TIP3    H261689   5.754   0.790  15.682  1.4300 -0.1177 -1.3244
13400TIP3   OH261690   0.670   3.905  15.538  0.4258 -0.6752  0.1409
13400TIP3    H161691   0.646   3.814  15.522  0.5743 -0.5082 -1.0951
13400TIP3    H261692   0.746   3.900  15.596 -0.3798 -1.2927  1.1860
13401TIP3   OH261693   2.193   2.719  15.883 -0.1016  0.0976 -0.1753
13401TIP3    H161694   2.112   2.723  15.934 -0.7110 -0.9515 -1.0081
13401TIP3    H261695   2.169   2.753  15.797  0.2034 -0.6535 -0.5729
13402TIP3   OH261696   2.839   0.474  14.413 -0.2631 -0.1045  0.2157
13402TIP3    H161697   2.756   0.499  14.372 -1.1840 -1.4804  1.1458
13402TIP3    H261698   2.857   0.544  14.475 -0.2867  0.6018 -0.5476
13403TIP3   OH261699   3.027   0.022   0.820 -0.2689 -0.1066 -0.4932
13403TIP3    H161700   2.986  -0.064   0.821  3.2142 -1.9642 -0.6937
13403TIP3    H261701   2.964   0.079   0.864 -2.2721 -2.9810  0.6954
13404TIP3   OH261702   2.147   3.751   2.420  0.1681 -0.3899  0.1401
13404TIP3    H161703   2.133   3.673   2.367  0.9961 -1.0002  0.7755
13404TIP3    H261704   2.069   3.804   2.407  0.2057 -0.6654 -1.4181
13405TIP3   OH261705   6.118   2.852   3.595 -0.1533  0.4494  0.4313
13405TIP3    H161706   6.138   2.896   3.512 -1.8134  2.7679  1.1569
13405TIP3    H261707   6.023   2.857   3.602 -0.0688  0.0293  2.3369
13406TIP3   OH261708   3.791   5.778   0.586 -0.5220 -0.3528  0.1490
13406TIP3    H161709   3.793   5.759   0.680 -0.7445  1.4221  0.5315
13406TIP3    H261710   3.848   5.711   0.548 -1.5855 -2.0260  1.3482
13407TIP3   OH261711   5.964   6.728   3.965  0.2662 -1.0277 -0.1370
13407TIP3    H161712   6.046   6.762   4.001  0.1836 -0.0579 -0.8159
13407TIP3    H261713   5.906   6.720   4.041  0.1601  0.8101  0.0219
13408TIP3   OH261714   4.512   3.845   2.354 -0.5048  0.2687  0.6620
13408TIP3    H161715   4.491   3.785   2.425 -2.6575  0.6428  0.4058
13408TIP3    H261716   4.608   3.851   2.355 -0.4266 -0.5012  2.8647
13409TIP3   OH261717   5.255   4.740   0.680 -0.5064 -0.2359 -0.2723
13409TIP3    H161718   5.267   4.699   0.766 -0.1005 -1.5597 -0.9358
13409TIP3    H261719   5.223   4.669   0.624  2.0842 -0.2056 -1.9477
13410TIP3   OH261720   5.610   1.361  10.915  0.1425 -0.1201  0.2448
13410TIP3    H161721   5.696   1.355  10.957  0.4267  0.7247 -0.1824
13410TIP3    H261722   5.581   1.451  10.933 -2.6410 -1.5522  4.1109
13411TIP3   OH261723   5.801   2.718  12.680  0.5612 -0.2948  0.2792
13411TIP3    H161724   5.778   2.764  12.761 -1.4931 -0.7505  0.0132
13411TIP3    H261725   5.780   2.780  12.610  2.8265  0.2972  0.0677
13412TIP3   OH261726   0.356   4.634  11.256 -0.1709  0.7334 -0.0010
13412TIP3    H161727   0.275   4.651  11.303  0.2165  1.2078  0.5237
13412TIP3    H261728   0.337   4.560  11.199 -1.1543  1.2574 -0.3613
13413TIP3   OH261729   2.574   3.705  15.348  0.1285  0.1930  0.4213
13413TIP3    H161730   2.592   3.797  15.369  1.7578  0.1029 -0.3793
13413TIP3    H261731   2.505   3.708  15.282  0.3957  0.8615  0.1610
13414TIP3   OH261732   5.148   0.967   1.307  0.1450  0.3490  0.5250
13414TIP3    H161733   5.122   0.991   1.218 -0.8591 -0.0154  0.6960
13414TIP3    H261734   5.094   0.890   1.327  0.8106  0.0551  1.2198
13415TIP3   OH261735   4.493   2.426  12.813  0.4875 -0.4187  0.2701
13415TIP3    H161736   4.576   2.458  12.848  1.3131 -0.6659 -1.3408
13415TIP3    H261737   4.518   2.378  12.733 -1.1107 -1.3906  0.3160
13416TIP3   OH261738   4.815   4.406  15.812  0.0128 -0.4551 -0.2676
13416TIP3    H161739   4.791   4.355  15.889 -1.8213 -1.2198 -1.2759
13416TIP3    H261740   4.790   4.350  15.738 -0.4760  1.2266 -1.4218
13417TIP3   OH261741   4.566   3.730  12.666 -0.1084 -0.7035 -0.1804
13417TIP3    H161742   4.561   3.731  12.571  0.6532  1.0250 -0.2483
13417TIP3    H261743   4.659   3.717  12.685  0.0810  0.9096  0.2305
13418TIP3   OH261744   5.977   0.185  16.351 -0.0050  0.3464  0.1455
13418TIP3    H161745   6.065   0.152  16.337  0.0801  0.4442  0.4314
13418TIP3    H261746   5.959   0.165  16.444  0.1098  1.2443  0.3659
13419TIP3   OH261747   2.811   1.030   2.115 -0.0141  0.7089 -0.4984
13419TIP3    H161748   2.883   1.004   2.058 -0.4917  2.6233 -2.1098
13419TIP3    H261749   2.846   1.105   2.164 -0.2602  0.3423  0.2506
13420TIP3   OH261750   1.269   0.767  14.461 -0.5134 -0.2528  0.0828
13420TIP3    H161751   1.343   0.712  14.486  0.1580  0.2061 -0.8514
13420TIP3    H261752   1.197   0.705  14.448 -0.4732 -0.6514  1.5481
13421TIP3   OH261753   5.030   3.944  11.776  0.2368  0.9338  0.3941
13421TIP3    H161754   4.949   3.913  11.735  1.2902 -0.1751 -0.9614
13421TIP3    H261755   5.008   3.953  11.869 -0.5812 -2.5567  0.6720
13422TIP3   OH261756   6.298   5.267   2.323  0.1356 -0.2650 -0.1633
13422TIP3    H161757   6.382   5.296   2.359  0.5116 -0.8309 -0.5599
13422TIP3    H261758   6.320   5.227   2.239 -0.4710 -0.8528 -0.0548
13423TIP3   OH261759   2.843   3.871   0.427  0.1320 -0.2839 -0.3819
13423TIP3    H161760   2.775   3.805   0.440  0.1685 -0.7923 -2.3679
13423TIP3    H261761   2.925   3.822   0.429  0.3739  0.1366  0.7545
13424TIP3   OH261762   6.800   1.550   2.226 -0.4708 -0.1820 -0.6024
13424TIP3    H161763   6.746   1.476   2.196 -0.2925  0.0348 -1.4636
13424TIP3    H261764   6.757   1.627   2.189 -0.9129  0.2050  0.6587
13425TIP3   OH261765   6.564   0.019  16.749 -0.4500 -0.0550 -0.1011
13425TIP3    H161766   6.475  -0.013  16.765 -0.2531 -0.7189 -0.2692
13425TIP3    H261767   6.617  -0.022  16.818 -0.9118  3.7661  2.8344
13426TIP3   OH261768   3.414   1.430  13.675  0.0230 -0.2359 -0.0645
13426TIP3    H161769   3.473   1.415  13.601 -0.5770 -1.2355 -0.3702
13426TIP3    H261770   3.337   1.377  13.654 -0.3365 -0.1761  1.0698
13427TIP3   OH261771   2.986   0.890   4.181 -0.9023  0.0524  0.2530
13427TIP3    H161772   2.908   0.854   4.139  0.1836 -3.2956  0.7661
13427TIP3    H261773   3.013   0.822   4.244  2.7963  0.7013 -0.3909
13428TIP3   OH261774   0.152   6.041  15.728 -0.1726  0.2371  0.3045
13428TIP3    H161775   0.096   6.007  15.658  3.0551  0.4095 -2.6478
13428TIP3    H261776   0.139   6.135  15.726 -1.3064  0.1244  1.1809
13429TIP3   OH261777   2.983   2.430  17.014 -0.4768  0.2988 -0.2627
13429TIP3    H161778   2.897   2.456  17.049 -0.3978  0.6145 -0.2965
13429TIP3    H261779   3.031   2.399  17.091 -0.9467 -0.8010 -0.3925
13430TIP3   OH261780   6.682   1.949  15.466 -0.3008 -0.2235  0.4977
13430TIP3    H161781   6.733   1.873  15.439  1.4401  0.8248  0.6488
13430TIP3    H261782   6.658   1.992  15.384  0.7281  0.2827  0.4357
13431TIP3   OH261783   6.160   2.593  12.163 -0.0593 -0.4233 -0.0478
13431TIP3    H161784   6.160   2.640  12.246  1.0153  1.3685 -1.0151
13431TIP3    H261785   6.076   2.548  12.161 -2.0990  3.0599  0.0777
13432TIP3   OH261786   4.136   0.016   1.058  0.2777 -0.1010 -0.2161
13432TIP3    H161787   4.183  -0.056   1.101  0.2073 -1.2522 -1.9922
13432TIP3    H261788   4.188   0.037   0.981  2.0688  4.0038  1.7516
13433TIP3   OH261789   4.497   1.941  15.115 -0.1294 -0.3660 -0.0787
13433TIP3    H161790   4.590   1.936  15.094  0.0291 -0.0441  0.5104
13433TIP3    H261791   4.458   1.988  15.041  0.3358  0.3285  0.1094
13434TIP3   OH261792   0.718   4.902  11.119 -0.7598  0.0025  0.1795
13434TIP3    H161793   0.651   4.901  11.187 -0.3672  0.4516  0.5781
13434TIP3    H261794   0.723   4.994  11.092 -2.0245 -0.3948 -1.5698
13435TIP3   OH261795   2.546   1.518   3.037 -0.0014 -0.6017 -0.5877
13435TIP3    H161796   2.614   1.573   2.999  1.0992 -0.8882  0.8659
13435TIP3    H261797   2.464   1.552   3.001  0.8857 -0.1017 -2.1881
13436TIP3   OH261798   0.413   4.052   1.161  0.8706  0.2098 -0.2632
13436TIP3    H161799   0.354   4.091   1.226  1.1146  1.7639 -0.9423
13436TIP3    H261800   0.364   3.978   1.125 -0.0993  0.6221  0.1852
13437TIP3   OH261801   5.669   6.272   1.967 -0.1591 -0.5286  0.7347
13437TIP3    H161802   5.632   6.198   1.920 -1.5784  0.2528  0.5672
13437TIP3    H261803   5.702   6.330   1.899  0.0429 -0.5441  0.8185
13438TIP3   OH261804   4.586   6.459  14.987  0.4220 -0.8763 -0.0732
13438TIP3    H161805   4.526   6.456  15.062  0.2204  0.4415 -0.1485
13438TIP3    H261806   4.662   6.408  15.015 -0.1571 -1.4133  0.5546
13439TIP3   OH261807   0.921   2.758   3.836  0.3538  0.0114  0.2320
13439TIP3    H161808   0.889   2.727   3.921  0.9651 -1.0292  0.0978
13439TIP3    H261809   0.874   2.705   3.772 -2.1273  2.5544 -0.2784
13440TIP3   OH261810   1.129   5.196  10.926 -0.0784  0.1958 -0.5469
13440TIP3    H161811   1.194   5.132  10.957 -1.3553  0.0623  2.2053
13440TIP3    H261812   1.104   5.165  10.839  0.7881 -1.9417 -0.1158
13441TIP3   OH261813   4.005   1.031  15.388  0.2809  0.2754  0.5314
13441TIP3    H161814   4.013   0.941  15.356  1.5739  0.0577  1.4022
13441TIP3    H261815   4.001   1.085  15.309 -2.1772 -0.6278 -0.0436
13442TIP3   OH261816   3.522   5.229  12.576 -0.0960  0.4114 -0.2891
13442TIP3    H161817   3.512   5.190  12.489  0.4302  0.6582 -0.4691
13442TIP3    H261818   3.439   5.273  12.592 -0.6733 -0.7112 -0.1111
13443TIP3   OH261819   1.830   3.461  16.841  0.2475 -0.6896  0.3413
13443TIP3    H161820   1.810   3.370  16.818 -0.0590 -0.3213 -0.9368
13443TIP3    H261821   1.763   3.484  16.906 -0.6245 -0.9270 -0.4466
13444TIP3   OH261822   1.413   4.040  14.246 -0.4245 -0.1693  0.1720
13444TIP3    H161823   1.479   4.105  14.226  0.7036 -1.0324  0.9703
13444TIP3    H261824   1.456   3.979  14.306 -1.6493 -1.2733 -0.0155
13445TIP3   OH261825   2.555   1.297   3.938 -0.3566  0.3209  0.0894
13445TIP3    H161826   2.537   1.256   3.853  1.1181 -1.2008  0.4563
13445TIP3    H261827   2.640   1.340   3.927  1.0408 -1.8987  1.3795
13446TIP3   OH261828   3.303   1.266   0.863 -0.6275 -0.0236  0.2717
13446TIP3    H161829   3.311   1.255   0.958  0.4522 -1.3065  0.0522
13446TIP3    H261830   3.216   1.232   0.842  0.0464 -1.9912  0.5142
13447TIP3   OH261831   3.851   2.880  10.632 -0.1336 -0.3766 -0.2116
13447TIP3    H161832   3.894   2.951  10.680 -1.3888  2.4232 -2.8739
13447TIP3    H261833   3.759   2.888  10.655 -0.0313 -2.7545  1.2413
13448TIP3   OH261834   0.041   5.238   5.746 -0.1805  0.6698 -0.5028
13448TIP3    H161835   0.070   5.218   5.835 -1.1379  1.6340  0.0671
13448TIP3    H261836  -0.014   5.317   5.756 -0.6397  0.5636 -1.8877
13449TIP3   OH261837   1.153   5.391   2.876 -0.2917 -0.1552 -0.7611
13449TIP3    H161838   1.114   5.335   2.943  0.6273 -0.1431 -0.1945
13449TIP3    H261839   1.198   5.460   2.926  0.9295 -0.4875 -1.3645
13450TIP3   OH261840   5.050   2.815  13.755 -0.1069  0.9741  0.0292
13450TIP3    H161841   5.111   2.788  13.686  0.0191  0.6953  0.2455
13450TIP3    H261842   4.963   2.803  13.715 -0.0477  0.4262  0.0493
13451TIP3   OH261843   2.312   4.711   4.450 -0.1034  0.1469  0.2548
13451TIP3    H161844   2.384   4.772   4.462 -1.3072  2.0983 -1.8042
13451TIP3    H261845   2.309   4.693   4.356 -2.5836  0.5641  0.1712
13452TIP3   OH261846   4.174   4.987   2.156 -0.3552  0.2242 -0.3171
13452TIP3    H161847   4.218   4.902   2.157 -0.5716  0.1076 -0.5783
13452TIP3    H261848   4.180   5.019   2.246 -1.0571 -0.4692 -0.0162
13453TIP3   OH261849   4.928   2.165   5.847 -0.0839  0.0199  0.1463
13453TIP3    H161850   4.942   2.241   5.791 -1.4812 -1.4833 -2.4584
13453TIP3    H261851   4.839   2.175   5.880 -0.2259 -0.4002 -0.0996
13454TIP3   OH261852   6.602   4.789  14.183  0.1717  0.3596  0.4816
13454TIP3    H161853   6.575   4.880  14.197  1.0662  0.7718 -0.3310
13454TIP3    H261854   6.637   4.761  14.267 -0.9357  0.4580  0.9923
13455TIP3   OH261855   6.271   0.932   0.463 -0.3099  0.2505  0.2914
13455TIP3    H161856   6.346   0.988   0.441 -0.7369  1.3377  1.4633
13455TIP3    H261857   6.309   0.861   0.515  0.0368  0.3178  0.1346
13456TIP3   OH261858   0.166   1.844   2.073  0.6350 -0.1609  0.6832
13456TIP3    H161859   0.190   1.889   2.154  1.5058 -0.2852  0.5042
13456TIP3    H261860   0.250   1.830   2.028  0.5051 -2.6270  1.0743
13457TIP3   OH261861   2.075   3.631  15.451  0.0592  1.0076  0.0224
13457TIP3    H161862   2.143   3.565  15.464 -0.9509 -0.0079  0.2440
13457TIP3    H261863   2.122   3.707  15.417  1.0846 -0.2301 -1.4509
13458TIP3   OH261864   1.136   4.392  10.881 -0.0575  0.8010 -0.5529
13458TIP3    H161865   1.133   4.297  10.887  1.6214  0.7552  0.2249
13458TIP3    H261866   1.181   4.409  10.798 -1.8383  0.9889 -1.5344
13459TIP3   OH261867   2.697   2.229   3.379 -0.0810  0.3580  0.1316
13459TIP3    H161868   2.682   2.318   3.346 -0.9716 -0.5580 -2.1324
13459TIP3    H261869   2.615   2.205   3.421 -1.2832 -0.6467 -2.5367
13460TIP3   OH261870   0.812   1.623   5.322  0.1380  0.6555 -0.0053
13460TIP3    H161871   0.779   1.685   5.387 -0.2396  0.0266  0.4217
13460TIP3    H261872   0.760   1.544   5.336 -0.6074  0.8011 -1.7110
13461TIP3   OH261873   3.983   6.606  15.923 -0.1106  0.3874  0.0167
13461TIP3    H161874   3.964   6.556  15.843  1.1937 -1.5209  0.8423
13461TIP3    H261875   4.020   6.688  15.891 -1.2182  0.3876 -1.3606
13462TIP3   OH261876   0.558   2.565  15.808 -0.0332 -0.2608  0.1063
13462TIP3    H161877   0.505   2.489  15.830  1.4279 -1.0609  0.9919
13462TIP3    H261878   0.648   2.532  15.804  0.3416  0.8212 -2.4198
13463TIP3   OH261879   3.536   3.729  11.480  0.2482  0.2637 -0.2383
13463TIP3    H161880   3.537   3.703  11.388 -1.1549  1.7711 -0.7302
13463TIP3    H261881   3.448   3.763  11.495  0.4070 -0.0434  1.7088
13464TIP3   OH261882   2.721   0.004  11.551 -0.1242  0.4005  0.0041
13464TIP3    H161883   2.721  -0.002  11.455  0.6802 -0.4048  0.0336
13464TIP3    H261884   2.715  -0.087  11.581  1.2922  0.4896  0.6834
13465TIP3   OH261885   2.542   2.344   0.723 -0.5982 -0.0778  0.7368
13465TIP3    H161886   2.488   2.379   0.793  0.1641 -0.4804  1.5498
13465TIP3    H261887   2.489   2.356   0.644 -0.9606  1.5302  1.1773
13466TIP3   OH261888   0.070   6.025   3.583  0.4519  0.1414 -0.4457
13466TIP3    H161889   0.094   6.114   3.556  0.1629 -0.0128 -1.2351
13466TIP3    H261890   0.142   5.997   3.639  0.6803  0.7683 -0.4123
13467TIP3   OH261891   5.752   1.635   2.609 -0.4427  0.2188 -0.4177
13467TIP3    H161892   5.812   1.666   2.677 -1.3844  0.4804  0.3368
13467TIP3    H261893   5.687   1.584   2.657 -0.2701 -0.8988 -1.3477
13468TIP3   OH261894   0.695   1.370  12.521 -0.1494 -0.5050  0.2899
13468TIP3    H161895   0.715   1.412  12.438 -0.3445  0.3292  0.6468
13468TIP3    H261896   0.764   1.306  12.534  1.5064  1.2678  0.7898
13469TIP3   OH261897   4.098   4.342   3.370  0.3749 -0.0060 -0.1240
13469TIP3    H161898   4.009   4.310   3.382 -0.8970  3.3721  0.6814
13469TIP3    H261899   4.099   4.376   3.280  1.4685 -1.5909 -0.7466
13470TIP3   OH261900   5.581   4.427   6.606 -1.0238 -0.0683 -0.2666
13470TIP3    H161901   5.556   4.476   6.684 -0.0559 -1.4711  0.9826
13470TIP3    H261902   5.638   4.486   6.557  1.8549 -0.5577  2.2526
13471TIP3   OH261903   5.855   2.329  16.912  0.5189 -0.1261 -0.1127
13471TIP3    H161904   5.900   2.384  16.975 -0.8514  0.8576  0.0511
13471TIP3    H261905   5.800   2.389  16.862  0.9585 -0.9978 -1.7127
13472TIP3   OH261906   3.408   1.616   1.024  0.2509 -0.2690  0.3287
13472TIP3    H161907   3.434   1.628   0.932 -0.2956  0.2658  0.2336
13472TIP3    H261908   3.490   1.600   1.070  0.5439 -0.4272 -0.2360
13473TIP3   OH261909   1.492   0.590  13.672  0.1070 -0.0975  0.1150
13473TIP3    H161910   1.397   0.604  13.664  0.4781  1.9781 -1.2970
13473TIP3    H261911   1.525   0.672  13.709  1.6367  0.2063 -1.7810
13474TIP3   OH261912   5.775   2.058   3.171 -0.1119 -0.5489 -0.5851
13474TIP3    H161913   5.867   2.031   3.168  0.0527 -0.0155 -0.4721
13474TIP3    H261914   5.778   2.146   3.209 -0.5981 -0.1894 -1.3635
13475TIP3   OH261915   3.914   0.383   5.158 -0.3624 -0.5444  0.7610
13475TIP3    H161916   3.827   0.342   5.150 -0.0384 -1.0196 -0.6558
13475TIP3    H261917   3.911   0.456   5.096  1.1318 -2.2358 -1.4677
13476TIP3   OH261918   2.618   5.501  13.980 -0.2547 -0.0455  0.5303
13476TIP3    H161919   2.712   5.514  13.996 -0.4884 -0.8272  2.8031
13476TIP3    H261920   2.575   5.528  14.061 -1.7531 -2.3186  0.5885
13477TIP3   OH261921   5.207   2.191   6.290 -0.5449 -0.2517  0.1669
13477TIP3    H161922   5.158   2.273   6.282 -1.2071 -0.4655  1.7630
13477TIP3    H261923   5.163   2.132   6.229 -0.1627  0.5132 -0.8807
13478TIP3   OH261924   6.574   3.552  14.818  0.1501  0.3113 -0.2664
13478TIP3    H161925   6.566   3.645  14.841 -0.1288  0.4264 -0.8021
13478TIP3    H261926   6.489   3.529  14.780  0.2601 -0.1341 -0.2507
13479TIP3   OH261927   4.522   5.091   2.905 -0.2854  0.3303 -0.7015
13479TIP3    H161928   4.471   5.047   2.973 -1.4743  0.2772 -1.6068
13479TIP3    H261929   4.594   5.030   2.886 -0.1662  0.1737  0.2123
13480TIP3   OH261930   6.588   3.265   1.734 -0.1721 -0.2820 -0.3154
13480TIP3    H161931   6.528   3.192   1.715  1.5528 -1.7937 -0.2721
13480TIP3    H261932   6.661   3.251   1.673 -0.4718  2.3419 -1.3813
13481TIP3   OH261933   2.465   5.492   2.003  0.8080 -0.3603 -0.1184
13481TIP3    H161934   2.467   5.508   2.097  1.0643  2.0841 -0.4783
13481TIP3    H261935   2.372   5.495   1.981  0.7849 -0.3427 -0.0205
13482TIP3   OH261936   4.842   1.935  16.919 -0.4512  0.1500 -0.0069
13482TIP3    H161937   4.910   1.874  16.946 -1.4576 -0.0440  2.3566
13482TIP3    H261938   4.761   1.883  16.919 -1.0943  1.1080  0.5580
13483TIP3   OH261939   1.285   6.160  12.628 -0.0313 -0.2727  0.6751
13483TIP3    H161940   1.225   6.209  12.685  2.5043  2.0958  1.5210
13483TIP3    H261941   1.336   6.227  12.583  2.1250 -2.1210  0.1592
13484TIP3   OH261942   1.055   4.442   3.653  0.7979 -0.4679  0.1427
13484TIP3    H161943   1.007   4.384   3.713  0.9640 -0.3322  0.4108
13484TIP3    H261944   1.138   4.458   3.698  0.9733 -0.4616 -0.1822
13485TIP3   OH261945   1.688   5.848  11.410  0.8223 -0.8002  0.0222
13485TIP3    H161946   1.634   5.842  11.489  1.0841 -0.4000  0.2331
13485TIP3    H261947   1.628   5.879  11.343  0.8781  0.0199  0.3470
13486TIP3   OH261948   4.860   6.488  16.922 -0.2021  0.5673 -0.3586
13486TIP3    H161949   4.890   6.579  16.922 -1.3138  0.9526  0.2511
13486TIP3    H261950   4.892   6.453  17.006 -1.7846  1.1165  0.5115
13487TIP3   OH261951   1.503   0.673  14.582 -0.4456 -0.0740 -0.2088
13487TIP3    H161952   1.567   0.714  14.640  0.3670 -1.5012 -0.0297
13487TIP3    H261953   1.511   0.579  14.600 -2.4193 -0.3245 -0.3828
13488TIP3   OH261954   0.434   5.142   1.151  0.7287  0.3116  0.0284
13488TIP3    H161955   0.399   5.194   1.224 -1.2593 -0.1949 -0.4853
13488TIP3    H261956   0.436   5.052   1.185  0.1995  0.1375 -0.3827
13489TIP3   OH261957   6.525   3.261   4.119 -0.2034 -0.0052 -0.0222
13489TIP3    H161958   6.444   3.233   4.162 -0.3359 -0.8082 -0.7667
13489TIP3    H261959   6.583   3.186   4.125  0.3253  0.4019  0.0799
13490TIP3   OH261960   1.038   1.751   5.547  0.1937  1.0387 -0.0050
13490TIP3    H161961   1.013   1.811   5.617 -2.1451  1.0414 -0.7660
13490TIP3    H261962   0.962   1.747   5.489  0.7845 -1.5424 -0.7768
13491TIP3   OH261963   4.712   5.647   5.248 -0.0299 -0.7862  0.0604
13491TIP3    H161964   4.752   5.565   5.278  1.1953 -0.5787 -0.9378
13491TIP3    H261965   4.784   5.697   5.211 -0.8286  0.5975  0.2962
13492TIP3   OH261966   5.062   1.142  14.160  0.1224  0.1496  0.0312
13492TIP3    H161967   5.023   1.164  14.075  0.5494 -1.5550 -0.6594
13492TIP3    H261968   5.156   1.148  14.146  0.2823 -1.9305 -0.2383
13493TIP3   OH261969   2.890   3.427   5.343  0.1773  0.3844  0.1625
13493TIP3    H161970   2.920   3.415   5.433  1.3450 -0.4159 -0.3161
13493TIP3    H261971   2.858   3.517   5.341  1.8177  1.0193  0.9236
13494TIP3   OH261972   2.566   0.433   2.091  0.0686  0.1850  0.1104
13494TIP3    H161973   2.563   0.361   2.154 -0.4273 -0.1795 -0.3149
13494TIP3    H261974   2.507   0.499   2.126  1.6659  1.0542  1.2730
13495TIP3   OH261975   5.842   3.972   3.274  0.0371 -0.0837  0.2501
13495TIP3    H161976   5.850   4.066   3.259 -0.6931 -0.3833 -2.6949
13495TIP3    H261977   5.907   3.952   3.341 -0.6336  2.6677  1.8875
13496TIP3   OH261978   1.274   2.362  14.345  0.2756 -0.1588 -0.1276
13496TIP3    H161979   1.209   2.350  14.415  0.4398 -1.1096 -0.1369
13496TIP3    H261980   1.341   2.297  14.363 -0.3881 -1.4465 -2.0025
13497TIP3   OH261981   1.451   3.051  12.290  0.3270  0.1060  0.2338
13497TIP3    H161982   1.449   3.144  12.271  3.7698  0.2065 -0.2501
13497TIP3    H261983   1.522   3.040  12.353 -1.0757 -2.0583  1.6310
13498TIP3   OH261984   5.739   0.622  14.989 -0.1500  0.0057  0.2528
13498TIP3    H161985   5.652   0.613  14.949 -0.4992 -0.4267  1.0876
13498TIP3    H261986   5.797   0.570  14.933 -0.4841  0.0492 -0.1369
13499TIP3   OH261987   6.571   3.802  16.445  0.0295 -0.1368 -0.0613
13499TIP3    H161988   6.633   3.869  16.415  1.2867 -1.2296  0.0235
13499TIP3    H261989   6.582   3.801  16.540  0.7583 -1.1300 -0.1366
13500TIP3   OH261990   5.657   4.102   4.562 -0.5641 -0.2780 -0.4083
13500TIP3    H161991   5.609   4.173   4.518  1.4945  0.7250 -1.1500
13500TIP3    H261992   5.740   4.096   4.515 -0.6495 -3.2488 -0.3768
13501TIP3   OH261993   6.131   3.652  14.839  0.5906  0.1786  0.0862
13501TIP3    H161994   6.083   3.692  14.766  1.0649  1.1214  0.2699
13501TIP3    H261995   6.202   3.603  14.797  1.1439  1.0974 -0.1001
13502TIP3   OH261996   4.654   4.275  11.629 -0.5549 -0.1189  0.4335
13502TIP3    H161997   4.738   4.273  11.676  0.5700 -0.2818 -1.4931
13502TIP3    H261998   4.632   4.368  11.624 -1.6101 -0.1653  2.7215
13503TIP3   OH261999   1.946   1.088   0.731 -0.6064  0.0685  0.4352
13503TIP3    H162000   1.968   1.099   0.638  0.2981 -0.1576  0.6054
13503TIP3    H262001   1.855   1.058   0.731 -0.1916 -1.2881 -0.4632
13504TIP3   OH262002   5.114   3.563   3.789  0.5027 -0.1262  0.0192
13504TIP3    H162003   5.030   3.576   3.745  0.4155 -0.4463  0.0862
13504TIP3    H262004   5.095   3.498   3.857  0.3859  1.1666  1.2620
13505TIP3   OH262005   4.644   1.629  14.949  0.1722 -0.0465 -0.5416
13505TIP3    H162006   4.679   1.540  14.958  0.0713 -0.1877 -1.4727
13505TIP3    H262007   4.649   1.665  15.037 -1.3680 -1.5580  0.2348
13506TIP3   OH262008   6.364   5.499  14.850  0.2192  0.2350  0.1144
13506TIP3    H162009   6.301   5.541  14.791 -1.5409 -0.0117  1.7107
13506TIP3    H262010   6.404   5.430  14.797 -0.5683  0.6477 -1.0723
13507TIP3   OH262011   2.977   1.525   0.283 -0.4199  0.0688  0.5629
13507TIP3    H162012   2.976   1.492   0.193  0.5748  2.5184 -0.4516
13507TIP3    H262013   3.054   1.484   0.323 -0.3117 -0.3091 -0.0190
13508TIP3   OH262014   2.347   0.528  15.659 -0.4033  0.8079  0.0388
13508TIP3    H162015   2.418   0.559  15.602  0.9407  1.0373  1.7449
13508TIP3    H262016   2.366   0.568  15.744 -1.6413 -0.4799  0.9571
13509TIP3   OH262017   3.231   3.254   3.404  0.1427  0.0447 -0.2634
13509TIP3    H162018   3.250   3.185   3.467  1.8895  0.2658 -0.4861
13509TIP3    H262019   3.165   3.309   3.447  0.8178 -0.1749  1.1058
13510TIP3   OH262020   6.278   4.041  14.988  0.3554  0.3871  0.2014
13510TIP3    H162021   6.336   4.059  15.062  1.5956  2.4627 -1.1857
13510TIP3    H262022   6.270   4.124  14.942  0.9703 -1.1038 -2.9151
13511TIP3   OH262023   0.544   5.130  16.392  0.1045 -0.3107  0.2238
13511TIP3    H162024   0.555   5.224  16.376 -0.7877 -0.4654 -1.4654
13511TIP3    H262025   0.605   5.111  16.463  1.6469  1.1845 -0.6219
13512TIP3   OH262026   4.543   5.784   4.447 -0.2378  0.0377 -0.7295
13512TIP3    H162027   4.504   5.847   4.386 -0.1437 -0.7795 -1.6647
13512TIP3    H262028   4.472   5.759   4.505 -0.0987  1.5438  0.1274
13513TIP3   OH262029   2.638   3.177   1.455  0.1443  0.4113 -0.7981
13513TIP3    H162030   2.670   3.233   1.526  1.2092 -0.9170 -0.1813
13513TIP3    H262031   2.640   3.089   1.492 -4.7869  0.1395 -0.5105
13514TIP3   OH262032   1.170   2.559  17.128 -0.0970 -0.5290  0.1553
13514TIP3    H162033   1.216   2.509  17.195 -0.3932 -0.6734  0.2566
13514TIP3    H262034   1.209   2.530  17.045 -1.2330 -2.0291  0.0879
13515TIP3   OH262035   4.087   3.974   5.225  0.5855  0.9149  0.5121
13515TIP3    H162036   4.007   3.963   5.277  0.4728  1.0470  0.3669
13515TIP3    H262037   4.153   4.004   5.288  1.2972 -1.8973  1.2579
13516TIP3   OH262038   5.449   6.491   3.903  1.2957  1.0039  0.4299
13516TIP3    H162039   5.435   6.582   3.931 -0.6532  1.2691 -1.1893
13516TIP3    H262040   5.371   6.469   3.852  0.5381 -2.4213  2.7424
13517TIP3   OH262041   2.094   5.316   5.241  0.5554  0.1691 -0.4842
13517TIP3    H162042   2.081   5.228   5.278 -0.9544  0.2906 -0.6695
13517TIP3    H262043   2.109   5.372   5.317 -1.3915  0.2210 -0.0778
13518TIP3   OH262044   6.095   2.057   1.979 -0.5820 -0.5500  0.3173
13518TIP3    H162045   6.039   2.094   1.911 -0.0384  1.1044  0.7122
13518TIP3    H262046   6.181   2.096   1.963  0.3486 -2.5942  0.0727
13519TIP3   OH262047   3.712   5.929  16.025  0.0540 -0.2937  0.0619
13519TIP3    H162048   3.803   5.925  15.995 -0.2884 -0.5921 -0.9909
13519TIP3    H262049   3.707   6.010  16.076  1.1531 -0.7937  1.0064
13520TIP3   OH262050   4.768   1.621   2.615 -0.2721 -0.2012 -0.2740
13520TIP3    H162051   4.806   1.670   2.542  0.1481 -0.7876 -0.4572
13520TIP3    H262052   4.676   1.647   2.616 -0.6826 -1.3807 -2.0553
13521TIP3   OH262053   2.784   4.974   3.688  0.0286  0.2520 -0.6971
13521TIP3    H162054   2.831   5.028   3.624 -1.0238 -0.2549 -1.9367
13521TIP3    H262055   2.745   5.038   3.748  1.3540  0.7192 -0.2985
13522TIP3   OH262056   0.710   0.151  14.133 -0.1712 -0.1976 -0.5954
13522TIP3    H162057   0.715   0.077  14.193  0.9777 -0.2573 -0.7409
13522TIP3    H262058   0.789   0.143  14.078 -1.7080 -0.7669 -2.8529
13523TIP3   OH262059   2.127   6.805  14.011  0.0985 -0.6925  0.4291
13523TIP3    H162060   2.093   6.758  13.935 -0.5725  1.0620 -0.4244
13523TIP3    H262061   2.053   6.859  14.040  0.5484 -0.8579  1.9545
13524TIP3   OH262062   0.349   3.765   2.580  0.1786  0.2394 -0.0916
13524TIP3    H162063   0.386   3.824   2.645 -0.1118  0.6805 -0.3210
13524TIP3    H262064   0.279   3.718   2.626 -1.9764  2.5774 -0.7685
13525TIP3   OH262065   5.518   5.210   2.824 -0.1316  0.2680 -0.0849
13525TIP3    H162066   5.612   5.211   2.806 -0.3809  0.1359 -1.5359
13525TIP3    H262067   5.505   5.134   2.881  0.6849  0.5238  0.4565
13526TIP3   OH262068   0.886   0.310   6.598 -0.6346 -1.0477  0.6525
13526TIP3    H162069   0.798   0.314   6.636 -0.8857 -0.4967  0.0172
13526TIP3    H262070   0.887   0.228   6.549 -1.6363  0.0785 -1.3564
13527TIP3   OH262071   0.135   1.309   1.374 -0.8280  0.0423 -0.6361
13527TIP3    H162072   0.068   1.250   1.408 -0.7415 -0.6325 -1.6107
13527TIP3    H262073   0.171   1.352   1.452 -0.1223 -1.9949  0.2109
13528TIP3   OH262074   0.255   1.420   5.368 -0.6504 -0.1522 -0.9267
13528TIP3    H162075   0.248   1.462   5.283  2.0182 -1.7972 -2.1070
13528TIP3    H262076   0.347   1.433   5.394 -1.1934 -0.3968  1.3258
13529TIP3   OH262077   1.917   4.359   0.093 -0.0816  0.0996  0.3952
13529TIP3    H162078   1.977   4.384   0.163 -1.1468  1.1883  0.9728
13529TIP3    H262079   1.905   4.439   0.041 -1.5943  0.1446  0.7562
13530TIP3   OH262080   0.166   0.702   3.434  0.2830  0.4524 -0.2131
13530TIP3    H162081   0.206   0.706   3.521 -1.0230  2.3116  0.3591
13530TIP3    H262082   0.205   0.625   3.393  2.2902  0.5615  1.3407
13531TIP3   OH262083   0.979   1.496   2.136  0.5087  0.0550  0.1738
13531TIP3    H162084   0.964   1.513   2.229  0.8489  0.7905  0.1072
13531TIP3    H262085   1.074   1.498   2.127  0.4518  1.7683 -0.4747
13532TIP3   OH262086   5.639   4.918   2.084  0.2295 -0.0354  0.1393
13532TIP3    H162087   5.598   4.852   2.140  0.4715  0.9020  1.4648
13532TIP3    H262088   5.631   5.000   2.133 -1.2739  1.2381 -2.0401
13533TIP3   OH262089   4.499   1.980   2.840 -0.7607  0.1512 -0.1935
13533TIP3    H162090   4.471   2.010   2.753  0.5741 -0.0576 -0.7157
13533TIP3    H262091   4.428   2.006   2.898 -1.4431  0.7630 -1.2639
13534TIP3   OH262092   0.071   6.636  14.947 -0.0315  0.7812  0.1607
13534TIP3    H162093   0.057   6.688  15.027 -0.7590 -1.1243  1.3433
13534TIP3    H262094  -0.015   6.597  14.929  0.3606  0.4354 -1.0274
13535TIP3   OH262095   5.936   0.967  12.557  0.4242  0.0870 -0.4078
13535TIP3    H162096   5.962   0.879  12.532  1.1281  0.1915 -0.0667
13535TIP3    H262097   5.898   0.958  12.645  1.3133  0.2368  0.0078
13536TIP3   OH262098   1.984   4.426  14.740  0.0194  0.1387 -0.6222
13536TIP3    H162099   1.970   4.505  14.688 -2.4539  0.4844  0.4247
13536TIP3    H262100   1.946   4.447  14.825  1.3275 -1.4404  0.4033
13537TIP3   OH262101   6.407   5.252  16.887  0.4372 -0.2445  0.1213
13537TIP3    H162102   6.368   5.179  16.840 -1.1331  1.0023 -0.6089
13537TIP3    H262103   6.340   5.279  16.950 -0.1601  2.1560 -1.3882
13538TIP3   OH262104   6.039   4.929   1.880 -0.3691 -0.1255  0.1437
13538TIP3    H162105   6.034   4.927   1.976  0.4655  0.0683  0.2051
13538TIP3    H262106   6.085   5.011   1.861  1.2038 -1.0695 -0.3136
13539TIP3   OH262107   0.734   5.256   4.912 -0.0934  0.3608 -0.4078
13539TIP3    H162108   0.781   5.323   4.863  0.4116  0.7528  0.5800
13539TIP3    H262109   0.668   5.304   4.961 -0.8793 -0.0763 -1.0055
13540TIP3   OH262110   6.756   1.629  14.350 -0.1679 -0.3088 -0.1551
13540TIP3    H162111   6.806   1.705  14.381 -1.3986  0.0171  1.1214
13540TIP3    H262112   6.762   1.635  14.255  0.4994  0.8838 -0.0706
13541TIP3   OH262113   5.313   1.901   5.410  0.2385 -0.3820 -0.2323
13541TIP3    H162114   5.293   1.991   5.384  1.2303 -0.6970 -2.3311
13541TIP3    H262115   5.405   1.902   5.436 -0.1015 -0.5622  1.0386
13542TIP3   OH262116   6.412   1.107  14.634  0.1707  0.1995 -0.4998
13542TIP3    H162117   6.442   1.186  14.589  2.4983 -1.6958 -2.5383
13542TIP3    H262118   6.468   1.100  14.711  0.1729  0.3683 -0.4864
13543TIP3   OH262119   5.424   6.230  16.932 -0.4186 -0.6908 -0.3118
13543TIP3    H162120   5.352   6.236  16.870 -1.5790 -2.9222  0.7164
13543TIP3    H262121   5.401   6.291  17.002  0.1100  0.6370 -1.2470
13544TIP3   OH262122   2.563   5.377   3.600 -0.0485 -0.3726  0.0356
13544TIP3    H162123   2.548   5.285   3.621  1.6361 -1.0996 -1.6109
13544TIP3    H262124   2.607   5.413   3.677 -0.3733 -1.0325  0.5360
13545TIP3   OH262125   6.065   0.913  12.206  0.1731  0.7981 -0.5708
13545TIP3    H162126   5.974   0.941  12.193 -0.5534 -0.4900  1.3810
13545TIP3    H262127   6.091   0.955  12.288  1.9616  2.4594 -1.8772
13546TIP3   OH262128   4.996   4.252  15.514 -0.1320 -0.3892 -0.0721
13546TIP3    H162129   5.007   4.280  15.605  1.1841  3.2449 -1.1629
13546TIP3    H262130   4.949   4.324  15.472 -3.1699 -3.1633 -1.8072
13547TIP3   OH262131   2.095   1.107  15.931 -0.0843  0.1060 -0.3541
13547TIP3    H162132   2.120   1.020  15.962  0.5810  0.7410  0.9515
13547TIP3    H262133   2.030   1.090  15.863 -0.7334 -1.3804  0.5823
13548TIP3   OH262134   3.995   1.055  14.503 -0.5386 -0.3673  0.4559
13548TIP3    H162135   3.955   1.053  14.416 -0.0614  2.6416  0.0919
13548TIP3    H262136   4.088   1.045  14.486 -0.6161 -2.4263  0.9220
13549TIP3   OH262137   2.201   4.391  15.971 -0.6116 -0.3971  0.1088
13549TIP3    H162138   2.278   4.405  16.027 -0.3312 -0.6670 -0.2081
13549TIP3    H262139   2.160   4.477  15.965  0.6079  0.1405 -1.0937
13550TIP3   OH262140   3.535   1.612  10.902 -0.0971  0.5349  0.3432
13550TIP3    H162141   3.535   1.594  10.809  0.3408 -1.8024  0.7548
13550TIP3    H262142   3.627   1.625  10.925 -0.1973  1.0351  0.4927
13551TIP3   OH262143   4.330   6.731  13.416  0.2731  0.6711  0.2733
13551TIP3    H162144   4.273   6.684  13.355  1.4909  0.5416 -0.8151
13551TIP3    H262145   4.275   6.748  13.492 -0.9331 -0.2782 -0.3474
13552TIP3   OH262146   3.757   0.161  13.214 -0.4044 -0.8481  0.6944
13552TIP3    H162147   3.770   0.082  13.162 -2.1948 -1.8447  1.6794
13552TIP3    H262148   3.814   0.226  13.173 -0.1473 -2.1759 -1.1667
13553TIP3   OH262149   4.910   0.776   2.891 -0.0804 -0.1384 -0.3722
13553TIP3    H162150   4.857   0.701   2.918  2.0875 -1.2655  1.0518
13553TIP3    H262151   4.906   0.837   2.965  0.0284  0.0889 -0.5512
13554TIP3   OH262152   4.277   2.424  13.938  0.1540  0.2053 -0.0370
13554TIP3    H162153   4.206   2.361  13.942 -1.5114  2.0625  1.5870
13554TIP3    H262154   4.297   2.445  14.029  3.3711 -0.7741 -0.3679
13555TIP3   OH262155   2.142   1.387   4.183 -0.4524  0.1060  0.5517
13555TIP3    H162156   2.066   1.345   4.143 -0.4347  0.7552 -0.2049
13555TIP3    H262157   2.207   1.317   4.193 -0.8308 -0.2704  0.3902
13556TIP3   OH262158   3.242   5.152   4.006  0.1115 -0.5280  0.3813
13556TIP3    H162159   3.163   5.127   3.958  0.9309 -1.6077 -0.4397
13556TIP3    H262160   3.232   5.112   4.092  0.1976 -1.4888 -0.0462
13557TIP3   OH262161   0.341   1.460   2.823  0.2156 -0.4487 -0.1213
13557TIP3    H162162   0.375   1.525   2.884 -0.1304 -0.2977 -0.0823
13557TIP3    H262163   0.337   1.506   2.738  1.2423 -0.8353 -0.3885
13558TIP3   OH262164   1.481   2.960   2.740 -1.0125 -0.0731  0.4890
13558TIP3    H162165   1.491   2.873   2.780  0.6359  0.2453  0.8500
13558TIP3    H262166   1.531   3.018   2.798 -0.2042  0.7285 -0.9553
13559TIP3   OH262167   5.193   3.941   2.553  0.3516  0.0489  0.3242
13559TIP3    H162168   5.121   3.994   2.588  0.3708  0.8226 -0.7932
13559TIP3    H262169   5.244   3.916   2.631 -1.1163 -0.5393  1.1437
13560TIP3   OH262170   4.572   6.018  15.239  0.1006  0.2302 -0.2659
13560TIP3    H162171   4.631   5.985  15.307 -0.2409  0.1720  0.0030
13560TIP3    H262172   4.624   6.014  15.159 -0.1975 -1.7232 -0.3997
13561TIP3   OH262173   4.555   4.537   1.160 -0.0368  0.0129 -0.3349
13561TIP3    H162174   4.632   4.503   1.115  0.4315 -0.9773  1.1507
13561TIP3    H262175   4.512   4.459   1.196  0.2591  0.8135  1.9133
13562TIP3   OH262176   0.678   2.398   2.410  0.4301 -0.5191 -0.2436
13562TIP3    H162177   0.660   2.445   2.491 -1.3308 -0.4823 -0.6260
13562TIP3    H262178   0.702   2.310   2.438  1.0577 -0.1677  0.3504
13563TIP3   OH262179   5.249   3.602   1.537 -0.3668  0.2469  0.4801
13563TIP3    H162180   5.162   3.634   1.512 -0.4262 -0.8354 -0.7798
13563TIP3    H262181   5.250   3.510   1.511  1.3657  0.3857 -0.0924
13564TIP3   OH262182   2.347   5.024  12.740 -0.5477 -0.0660  0.4625
13564TIP3    H162183   2.384   4.943  12.704  0.4956  0.2508  0.7945
13564TIP3    H262184   2.329   5.004  12.831  1.6887  0.6653  1.1281
13565TIP3   OH262185   4.011   3.908  13.609 -0.1876  0.1936  0.0828
13565TIP3    H162186   4.070   3.976  13.642 -0.5399  0.7321 -0.3920
13565TIP3    H262187   3.946   3.955  13.557 -0.5443 -0.4876 -0.0982
13566TIP3   OH262188   2.712   3.949   2.420 -0.1373  0.1574 -0.1473
13566TIP3    H162189   2.661   3.873   2.448  0.5174  0.1601  1.1480
13566TIP3    H262190   2.779   3.958   2.488  0.4518  1.2477 -0.8571
13567TIP3   OH262191   6.208   3.654  15.941 -0.0120 -0.3709 -0.0952
13567TIP3    H162192   6.254   3.723  15.989  3.0112 -0.5741 -2.3765
13567TIP3    H262193   6.235   3.573  15.985  2.6262 -0.5453 -1.7783
13568TIP3   OH262194   4.332   5.387  13.344 -0.2899 -0.0863  0.0194
13568TIP3    H162195   4.349   5.433  13.262 -2.0121 -2.2165 -1.6696
13568TIP3    H262196   4.255   5.430  13.380  0.0813  0.4383  0.2004
13569TIP3   OH262197   4.983   4.790  12.563 -0.1867 -0.2665 -0.0548
13569TIP3    H162198   5.054   4.797  12.627 -0.1138 -1.2258 -0.0174
13569TIP3    H262199   4.903   4.787  12.615 -0.1467 -0.7357 -0.0132
13570TIP3   OH262200   3.592   1.672   3.543 -0.2312 -0.1614  0.5115
13570TIP3    H162201   3.593   1.767   3.540 -0.4894 -0.1639 -2.2607
13570TIP3    H262202   3.555   1.645   3.459 -1.2659 -2.7240  1.6605
13571TIP3   OH262203   1.057   1.143  15.755  0.0661 -0.3090  0.0566
13571TIP3    H162204   1.124   1.075  15.760  1.0068  0.5680 -0.3926
13571TIP3    H262205   1.049   1.176  15.845  1.1266  0.4137 -0.1002
13572TIP3   OH262206   3.745   0.881   0.602 -0.0493  0.6543 -0.0947
13572TIP3    H162207   3.717   0.820   0.670  0.1940  0.0590 -0.5181
13572TIP3    H262208   3.841   0.877   0.605  0.0093  1.8731  0.6289
13573TIP3   OH262209   1.614   2.343  15.186 -0.0100  0.4832  0.0083
13573TIP3    H162210   1.596   2.364  15.094  1.3073 -0.9655 -0.6224
13573TIP3    H262211   1.579   2.255  15.198  1.9816 -0.3621  0.1373
13574TIP3   OH262212   4.879   3.721  15.875 -0.1453 -0.1489 -0.8270
13574TIP3    H162213   4.974   3.706  15.879 -0.0731  0.0864 -1.5663
13574TIP3    H262214   4.864   3.755  15.787 -0.9913 -0.6415 -0.8740
13575TIP3   OH262215   6.160   0.386   3.036 -0.6906  0.4526  0.1830
13575TIP3    H162216   6.075   0.343   3.048 -1.3107  1.6013  0.0829
13575TIP3    H262217   6.152   0.428   2.950  0.0316  0.4678  0.1250
13576TIP3   OH262218   3.280   0.623  13.379  0.4112  0.1510 -0.4686
13576TIP3    H162219   3.356   0.670  13.342  1.2085 -1.4564 -0.9532
13576TIP3    H262220   3.302   0.612  13.472  0.6789 -0.1282 -0.5633
13577TIP3   OH262221   5.870   4.226   1.403 -0.1853 -0.0665  0.3774
13577TIP3    H162222   5.861   4.256   1.494  1.2895  0.5427  0.3638
13577TIP3    H262223   5.953   4.178   1.402  0.0774  0.3716 -0.7474
13578TIP3   OH262224   4.935   5.441   1.462  0.0664  0.1569 -0.4699
13578TIP3    H162225   4.931   5.537   1.471  1.8500  0.2004  0.2519
13578TIP3    H262226   4.877   5.409   1.531  0.1425  0.7306 -0.1228
13579TIP3   OH262227   2.789   2.704  12.701  0.5528  0.2174 -0.1848
13579TIP3    H162228   2.718   2.641  12.698  0.1240  0.6533  0.4513
13579TIP3    H262229   2.777   2.759  12.624  0.8896 -0.4220 -0.7044
13580TIP3   OH262230   5.715   0.573  14.272  0.5314  0.1875  0.1903
13580TIP3    H162231   5.694   0.663  14.247  3.6125  0.5985 -1.3132
13580TIP3    H262232   5.793   0.581  14.327  0.1727 -1.5240  1.0178
13581TIP3   OH262233   3.093   3.725   6.012 -0.3152 -0.4013  0.3419
13581TIP3    H162234   3.063   3.784   6.082  1.1272  0.4010  0.3385
13581TIP3    H262235   3.156   3.667   6.056  3.9355  2.7675 -0.8260
13582TIP3   OH262236   2.654   1.028   0.702  0.2403 -0.3004  0.0770
13582TIP3    H162237   2.566   0.999   0.724 -0.4597  0.1278 -1.9792
13582TIP3    H262238   2.650   1.123   0.703  0.7979 -0.2727  0.3710
13583TIP3   OH262239   0.827   6.639   3.742  0.0713 -0.3232  0.0909
13583TIP3    H162240   0.802   6.616   3.831  3.1083 -1.4791  0.7506
13583TIP3    H262241   0.887   6.570   3.714 -0.7476  0.0030 -2.8963
13584TIP3   OH262242   1.162   4.028  11.230  0.3410  0.1094  0.1582
13584TIP3    H162243   1.129   4.034  11.320  0.0430  0.8168  0.0049
13584TIP3    H262244   1.092   4.065  11.176  0.9217  0.5973 -0.2742
13585TIP3   OH262245   0.458   6.270   5.959  0.0633 -0.8087 -0.3901
13585TIP3    H162246   0.514   6.273   5.881 -0.1633 -0.1350 -0.5332
13585TIP3    H262247   0.463   6.358   5.995 -0.1542 -1.0076  0.1374
13586TIP3   OH262248   3.803   1.554   3.981  0.0143  0.0830 -0.5526
13586TIP3    H162249   3.869   1.490   4.006  0.8959  1.2256  0.1244
13586TIP3    H262250   3.825   1.579   3.891  0.6879  0.6550 -0.2394
13587TIP3   OH262251   1.696   6.505  13.359  0.1538 -0.0613  0.2672
13587TIP3    H162252   1.662   6.578  13.308 -1.5306  0.1704  1.6331
13587TIP3    H262253   1.632   6.492  13.429  0.1450 -3.1513 -0.1779
13588TIP3   OH262254   3.964   4.282  16.859  0.1799 -0.1408 -0.1880
13588TIP3    H162255   3.896   4.325  16.807 -0.9674 -0.3646  1.0666
13588TIP3    H262256   4.000   4.352  16.913 -1.5681 -0.6206  1.7262
13589TIP3   OH262257   1.660   1.995  12.367  0.0239 -0.6869 -0.0492
13589TIP3    H162258   1.570   2.022  12.347 -0.5951 -0.3185  2.7729
13589TIP3    H262259   1.658   1.899  12.362 -0.3328 -0.6497 -0.7152
13590TIP3   OH262260   4.346   0.293  12.039 -0.1217 -0.6279 -0.3810
13590TIP3    H162261   4.254   0.312  12.022  0.0756 -0.3942 -1.2802
13590TIP3    H262262   4.387   0.295  11.952  0.5326 -1.8266 -0.1192
13591TIP3   OH262263   1.873   6.421   0.849  0.0391  0.5042 -0.3160
13591TIP3    H162264   1.951   6.475   0.866  0.0612  0.4734 -0.3181
13591TIP3    H262265   1.904   6.331   0.861  0.0047  0.4915 -0.3214
13592TIP3   OH262266   5.841   1.090  12.778 -0.4003  0.4583  0.6149
13592TIP3    H162267   5.858   1.181  12.754  0.8191  0.0532 -0.1481
13592TIP3    H262268   5.747   1.087  12.796 -0.7810  1.5167 -0.9700
13593TIP3   OH262269   2.157   4.645  13.984 -0.3432 -0.2237  0.1650
13593TIP3    H162270   2.218   4.718  13.976  1.4302 -1.8173 -3.9865
13593TIP3    H262271   2.072   4.686  14.003  0.4922  3.0176 -2.2310
13594TIP3   OH262272   3.107   1.127  12.775 -0.5526 -0.1503 -0.2132
13594TIP3    H162273   3.180   1.118  12.837 -1.3603 -0.6407  0.6919
13594TIP3    H262274   3.069   1.039  12.770 -3.5648  0.8146  2.4945
13595TIP3   OH262275   1.912   0.392   4.531 -0.1446  0.1229  0.0810
13595TIP3    H162276   1.848   0.323   4.548 -1.1245  1.3873  1.7678
13595TIP3    H262277   1.920   0.438   4.614  1.7126  1.0593 -0.5625
13596TIP3   OH262278   5.504   6.138   1.122  0.0497 -0.6154  0.2401
13596TIP3    H162279   5.571   6.165   1.185 -0.8979 -2.8385  2.3794
13596TIP3    H262280   5.431   6.198   1.139  0.9049  0.8789 -1.0924
13597TIP3   OH262281   6.554   6.598  14.487 -0.0478 -0.6068  0.1358
13597TIP3    H162282   6.563   6.553  14.403  1.7354  1.9853 -1.1902
13597TIP3    H262283   6.643   6.613  14.516 -0.6284 -0.3060  1.8963
13598TIP3   OH262284   0.540   2.396   3.515 -0.2057 -0.1487  0.1495
13598TIP3    H162285   0.479   2.322   3.511 -0.1261 -0.1680 -1.8813
13598TIP3    H262286   0.484   2.473   3.510 -0.1330 -0.1696 -2.6517
13599TIP3   OH262287   0.231   5.132  13.840 -0.0045 -0.1289 -0.3345
13599TIP3    H162288   0.319   5.170  13.838  0.2578 -0.6813 -2.3810
13599TIP3    H262289   0.206   5.126  13.748 -1.9581 -0.5417  0.1806
13600TIP3   OH262290   1.517   2.734  11.927  0.2706 -0.2262 -0.0696
13600TIP3    H162291   1.607   2.715  11.899  0.7968 -0.4182  1.6757
13600TIP3    H262292   1.463   2.673  11.876  1.1414 -0.2608 -0.9787
13601TIP3   OH262293   4.419   2.399  11.842 -0.0322  0.3749  0.3652
13601TIP3    H162294   4.472   2.477  11.828  1.2958 -0.6884 -0.8671
13601TIP3    H262295   4.432   2.377  11.934  0.1894  1.1706  0.5305
13602TIP3   OH262296   6.099   3.120  11.691 -0.6624 -0.1609  0.0965
13602TIP3    H162297   6.015   3.144  11.651  0.2670  0.1857 -1.7057
13602TIP3    H262298   6.164   3.175  11.648  0.8495 -2.2774 -0.4925
13603TIP3   OH262299   5.836   5.447   3.003 -0.8218 -0.1295 -0.4111
13603TIP3    H162300   5.848   5.355   3.023 -1.5304  0.0059  0.6890
13603TIP3    H262301   5.746   5.466   3.028 -0.8681  0.7331 -1.1609
13604TIP3   OH262302   0.805   6.564  14.387 -0.1993 -0.0534 -0.3916
13604TIP3    H162303   0.812   6.514  14.468  1.0527  0.7391  0.0130
13604TIP3    H262304   0.814   6.499  14.317 -0.8962 -0.6880  0.0979
13605TIP3   OH262305   1.261   3.143  12.763 -0.5698  0.3965 -0.3840
13605TIP3    H162306   1.292   3.121  12.675 -0.1677 -0.8127  0.0350
13605TIP3    H262307   1.338   3.179  12.807 -0.8284  1.2136 -0.5842
13606TIP3   OH262308   1.937   1.067   5.501 -0.6872  0.4820 -0.1725
13606TIP3    H162309   1.956   1.161   5.490  3.1838 -0.2671 -1.5963
13606TIP3    H262310   1.905   1.039   5.415  0.4674  0.1247 -0.5069
13607TIP3   OH262311   5.352   4.108   4.116  0.4833  0.2683  0.0001
13607TIP3    H162312   5.447   4.115   4.117  0.4116  1.4949  0.1511
13607TIP3    H262313   5.324   4.175   4.054 -0.2037 -1.6024 -1.8385
13608TIP3   OH262314   1.469   5.795  11.613 -0.5970 -0.1379 -0.5386
13608TIP3    H162315   1.474   5.822  11.704 -0.8059 -1.3412 -0.1484
13608TIP3    H262316   1.377   5.807  11.588 -0.4035  0.8472 -0.8191
13609TIP3   OH262317   6.662   6.412  11.878 -0.1624  0.2211  0.0011
13609TIP3    H162318   6.703   6.479  11.823  1.6373 -0.1461  0.8451
13609TIP3    H262319   6.647   6.455  11.962 -0.9173  0.1511 -0.0884
13610TIP3   OH262320   5.093   1.910  14.451  0.9527  0.6298  0.4091
13610TIP3    H162321   5.178   1.878  14.482  0.6695 -0.7054 -0.1145
13610TIP3    H262322   5.113   1.990  14.403  1.8488  0.6072  0.7291
13611TIP3   OH262323   0.183   2.450   6.346  0.5351 -0.1131  0.1228
13611TIP3    H162324   0.179   2.456   6.250  2.1327  1.5059  0.0928
13611TIP3    H262325   0.276   2.463   6.367  0.2251 -0.4849  1.8936
13612TIP3   OH262326   3.995   3.362   2.019  0.0098 -0.1364 -0.2731
13612TIP3    H162327   4.016   3.286   2.073  0.9036  0.7808  0.6940
13612TIP3    H262328   3.954   3.324   1.941  0.5383 -1.6179  0.1280
13613TIP3   OH262329   2.866   2.362  13.548  0.6183  0.0050 -0.5689
13613TIP3    H162330   2.773   2.383  13.549  0.2963 -1.2562  0.9733
13613TIP3    H262331   2.910   2.446  13.560 -0.2629  0.7012 -1.9844
13614TIP3   OH262332   5.991   6.105  14.730  0.1404  0.4720 -0.4749
13614TIP3    H162333   6.018   6.125  14.820 -1.2989 -0.6636  0.2531
13614TIP3    H262334   6.072   6.110  14.679  1.0721  0.6659  0.9568
13615TIP3   OH262335   4.481   6.189  14.275  1.0713 -0.3569  0.0219
13615TIP3    H162336   4.497   6.170  14.368  0.9185 -1.5081 -0.1809
13615TIP3    H262337   4.495   6.106  14.230 -0.9986 -0.3650 -0.7186
13616TIP3   OH262338   0.514   5.922  13.575 -0.0688  0.0692 -0.0371
13616TIP3    H162339   0.498   5.872  13.655 -1.1835  1.3502  0.5878
13616TIP3    H262340   0.496   5.860  13.504  0.4614 -0.9473  0.6904
13617TIP3   OH262341   0.550   0.313   3.539 -0.1415 -0.1892  0.3025
13617TIP3    H162342   0.633   0.274   3.566  0.0401  0.0440  0.0857
13617TIP3    H262343   0.519   0.360   3.616  1.6188  2.6346 -0.5399
13618TIP3   OH262344   3.096   6.131  15.398  0.1297  0.8281 -0.3279
13618TIP3    H162345   3.136   6.130  15.311 -1.1233 -1.4616 -0.9565
13618TIP3    H262346   3.170   6.137  15.459  1.1096  1.1085 -1.5187
13619TIP3   OH262347   0.718   4.700  11.788 -0.6098  0.6326 -0.2793
13619TIP3    H162348   0.663   4.625  11.768 -0.1251 -0.5627  2.4673
13619TIP3    H262349   0.759   4.723  11.704 -1.9965 -1.1234 -1.5085
13620TIP3   OH262350   1.341   0.437   5.720 -0.4399  0.8758 -0.4196
13620TIP3    H162351   1.392   0.424   5.641 -1.1320 -0.5282 -0.6700
13620TIP3    H262352   1.385   0.508   5.766  0.9239  0.6121 -1.2680
13621TIP3   OH262353   5.745   0.628   2.101 -0.3673 -0.7648  0.7337
13621TIP3    H162354   5.765   0.679   2.022 -2.7498  0.1055  0.6091
13621TIP3    H262355   5.650   0.636   2.111 -0.4058 -2.7052  2.4596
13622TIP3   OH262356   3.288   5.491   3.354 -0.2047 -0.4838  0.0815
13622TIP3    H162357   3.257   5.401   3.366 -1.0982 -0.3404 -0.9831
13622TIP3    H262358   3.310   5.497   3.261 -3.6406  1.3541 -0.7860
13623TIP3   OH262359   6.582   6.204  17.227 -0.3011 -0.1038 -0.0121
13623TIP3    H162360   6.500   6.214  17.275 -0.5343 -0.3958 -0.3537
13623TIP3    H262361   6.576   6.266  17.155  0.5152  1.1507  0.9395
13624TIP3   OH262362   3.985   3.627   1.998  0.4091  0.8596  0.1718
13624TIP3    H162363   4.080   3.643   2.004  0.4545  1.2306 -1.2073
13624TIP3    H262364   3.977   3.532   2.005  1.1310  0.5884 -1.8690
13625TIP3   OH262365   0.659   3.203  12.831  0.4501 -0.0586  0.1660
13625TIP3    H162366   0.717   3.277  12.815 -0.9691  0.7931 -1.3068
13625TIP3    H262367   0.645   3.163  12.745 -0.4188 -0.7923  0.6195
13626TIP3   OH262368   5.052   4.531   1.588 -0.2161  0.2293  0.1268
13626TIP3    H162369   5.033   4.610   1.640 -0.0117  1.4922 -1.6213
13626TIP3    H262370   4.985   4.530   1.520  0.8191 -0.1075 -0.9246
13627TIP3   OH262371   3.068   6.364  14.916  0.4395  0.6773  0.0674
13627TIP3    H162372   3.110   6.433  14.865 -0.4721 -0.0679 -1.7955
13627TIP3    H262373   2.998   6.332  14.860 -0.2772 -0.5931  1.5960
13628TIP3   OH262374   5.192   0.846   2.845  0.1789 -0.0760  0.1437
13628TIP3    H162375   5.099   0.834   2.864  0.0312 -1.8432 -1.3833
13628TIP3    H262376   5.205   0.941   2.844 -1.9109  0.2462 -0.9959
13629TIP3   OH262377   1.216   5.031   0.266 -0.0133 -0.0853  0.3240
13629TIP3    H162378   1.240   5.123   0.256  1.0675 -0.3459  0.4005
13629TIP3    H262379   1.200   5.000   0.177  0.4379 -0.0231  0.2150
13630TIP3   OH262380   2.814   4.994   0.330 -0.1265  0.6058  0.2164
13630TIP3    H162381   2.824   5.058   0.401 -0.3063  1.4429 -0.5035
13630TIP3    H262382   2.728   5.011   0.293 -0.1426  0.0007 -0.0459
13631TIP3   OH262383   0.876   1.624  13.468 -0.4546 -0.3744  0.5494
13631TIP3    H162384   0.951   1.597  13.416 -0.0568  2.4017 -0.4769
13631TIP3    H262385   0.801   1.608  13.411 -0.2738  0.2876  0.1245
13632TIP3   OH262386   2.479   1.454   3.534  0.2353  0.0435  0.4364
13632TIP3    H162387   2.451   1.469   3.444 -0.3899 -0.2476  0.5777
13632TIP3    H262388   2.397   1.453   3.585  0.5883  0.3459  1.0288
13633TIP3   OH262389   4.140   2.673  14.601  0.2400 -0.1728  0.7940
13633TIP3    H162390   4.149   2.585  14.563  1.0067  0.4072 -0.4427
13633TIP3    H262391   4.046   2.685  14.611  0.0423 -0.6270 -0.3102
13634TIP3   OH262392   6.793   4.136  12.356  0.2189 -0.0353  0.4397
13634TIP3    H162393   6.848   4.080  12.411 -1.0207 -0.8306  0.9081
13634TIP3    H262394   6.744   4.076  12.300  1.5259  0.7581 -1.6780
13635TIP3   OH262395   1.861   1.979   2.498  0.0894  0.0222  0.6709
13635TIP3    H162396   1.780   2.023   2.522  0.8417  0.3227  2.8278
13635TIP3    H262397   1.923   2.050   2.480  0.1843 -0.2008  0.0750
13636TIP3   OH262398   5.279   0.883  12.118 -0.5458  0.4711  0.1464
13636TIP3    H162399   5.256   0.924  12.201 -1.0862  0.3900  0.0361
13636TIP3    H262400   5.226   0.803  12.114  1.3871 -0.9306  0.9385
13637TIP3   OH262401   4.092   3.134   1.178 -0.4960 -0.3178 -0.5322
13637TIP3    H162402   4.032   3.208   1.188 -0.5071 -0.4679  0.6134
13637TIP3    H262403   4.052   3.081   1.108 -0.3890  0.8246 -1.4985
13638TIP3   OH262404   2.132   6.354  16.074  0.6581 -0.2893 -0.1380
13638TIP3    H162405   2.130   6.369  16.168 -1.7469  0.0928 -0.1879
13638TIP3    H262406   2.116   6.440  16.035 -2.3215 -0.9705 -0.7053
13639TIP3   OH262407   2.735   6.366   1.530  0.3165  0.2653 -0.2742
13639TIP3    H162408   2.733   6.461   1.539 -0.3525  0.2198  0.1163
13639TIP3    H262409   2.646   6.343   1.504  0.2367 -0.3345  0.5063
13640TIP3   OH262410   1.898   4.941   5.175  0.0997 -0.4583  0.3268
13640TIP3    H162411   1.967   4.874   5.181  1.6474  1.0804  0.6991
13640TIP3    H262412   1.884   4.969   5.265 -0.6682 -0.4137  0.1941
13641TIP3   OH262413   6.011   6.355  14.117  0.1641 -0.2586  0.2193
13641TIP3    H162414   5.951   6.281  14.114 -1.5073  1.0604 -0.3110
13641TIP3    H262415   6.074   6.339  14.047 -0.4462 -0.9594 -0.1742
13642TIP3   OH262416   3.940   4.422   0.606  0.3566  0.5251 -0.3454
13642TIP3    H162417   4.032   4.442   0.622  0.0268  0.2810  2.3546
13642TIP3    H262418   3.897   4.441   0.689 -2.0646  0.7177 -1.5725
13643TIP3   OH262419   4.499   2.909   2.417  0.1606  0.0579 -0.6575
13643TIP3    H162420   4.498   2.998   2.383  3.3341  0.6208  0.4049
13643TIP3    H262421   4.552   2.860   2.355 -2.2216 -1.4353 -1.6917
13644TIP3   OH262422   2.750   5.365   1.449 -0.2632  0.9311  0.7377
13644TIP3    H162423   2.778   5.277   1.426 -0.3608  0.9926  0.3660
13644TIP3    H262424   2.665   5.353   1.492 -1.4920  1.0000 -1.5295
13645TIP3   OH262425   4.885   4.978   2.196 -0.0191  0.1584  0.0540
13645TIP3    H162426   4.915   4.887   2.203  1.4685  0.5672 -0.5655
13645TIP3    H262427   4.939   5.025   2.260 -1.7690  0.4287  1.4277
13646TIP3   OH262428   1.974   1.565   3.304  0.2715  0.3443 -0.2698
13646TIP3    H162429   1.915   1.630   3.343 -0.5786  0.4460 -1.6615
13646TIP3    H262430   1.999   1.603   3.220  0.2708 -0.8385 -0.8262
13647TIP3   OH262431   3.913   1.239  13.651  0.1366 -0.2484  0.2169
13647TIP3    H162432   3.826   1.204  13.632  0.5605 -0.5253 -1.3396
13647TIP3    H262433   3.965   1.163  13.675  0.5554 -0.4563 -1.2569
13648TIP3   OH262434   1.148   5.733  16.884  0.0815 -0.4921 -0.3113
13648TIP3    H162435   1.159   5.748  16.791 -2.8367 -0.4854 -0.7359
13648TIP3    H262436   1.207   5.660  16.904  1.0003 -0.2666 -2.0526
13649TIP3   OH262437   5.859   2.679   4.749  0.3999 -0.4413 -0.3891
13649TIP3    H162438   5.907   2.621   4.809  0.5732 -2.0507 -2.0067
13649TIP3    H262439   5.767   2.664   4.770  0.4811 -0.1809  0.1801
13650TIP3   OH262440   3.142   3.624  16.433  0.2618  0.2577  0.6595
13650TIP3    H162441   3.155   3.710  16.394  1.7055  1.0076  2.6231
13650TIP3    H262442   3.082   3.640  16.506 -0.2113 -0.5998  0.4784
13651TIP3   OH262443   3.685   6.476   3.783 -0.3229  0.4475 -0.2591
13651TIP3    H162444   3.649   6.468   3.695 -0.1068 -1.6318 -0.2177
13651TIP3    H262445   3.693   6.570   3.797 -2.5940  0.8897 -1.5163
13652TIP3   OH262446   3.855   2.217  15.146 -0.1866  0.5674 -0.0872
13652TIP3    H162447   3.913   2.164  15.092  1.0998 -0.5001  2.1988
13652TIP3    H262448   3.783   2.159  15.168 -0.5895  0.9236 -0.4605
13653TIP3   OH262449   3.278   0.634   5.040  0.3578 -0.1671 -0.2822
13653TIP3    H162450   3.251   0.594   4.957 -2.3489  0.5631  0.1573
13653TIP3    H262451   3.314   0.719   5.014  2.1268 -1.0576 -0.8768
13654TIP3   OH262452   0.885   5.085  16.901  0.6547 -0.6960 -0.1292
13654TIP3    H162453   0.843   5.002  16.877 -0.4939  0.5059 -2.4956
13654TIP3    H262454   0.973   5.059  16.930  0.5693 -2.6970 -1.4752
13655TIP3   OH262455   1.300   3.203   3.275 -0.6683 -0.2971  0.4719
13655TIP3    H162456   1.250   3.204   3.193  0.1560 -1.5296 -0.0754
13655TIP3    H262457   1.240   3.167   3.340 -0.8279 -0.7971  0.0556
13656TIP3   OH262458   2.289   3.510  11.890 -0.1326  0.4824 -0.3702
13656TIP3    H162459   2.261   3.422  11.864 -0.4505  0.1014  1.1568
13656TIP3    H262460   2.366   3.495  11.944 -0.7418  1.0520  0.6928
13657TIP3   OH262461   4.984   5.445   5.565 -0.0838  0.0229  0.1182
13657TIP3    H162462   4.985   5.364   5.616 -2.4402  0.5112  1.0820
13657TIP3    H262463   5.076   5.467   5.553  0.6310 -2.7639 -0.1934
13658TIP3   OH262464   4.984   6.215  14.254  0.5500  0.3545  0.2102
13658TIP3    H162465   4.953   6.301  14.226 -0.4920  0.8922  2.6952
13658TIP3    H262466   5.062   6.234  14.306  0.7472 -0.2894  0.1566
13659TIP3   OH262467   1.524   2.436   6.388  0.2131  0.7022 -0.4533
13659TIP3    H162468   1.511   2.371   6.319  1.7173  0.5049 -0.5861
13659TIP3    H262469   1.616   2.460   6.381  0.3059  0.9305  1.2773
13660TIP3   OH262470   6.015   2.771   3.311  0.1532 -0.3809 -0.4885
13660TIP3    H162471   6.065   2.852   3.316 -1.4308  0.5867  3.1856
13660TIP3    H262472   5.937   2.794   3.260 -0.3861  0.5545  0.6983
13661TIP3   OH262473   5.885   6.043   5.516 -0.1062  0.0542  0.0399
13661TIP3    H162474   5.895   5.949   5.505  0.6366  0.0036  0.9964
13661TIP3    H262475   5.856   6.075   5.430 -0.3510 -1.0340 -0.2930
13662TIP3   OH262476   4.438   6.431  11.942 -0.1702 -0.3304 -0.1305
13662TIP3    H162477   4.512   6.402  11.994  0.2968  1.0574  0.0025
13662TIP3    H262478   4.429   6.364  11.874  0.7344 -0.8845  0.2832
13663TIP3   OH262479   4.927   4.996  11.188  0.6180  0.3789  0.2724
13663TIP3    H162480   4.977   5.017  11.267 -0.0236  1.6746  0.3587
13663TIP3    H262481   4.909   4.902  11.195  0.1808  0.5702  1.8905
13664TIP3   OH262482   4.350   5.617   1.267  0.5788 -0.2494  0.3386
13664TIP3    H162483   4.293   5.656   1.333  0.6758  0.1571  0.1856
13664TIP3    H262484   4.332   5.524   1.272  0.8759 -0.2700  1.2179
13665TIP3   OH262485   1.201   2.406   1.616 -0.2545 -0.0675  0.2735
13665TIP3    H162486   1.269   2.467   1.588  0.0704 -0.0128  1.1734
13665TIP3    H262487   1.194   2.418   1.710 -1.3445 -0.2506  0.2275
13666TIP3   OH262488   4.007   3.510  13.399 -0.4317  0.1483  0.0110
13666TIP3    H162489   3.950   3.552  13.335  0.6034 -2.9731 -3.3183
13666TIP3    H262490   3.948   3.468  13.461 -1.6552 -0.1218 -1.2976
13667TIP3   OH262491   4.461   6.591   4.177 -0.6827  0.2726  0.6124
13667TIP3    H162492   4.414   6.672   4.161 -0.0776  0.6703  0.8390
13667TIP3    H262493   4.540   6.617   4.225  0.5815 -0.1826 -1.1141
13668TIP3   OH262494   4.927   4.736   2.506  0.4429  0.1764 -0.5265
13668TIP3    H162495   5.017   4.728   2.474  0.3616 -0.3102 -0.6392
13668TIP3    H262496   4.935   4.774   2.593  0.8614 -1.2205  0.0741
13669TIP3   OH262497   4.941   4.348   3.055  0.1398 -0.4851 -0.3461
13669TIP3    H162498   4.893   4.307   2.983  1.0180 -1.1391 -0.5783
13669TIP3    H262499   5.005   4.282   3.082  0.6829  0.2335  0.1766
13670TIP3   OH262500   1.569   1.713  13.427 -0.0141 -0.4688  0.3525
13670TIP3    H162501   1.506   1.704  13.498  0.9380  0.7405  1.4104
13670TIP3    H262502   1.541   1.649  13.362 -0.7785 -1.8210  1.9169
13671TIP3   OH262503   6.141   0.519  14.795 -0.3192  0.0971  0.3596
13671TIP3    H162504   6.057   0.474  14.781 -1.1348  1.4937  0.5735
13671TIP3    H262505   6.131   0.603  14.749 -0.3425  1.7218  3.1192
13672TIP3   OH262506   3.076   4.430  16.238  0.0735  0.1542 -0.1769
13672TIP3    H162507   3.163   4.411  16.203  0.3767  0.9235  0.1307
13672TIP3    H262508   3.025   4.352  16.219  0.9341 -0.4584 -0.0243
13673TIP3   OH262509   1.353   6.194   3.335  0.2973  0.1344 -0.5699
13673TIP3    H162510   1.375   6.285   3.316  0.4346 -0.2569 -2.5288
13673TIP3    H262511   1.327   6.194   3.427  1.3349  1.9438 -0.2249
13674TIP3   OH262512   0.903   2.028   4.408 -0.3128  0.3833 -0.1026
13674TIP3    H162513   0.828   2.031   4.347  0.2303  0.6137 -0.7683
13674TIP3    H262514   0.891   1.946   4.455 -0.5428  0.0021 -0.7967
13675TIP3   OH262515   2.164   4.299  13.537  0.1054  0.1518  0.4550
13675TIP3    H162516   2.098   4.232  13.555 -0.9640  0.7767 -0.8960
13675TIP3    H262517   2.154   4.317  13.443  1.4571  1.0617  0.4625
13676TIP3   OH262518   3.831   3.250   4.925 -0.4947  0.5544 -1.0024
13676TIP3    H162519   3.863   3.318   4.985  0.8623 -1.1747  0.3463
13676TIP3    H262520   3.897   3.180   4.931 -3.0328 -1.9741 -0.3305
13677TIP3   OH262521   5.286   2.888  13.593 -0.3432  0.6585 -0.1317
13677TIP3    H162522   5.356   2.840  13.549 -1.7243 -1.0559 -0.5471
13677TIP3    H262523   5.330   2.933  13.665  0.8759 -2.2320  1.0815
13678TIP3   OH262524   1.595   1.687  15.752 -0.3150  0.1526 -0.0901
13678TIP3    H162525   1.531   1.616  15.755 -0.1214  0.0038  0.6116
13678TIP3    H262526   1.662   1.662  15.815 -0.3192  1.0332  0.2741
13679TIP3   OH262527   5.428   1.786   5.165  0.1377 -0.2292 -0.1855
13679TIP3    H162528   5.352   1.828   5.124  0.3495  0.5671  0.2155
13679TIP3    H262529   5.411   1.794   5.259  0.6637 -0.1344 -0.0966
13680TIP3   OH262530   4.702   4.942  12.375  0.3095 -0.4951 -0.3273
13680TIP3    H162531   4.683   4.859  12.418  0.2931  0.5766  1.8600
13680TIP3    H262532   4.797   4.949  12.375  0.3059 -0.4376 -0.3610
13681TIP3   OH262533   1.992   3.621   3.629  1.0768 -0.0896 -0.0572
13681TIP3    H162534   2.087   3.626   3.643  1.2876 -0.7171 -1.1672
13681TIP3    H262535   1.982   3.607   3.535 -0.0986 -0.6185  0.1265
13682TIP3   OH262536   4.884   4.675  11.487  0.0197 -0.4239 -0.3109
13682TIP3    H162537   4.836   4.758  11.476 -0.2352 -0.7340 -1.7356
13682TIP3    H262538   4.976   4.701  11.487  0.0176  0.4273  4.4621
13683TIP3   OH262539   2.855   4.415   4.848  0.2038  0.3733  0.3760
13683TIP3    H162540   2.795   4.473   4.803  1.2149  2.2449  1.3197
13683TIP3    H262541   2.804   4.379   4.921 -1.2308 -2.1459 -1.6890
13684TIP3   OH262542   6.453   6.009   4.850 -0.8477  0.0542  0.4741
13684TIP3    H162543   6.522   5.956   4.811 -1.0279  0.6172 -0.6526
13684TIP3    H262544   6.476   6.014   4.943 -0.9077 -2.0883  0.6388
13685TIP3   OH262545   2.698   6.516   1.063  0.0608 -0.3181  0.7595
13685TIP3    H162546   2.715   6.568   0.985  0.1678  0.4069  1.2512
13685TIP3    H262547   2.614   6.474   1.047  0.1205 -0.2329  0.2262
13686TIP3   OH262548   2.817   3.301   2.662  0.4698 -0.3237 -0.0231
13686TIP3    H162549   2.907   3.283   2.636  0.5188 -1.1620  0.6629
13686TIP3    H262550   2.821   3.385   2.707  0.3789  1.1717 -2.5990
13687TIP3   OH262551   2.735   4.010  15.038  0.3106 -0.5635  0.3149
13687TIP3    H162552   2.686   4.092  15.029  0.7077 -0.4068 -0.5934
13687TIP3    H262553   2.820   4.036  15.071 -0.0237 -0.7761  1.3726
13688TIP3   OH262554   1.781   4.998  10.741  0.8134  0.9018 -0.2057
13688TIP3    H162555   1.779   5.011  10.646 -0.4991  0.6286 -0.2286
13688TIP3    H262556   1.700   4.951  10.761  1.6911 -0.2090  0.8852
13689TIP3   OH262557   0.491   3.021   2.930 -0.6810  0.0018 -0.1015
13689TIP3    H162558   0.466   2.972   3.008 -0.9227  0.0676 -0.1365
13689TIP3    H262559   0.438   3.101   2.934  0.8220  1.0150  0.7733
13690TIP3   OH262560   1.830   2.756  13.529  0.0547  0.3329 -0.2504
13690TIP3    H162561   1.863   2.823  13.469 -1.8698  0.0012 -1.7972
13690TIP3    H262562   1.900   2.743  13.592  1.0247  2.8150 -0.7109
13691TIP3   OH262563   0.371   1.059   1.470 -0.5490  0.4634  0.1109
13691TIP3    H162564   0.286   1.039   1.431 -0.2372 -1.5863  0.3980
13691TIP3    H262565   0.425   1.088   1.396 -0.9393 -0.1203 -0.4140
13692TIP3   OH262566   6.103   3.144   1.975  0.2160  0.3800  0.1983
13692TIP3    H162567   6.066   3.144   1.886 -0.6284 -2.0055  0.4645
13692TIP3    H262568   6.067   3.222   2.016 -0.6513  0.6939 -1.0951
13693TIP3   OH262569   4.036   5.828  11.046  0.3904 -0.4604  0.4264
13693TIP3    H162570   4.037   5.777  10.965 -1.9787  0.3499 -0.1765
13693TIP3    H262571   3.967   5.788  11.099 -1.2815  1.8175  0.0814
13694TIP3   OH262572   4.866   4.817   4.807 -0.5012 -0.1689 -0.5074
13694TIP3    H162573   4.815   4.866   4.871  1.6365 -2.3096  3.2066
13694TIP3    H262574   4.821   4.733   4.799  0.1250 -0.5174 -0.4880
13695TIP3   OH262575   0.482   5.475   0.277  0.2572  0.4368  0.2071
13695TIP3    H162576   0.474   5.569   0.259  2.3218  0.7147  0.4725
13695TIP3    H262577   0.497   5.469   0.371  1.1982 -0.0307  0.0503
13696TIP3   OH262578   0.300   2.568   3.603 -0.6763 -0.3738  1.1245
13696TIP3    H162579   0.254   2.637   3.652 -0.7538 -0.9159  1.8249
13696TIP3    H262580   0.303   2.601   3.514 -2.8425 -0.4859  0.9467
13697TIP3   OH262581   2.720   0.419   6.901  0.0741  0.1171 -0.1025
13697TIP3    H162582   2.679   0.407   6.815  1.7580  0.3386 -0.9898
13697TIP3    H262583   2.790   0.353   6.903  0.0263  0.0859  1.1373
13698TIP3   OH262584   3.458   3.614  13.640 -0.0652 -0.0068  0.0248
13698TIP3    H162585   3.542   3.640  13.677 -0.1427 -1.6534  1.5089
13698TIP3    H262586   3.473   3.610  13.546  1.7657 -1.0074  0.3137
13699TIP3   OH262587   2.051   6.443   3.421 -0.7503 -0.3932  0.1536
13699TIP3    H162588   2.010   6.364   3.386 -0.2730  0.6045 -3.0026
13699TIP3    H262589   2.133   6.413   3.460 -1.1681 -1.5974  0.1297
13700TIP3   OH262590   2.517   4.863  11.372 -0.7589  0.2766 -0.0563
13700TIP3    H162591   2.493   4.789  11.317 -0.3274  0.9883 -1.2332
13700TIP3    H262592   2.435   4.891  11.412 -0.8256 -1.2200  0.9179
13701TIP3   OH262593   5.473   6.395  16.150 -0.2571  0.0855  0.2818
13701TIP3    H162594   5.535   6.459  16.117 -0.5973  0.0589 -0.4409
13701TIP3    H262595   5.525   6.335  16.203  1.3006 -2.5077 -3.6569
13702TIP3   OH262596   3.967   1.506   1.432 -0.5797 -0.1794  0.2163
13702TIP3    H162597   3.972   1.521   1.337 -0.5729 -1.2570  0.0213
13702TIP3    H262598   3.950   1.592   1.470 -0.2141  0.3286 -0.7352
13703TIP3   OH262599   5.807   2.238   1.055 -0.0752  0.4207  0.1024
13703TIP3    H162600   5.794   2.333   1.059  1.6917  0.6449  3.5705
13703TIP3    H262601   5.885   2.227   1.001  0.2298  1.0181  0.4077
13704TIP3   OH262602   6.556   1.137  17.130  0.6370  0.3724 -0.0123
13704TIP3    H162603   6.590   1.202  17.068  0.1878  0.9939  0.3837
13704TIP3    H262604   6.464   1.160  17.140  0.2291 -0.9279 -0.6112
13705TIP3   OH262605   3.836   6.743  13.066  0.0169 -0.3819  0.5012
13705TIP3    H162606   3.790   6.761  12.984  1.1099  1.0283  0.1468
13705TIP3    H262607   3.903   6.679  13.042  1.2294  1.0246 -0.0913
13706TIP3   OH262608   0.833   1.356  11.997  0.5461  0.1777 -0.2802
13706TIP3    H162609   0.801   1.312  11.919 -0.7792 -1.5491  1.1702
13706TIP3    H262610   0.770   1.427  12.012 -1.4555 -1.7542  1.2111
13707TIP3   OH262611   0.918   0.938  16.894  0.2006 -0.3675  0.4055
13707TIP3    H162612   0.928   0.990  16.814 -0.3494 -1.3599 -0.3395
13707TIP3    H262613   0.904   1.002  16.963  1.5820  0.5536 -0.1338
13708TIP3   OH262614   5.745   5.456  13.489  0.3242  0.2588 -0.9533
13708TIP3    H162615   5.650   5.468  13.482  0.1297 -1.7740 -3.1017
13708TIP3    H262616   5.758   5.425  13.579 -0.8408  1.8576 -0.1910
13709TIP3   OH262617   3.932   0.985   5.132 -0.4300 -0.9086 -1.0406
13709TIP3    H162618   3.982   0.939   5.200  1.1293  0.3010 -1.3088
13709TIP3    H262619   3.961   0.945   5.050 -1.5607 -1.6730 -1.1004
13710TIP3   OH262620   0.566   5.425   5.070 -0.7260 -0.3082  0.0704
13710TIP3    H162621   0.581   5.474   5.151  0.7166 -0.8048  0.1298
13710TIP3    H262622   0.533   5.491   5.009  0.2779  0.5670  0.4247
13711TIP3   OH262623   1.467   3.537  13.302 -0.2743  0.1445 -0.1596
13711TIP3    H162624   1.382   3.554  13.341  0.0357  2.0492 -0.2042
13711TIP3    H262625   1.510   3.476  13.361 -2.1730 -2.0204 -0.8841
13712TIP3   OH262626   0.621   5.312  12.404  0.0494 -0.3533  0.6506
13712TIP3    H162627   0.554   5.360  12.355  0.6832 -0.3265 -0.2271
13712TIP3    H262628   0.678   5.380  12.440  1.4762 -0.3887 -1.3514
13713TIP3   OH262629   5.511   0.551  13.550  0.1553  0.2004 -0.0740
13713TIP3    H162630   5.595   0.589  13.574  0.5386 -2.0093  2.4347
13713TIP3    H262631   5.489   0.594  13.467  4.1342  0.2187 -1.3265
13714TIP3   OH262632   6.745   5.706  16.761  0.1345 -0.4619 -0.4505
13714TIP3    H162633   6.785   5.674  16.681 -1.1014  2.1497 -2.2728
13714TIP3    H262634   6.678   5.642  16.783 -1.0352 -0.1780 -2.8727
13715TIP3   OH262635   4.885   1.093  16.547  0.5723 -0.1172 -0.1557
13715TIP3    H162636   4.918   1.136  16.626 -1.1283 -1.0960  1.1554
13715TIP3    H262637   4.906   1.154  16.476  2.2324  0.7490  1.0087
13716TIP3   OH262638   3.465   0.882  14.372 -0.0093 -0.1331 -0.1419
13716TIP3    H162639   3.422   0.823  14.435 -1.3584  2.2127  1.2912
13716TIP3    H262640   3.420   0.966  14.384  2.1804  1.3623 -1.6796
13717TIP3   OH262641   2.135   0.698   2.981 -0.6281  0.3220  0.1444
13717TIP3    H162642   2.131   0.639   3.057  0.0179 -0.5152 -0.4533
13717TIP3    H262643   2.073   0.768   3.002  1.4558  1.5596  2.6421
13718TIP3   OH262644   1.850   0.212   5.551  0.1643 -0.3992  0.1037
13718TIP3    H162645   1.838   0.118   5.564 -1.6537 -0.3243 -0.7298
13718TIP3    H262646   1.902   0.240   5.627  2.4343 -2.3535 -0.6057
13719TIP3   OH262647   0.071   5.337  13.997 -0.1247 -0.7361 -1.0322
13719TIP3    H162648   0.132   5.362  14.066 -0.1362 -0.4050 -1.1389
13719TIP3    H262649   0.123   5.282  13.938 -0.0072 -0.6843 -0.9781
13720TIP3   OH262650   4.080   1.239  17.014  0.2373 -0.9650  0.3687
13720TIP3    H162651   4.103   1.170  17.076  1.0899 -1.6104 -0.6387
13720TIP3    H262652   4.156   1.296  17.012 -0.0589 -0.5662  0.4256
13721TIP3   OH262653   5.772   3.763  12.913 -0.1636  0.1562  0.3283
13721TIP3    H162654   5.862   3.730  12.923  0.0533  0.5159 -0.3379
13721TIP3    H262655   5.737   3.714  12.838 -0.0205  1.0380 -0.3259
13722TIP3   OH262656   5.285   6.377   3.679 -0.1666 -0.1860  0.6684
13722TIP3    H162657   5.231   6.298   3.685  1.3911 -1.2103  2.2641
13722TIP3    H262658   5.345   6.358   3.606 -0.4595 -0.0405  0.3901
13723TIP3   OH262659   3.216   0.233  15.556  0.0973  1.1145  0.3799
13723TIP3    H162660   3.174   0.249  15.640  0.9090  0.4029  0.9314
13723TIP3    H262661   3.308   0.214  15.578  0.3828  1.2054 -0.6821
13724TIP3   OH262662   3.461   4.850  12.651 -0.0941  0.1251  0.6665
13724TIP3    H162663   3.495   4.760  12.660 -1.3378 -0.4273  0.1131
13724TIP3    H262664   3.439   4.858  12.558 -1.2015  0.5403  0.9455
13725TIP3   OH262665   0.722   0.890  17.234  0.2121 -0.7454 -0.2498
13725TIP3    H162666   0.734   0.906  17.328  0.8398  0.6225 -0.5389
13725TIP3    H262667   0.627   0.893  17.221  0.0470 -1.9128  0.4720
13726TIP3   OH262668   4.225   2.619   0.262  0.3982 -0.0651  0.6708
13726TIP3    H162669   4.221   2.715   0.272 -0.8857 -0.2938  3.2208
13726TIP3    H262670   4.297   2.593   0.320 -0.9717 -0.8049  2.1073
13727TIP3   OH262671   6.734   2.895  15.647 -0.2352  0.1514  0.4212
13727TIP3    H162672   6.699   2.962  15.588 -0.7773  0.3701  0.9854
13727TIP3    H262673   6.740   2.817  15.593  1.7710  0.9862 -0.6507
13728TIP3   OH262674   5.583   1.477  14.638 -0.0460 -0.1948  0.0565
13728TIP3    H162675   5.579   1.564  14.597 -0.8572 -0.8341 -1.2943
13728TIP3    H262676   5.509   1.476  14.699  1.3026  0.8460  1.8043
13729TIP3   OH262677   3.310   3.343   4.844 -0.5125  0.1049  0.2442
13729TIP3    H162678   3.244   3.325   4.910 -0.0954 -0.7145  0.4581
13729TIP3    H262679   3.393   3.337   4.892 -0.1988 -0.6592 -0.3841
13730TIP3   OH262680   0.848   4.944   5.153 -0.7489  0.2756  0.1709
13730TIP3    H162681   0.918   4.952   5.217  0.2329  0.7249 -0.9221
13730TIP3    H262682   0.811   4.856   5.168  1.0900 -0.6113 -0.2445
13731TIP3   OH262683   6.089   0.958   0.247  0.0821 -0.2880  0.2370
13731TIP3    H162684   6.107   0.877   0.199  0.2828 -0.2275  0.2114
13731TIP3    H262685   6.145   0.954   0.324  0.7633  0.2460 -0.2198
13732TIP3   OH262686   3.524   6.580   0.639  0.4892 -0.8095  0.2873
13732TIP3    H162687   3.443   6.542   0.672  1.0141 -2.0573  0.1977
13732TIP3    H262688   3.576   6.505   0.610  1.4248  0.0093 -0.2358
13733TIP3   OH262689   0.022   2.904  16.398  0.1330  0.5783  0.8690
13733TIP3    H162690   0.115   2.916  16.418  0.8571 -1.4603 -0.9439
13733TIP3    H262691   0.011   2.944  16.311 -0.2157 -0.8109  0.2475
13734TIP3   OH262692   3.382   5.655  15.659  0.2779 -0.3264 -0.0035
13734TIP3    H162693   3.386   5.727  15.723  1.7442 -0.7108  0.3778
13734TIP3    H262694   3.447   5.679  15.593  1.6264 -1.8022  0.7096
13735TIP3   OH262695   1.452   0.341  12.313 -0.4709 -0.0253  0.0749
13735TIP3    H162696   1.514   0.408  12.284 -2.0985  1.9919  0.9666
13735TIP3    H262697   1.447   0.352  12.408 -0.5397 -1.6738  0.2918
13736TIP3   OH262698   2.273   5.738  15.755 -0.2632 -0.4199 -0.3531
13736TIP3    H162699   2.309   5.819  15.721  1.6680 -0.3105  1.7135
13736TIP3    H262700   2.336   5.709  15.821 -2.9544 -1.3694  2.0146
13737TIP3   OH262701   5.082   6.576  10.934 -0.3779  0.4665  0.4612
13737TIP3    H162702   5.003   6.531  10.964 -0.3580  0.1169  0.0015
13737TIP3    H262703   5.049   6.652  10.885 -0.4188  0.6150  0.7173
13738TIP3   OH262704   5.886   0.659   2.929  0.2075  0.2024 -0.2984
13738TIP3    H162705   5.799   0.624   2.945  0.1183  0.7950  0.5781
13738TIP3    H262706   5.932   0.648   3.012  0.7339  0.5563 -0.5373
13739TIP3   OH262707   0.008   4.685  16.485 -0.6501 -0.2843 -0.0411
13739TIP3    H162708  -0.046   4.764  16.481 -0.3601 -0.1361 -1.8322
13739TIP3    H262709  -0.052   4.616  16.515 -1.4581  0.1783 -0.5566
13740TIP3   OH262710   3.579   5.169  13.620  0.3410  0.0479 -0.4279
13740TIP3    H162711   3.502   5.119  13.648 -0.2938  0.5037 -1.3310
13740TIP3    H262712   3.632   5.176  13.699  0.1387 -1.4823 -0.1150
13741TIP3   OH262713   5.286   2.765   6.225  0.0461  0.2272  0.4698
13741TIP3    H162714   5.354   2.806   6.278 -0.5604  0.7624  0.8540
13741TIP3    H262715   5.215   2.829   6.224  0.1728  0.3952 -1.2880
13742TIP3   OH262716   5.671   0.568  13.010  0.1121 -0.5022  0.4310
13742TIP3    H162717   5.690   0.475  13.022  0.5473 -0.3629  0.8498
13742TIP3    H262718   5.752   0.613  13.035 -0.3796  0.0305  1.1178
13743TIP3   OH262719   6.298   0.525  15.669  0.5022 -0.4947 -0.8387
13743TIP3    H162720   6.335   0.497  15.585 -1.5988 -2.6901 -1.1550
13743TIP3    H262721   6.324   0.457  15.731  1.5138  0.7937  0.2243
13744TIP3   OH262722   0.571   1.380   0.066  0.2050 -0.2282  0.3570
13744TIP3    H162723   0.533   1.315   0.125 -0.1319 -2.6936 -2.3424
13744TIP3    H262724   0.498   1.410   0.012  0.9853 -0.5505 -0.9412
13745TIP3   OH262725   0.207   0.204   3.676 -0.4913 -0.6372 -0.2412
13745TIP3    H162726   0.161   0.287   3.664  0.1046 -0.4525 -1.5334
13745TIP3    H262727   0.221   0.197   3.770 -1.1775  0.3781 -0.0469
13746TIP3   OH262728   2.140   2.471   5.410 -0.4450 -0.4556 -0.3420
13746TIP3    H162729   2.129   2.563   5.433  0.0283 -0.0808 -1.5853
13746TIP3    H262730   2.071   2.454   5.346  0.4474 -0.5358 -1.2940
13747TIP3   OH262731   3.290   2.449  14.648  0.2108 -0.1671 -0.0845
13747TIP3    H162732   3.333   2.528  14.681  1.9011  0.1762 -2.7465
13747TIP3    H262733   3.252   2.476  14.564 -1.2865 -1.6188  0.0924
13748TIP3   OH262734   2.413   5.834   2.620  0.8510 -1.1565  0.6362
13748TIP3    H162735   2.438   5.895   2.551  0.7337 -0.3597  1.2874
13748TIP3    H262736   2.421   5.748   2.579  0.8355 -0.7062 -0.3559
13749TIP3   OH262737   1.391   3.976  13.967 -0.5115 -0.6225  0.2246
13749TIP3    H162738   1.420   3.894  14.005  1.9998  0.6878  1.3914
13749TIP3    H262739   1.460   4.039  13.990 -2.1345  1.7311 -0.9189
13750TIP3   OH262740   0.558   2.197   0.542 -0.2992  0.1763  0.0231
13750TIP3    H162741   0.566   2.228   0.451  1.4082  0.2276  0.1673
13750TIP3    H262742   0.569   2.276   0.595  2.5527 -0.3623  0.3519
13751TIP3   OH262743   4.108   6.270  12.744  0.1069  0.2710  0.2239
13751TIP3    H162744   4.138   6.219  12.669 -2.1550 -0.7057 -0.1110
13751TIP3    H262745   4.141   6.223  12.821  0.3058 -0.1655 -0.1242
13752TIP3   OH262746   1.042   2.027  13.002 -0.5862  0.5008 -0.0790
13752TIP3    H162747   1.122   2.080  13.004  2.0848 -3.0510 -1.7351
13752TIP3    H262748   1.020   2.013  13.094  0.4952  1.8398  0.4195
13753TIP3   OH262749   0.190   2.155  14.874 -0.0865  0.4065  1.2173
13753TIP3    H162750   0.099   2.130  14.889  0.4920 -2.2522  0.7053
13753TIP3    H262751   0.238   2.117  14.947  0.9180 -0.4455  0.1408
13754TIP3   OH262752   6.191   5.551  14.262  0.3210  0.0364  0.6551
13754TIP3    H162753   6.261   5.530  14.200  1.1182  1.2465  1.1129
13754TIP3    H262754   6.129   5.603  14.211 -0.2343 -0.9545  0.2757
13755TIP3   OH262755   1.584   4.374  16.134  0.2447 -0.0063  0.6613
13755TIP3    H162756   1.653   4.315  16.103  0.6866  1.1047 -0.6321
13755TIP3    H262757   1.614   4.403  16.220  0.9081 -0.3101  0.5366
13756TIP3   OH262758   0.852   4.358   1.557 -0.9794 -0.1399 -0.3159
13756TIP3    H162759   0.919   4.410   1.511 -1.2885 -0.5582 -1.2550
13756TIP3    H262760   0.903   4.296   1.610 -0.6169  0.5568  0.1761
13757TIP3   OH262761   5.586   3.717  12.181  0.7695 -0.5908  0.3318
13757TIP3    H162762   5.606   3.624  12.190  0.7297 -0.8225 -1.5641
13757TIP3    H262763   5.590   3.733  12.087 -0.4841  1.0431  0.5175
13758TIP3   OH262764   6.409   5.311   5.038 -0.6358  0.2691  0.5881
13758TIP3    H162765   6.476   5.278   4.979 -0.7035 -1.1927  1.2806
13758TIP3    H262766   6.455   5.372   5.096 -0.1765  0.2322  0.2610
13759TIP3   OH262767   3.846   4.130   0.093  0.2783  0.1203 -0.1999
13759TIP3    H162768   3.894   4.047   0.094 -0.6033 -0.4015  0.2148
13759TIP3    H262769   3.825   4.146   0.185  1.1111  1.2188 -0.1828
13760TIP3   OH262770   5.853   6.758   1.189  0.3520 -0.8368  0.3855
13760TIP3    H162771   5.831   6.850   1.207 -1.8461 -1.1376 -0.4701
13760TIP3    H262772   5.811   6.709   1.258  0.2949 -1.2961  0.0286
13761TIP3   OH262773   0.397   6.531   0.086  0.0700  0.1432 -0.2410
13761TIP3    H162774   0.349   6.526   0.004 -0.5781  1.5224  0.0105
13761TIP3    H262775   0.360   6.608   0.130  0.8203 -0.2104  1.0662
13762TIP3   OH262776   5.979   5.538   5.674 -0.1788 -0.5430 -0.1257
13762TIP3    H162777   5.918   5.472   5.640  0.2730 -0.5631 -0.8918
13762TIP3    H262778   5.929   5.581   5.744 -0.5799 -1.4979  0.1940
13763TIP3   OH262779   4.522   4.540   3.909 -0.1129 -0.3316 -0.1470
13763TIP3    H162780   4.538   4.472   3.975  0.7674 -0.3739 -0.3908
13763TIP3    H262781   4.478   4.494   3.838  1.4394 -0.9215 -0.7789
13764TIP3   OH262782   1.841   6.074  12.389 -0.3524  0.1464  0.4828
13764TIP3    H162783   1.908   6.114  12.334 -0.4800 -0.4017 -0.0920
13764TIP3    H262784   1.772   6.140  12.395 -1.1471 -0.4184 -1.5387
13765TIP3   OH262785   6.787   4.309  15.394 -0.3576 -0.0655 -0.0194
13765TIP3    H162786   6.853   4.328  15.462  0.2417 -0.0686 -0.5919
13765TIP3    H262787   6.762   4.218  15.410 -0.7949  0.1698  0.6776
13766TIP3   OH262788   3.259   5.851  11.806 -0.8410 -0.4460  0.4966
13766TIP3    H162789   3.277   5.758  11.792  1.3472 -0.0197  0.1522
13766TIP3    H262790   3.272   5.891  11.720  0.4836  0.4703  1.0889
13767TIP3   OH262791   5.841   4.811   4.939 -0.2162 -0.0368 -0.5325
13767TIP3    H162792   5.930   4.846   4.940 -0.1479 -0.1852  0.9965
13767TIP3    H262793   5.785   4.888   4.953 -0.4008  0.1359 -1.9853
13768TIP3   OH262794   3.703   3.929   1.368  0.2983 -0.2321 -0.0501
13768TIP3    H162795   3.665   3.842   1.357 -0.8144  0.2122  0.1709
13768TIP3    H262796   3.777   3.916   1.428  0.8796 -1.2015 -0.9433
13769TIP3   OH262797   5.032   0.065   0.159  0.3542  0.3692  0.3008
13769TIP3    H162798   5.051   0.023   0.244 -0.0114  0.3330  0.3657
13769TIP3    H262799   5.071   0.006   0.094 -0.0042  0.0190  0.4020
13770TIP3   OH262800   6.092   5.076   4.035 -0.5420  0.0390  0.8091
13770TIP3    H162801   6.175   5.124   4.038 -0.1545 -0.6630  2.0597
13770TIP3    H262802   6.032   5.135   3.989  0.7721  0.3425 -0.5845
13771TIP3   OH262803   2.532   5.807  12.726  0.0331 -0.0528 -0.5238
13771TIP3    H162804   2.565   5.894  12.705  1.0876 -0.9662 -3.0824
13771TIP3    H262805   2.437   5.815  12.723  0.0988  1.1705  0.1870
13772TIP3   OH262806   5.456   3.255   1.642 -0.1581 -0.2140 -0.3719
13772TIP3    H162807   5.539   3.227   1.603 -0.4300 -1.1131 -0.3273
13772TIP3    H262808   5.482   3.308   1.718  0.3685  0.2600 -0.8719
13773TIP3   OH262809   1.347   0.321   4.469 -0.1019  0.0113 -0.1880
13773TIP3    H162810   1.285   0.352   4.402  0.6128  0.4321 -0.6685
13773TIP3    H262811   1.374   0.235   4.437 -0.3857 -0.1482 -0.0069
13774TIP3   OH262812   4.573   5.157  14.450 -0.0102 -0.1632 -0.1723
13774TIP3    H162813   4.484   5.191  14.438  0.5584  1.0736 -1.1327
13774TIP3    H262814   4.620   5.188  14.373  0.9017 -2.0640 -0.4341
13775TIP3   OH262815   0.151   6.433   3.801  0.2070  0.0591 -0.1672
13775TIP3    H162816   0.157   6.375   3.725  0.2498  1.3776 -1.2098
13775TIP3    H262817   0.184   6.517   3.770  1.7159  0.2519  1.7638
13776TIP3   OH262818   3.292   4.343   4.953 -0.4960  1.0977 -0.7125
13776TIP3    H162819   3.208   4.386   4.936 -0.0791  2.1949 -0.0719
13776TIP3    H262820   3.305   4.350   5.047 -0.1826 -0.0392 -0.6488
13777TIP3   OH262821   3.047   5.953  17.053  0.4985 -0.0874  0.5576
13777TIP3    H162822   3.125   5.962  17.107 -0.3412 -0.6392  1.9020
13777TIP3    H262823   3.026   5.860  17.057  1.3125 -0.4886 -2.0651
13778TIP3   OH262824   1.911   1.909  10.800 -0.1301  0.1999 -0.7808
13778TIP3    H162825   1.974   1.843  10.771  0.4545  1.1205 -1.7048
13778TIP3    H262826   1.869   1.871  10.876  1.9895 -0.2291  0.2572
13779TIP3   OH262827   3.883   3.001  12.073  0.3288  0.1245 -0.4261
13779TIP3    H162828   3.862   3.090  12.099  0.7299 -0.2447  1.2824
13779TIP3    H262829   3.951   2.973  12.135 -1.4399 -2.1605  0.6686
13780TIP3   OH262830   0.164   2.132   2.477 -0.1726  0.2896 -0.1759
13780TIP3    H162831   0.224   2.173   2.540 -1.5315  1.5473  0.3467
13780TIP3    H262832   0.078   2.137   2.518 -0.7498 -0.9399 -1.1714
13781TIP3   OH262833   1.590   1.061   2.661  0.0297 -0.5832 -0.3724
13781TIP3    H162834   1.612   1.102   2.578  0.0323  0.0869 -0.0530
13781TIP3    H262835   1.608   0.968   2.648  0.1912 -0.4601 -1.0624
13782TIP3   OH262836   0.701   6.285   1.723  0.6842 -0.5291  0.1677
13782TIP3    H162837   0.655   6.220   1.669  1.3119 -0.3645 -0.5758
13782TIP3    H262838   0.794   6.269   1.707  0.8612  0.1077  0.5174
13783TIP3   OH262839   2.943   5.522   1.539  0.2451  0.6129 -0.3014
13783TIP3    H162840   2.971   5.470   1.614 -1.9967  2.4707  1.9788
13783TIP3    H262841   2.868   5.475   1.503 -0.3470  1.0841  0.3124
13784TIP3   OH262842   1.668   0.975   3.483 -0.9915 -0.6024  0.0031
13784TIP3    H162843   1.621   0.953   3.403 -0.1632  0.4002 -0.7939
13784TIP3    H262844   1.632   1.059   3.510  0.1846  0.0990 -0.5282
13785TIP3   OH262845   3.507   4.083  13.685 -0.3933  0.1817  0.2762
13785TIP3    H162846   3.586   4.079  13.630  0.4488  2.2151  1.2066
13785TIP3    H262847   3.451   4.148  13.641 -1.8030 -1.5360 -0.5935
13786TIP3   OH262848   3.304   6.605  11.934  0.4475  0.3348 -0.1261
13786TIP3    H162849   3.359   6.530  11.955 -1.5701 -0.6827  1.8906
13786TIP3    H262850   3.221   6.567  11.903 -1.3777  1.5318  2.8878
13787TIP3   OH262851   2.584   4.991  12.457 -0.2336 -0.2802  0.1174
13787TIP3    H162852   2.579   5.026  12.368 -0.3145 -1.6920 -0.4564
13787TIP3    H262853   2.565   5.066  12.514 -1.8341  0.2840 -1.1061
13788TIP3   OH262854   1.327   1.305  14.613  0.3072 -0.4599  0.1668
13788TIP3    H162855   1.279   1.372  14.566 -1.0494 -1.4231  0.1215
13788TIP3    H262856   1.300   1.222  14.573  1.8888 -1.0609  0.2530
13789TIP3   OH262857   1.210   1.727   1.673 -0.2174  0.0352 -0.2214
13789TIP3    H162858   1.208   1.812   1.717  0.1655 -0.0340 -0.0658
13789TIP3    H262859   1.168   1.667   1.735  3.1626 -0.7276  1.5284
13790TIP3   OH262860   4.265   1.823  14.646 -0.1032 -0.8355  0.3438
13790TIP3    H162861   4.273   1.729  14.630 -1.3301 -1.4395  2.8625
13790TIP3    H262862   4.344   1.846  14.695  0.2355 -0.5012 -0.3414
13791TIP3   OH262863   6.356   4.461   5.617 -0.0337  0.3499  0.4125
13791TIP3    H162864   6.395   4.514   5.686  0.1446 -0.1795  0.7246
13791TIP3    H262865   6.430   4.414   5.578 -0.1413  0.5839 -0.0864
13792TIP3   OH262866   4.117   2.415  14.475  0.2810  0.6002  0.3291
13792TIP3    H162867   4.204   2.406  14.514  0.7818 -0.6075 -0.9926
13792TIP3    H262868   4.063   2.353  14.524  0.2541  1.0624  0.8898
13793TIP3   OH262869   0.231   3.189  17.090  0.2299 -0.3528  0.1163
13793TIP3    H162870   0.154   3.231  17.129 -0.6127 -1.3283 -0.4545
13793TIP3    H262871   0.287   3.262  17.065 -0.4321  0.3726  0.6766
13794TIP3   OH262872   5.440   4.851   3.207  0.2968  0.2393  0.1975
13794TIP3    H162873   5.362   4.905   3.190  0.4279  0.1802 -0.6187
13794TIP3    H262874   5.452   4.856   3.302 -2.2934 -1.9422  0.7603
13795TIP3   OH262875   3.036   3.380   2.213  0.0531 -0.8200 -0.5529
13795TIP3    H162876   3.077   3.333   2.140  0.7707 -1.5726  0.3079
13795TIP3    H262877   2.995   3.311   2.265  0.7781 -0.4708  0.5137
13796TIP3   OH262878   2.494   2.493   2.090  0.9346  0.4330 -0.1763
13796TIP3    H162879   2.411   2.532   2.115  0.2672 -1.6827  1.2091
13796TIP3    H262880   2.549   2.567   2.063 -0.6732  2.1136  0.9498
13797TIP3   OH262881   1.357   2.247  15.582 -0.0706  0.0864 -0.0622
13797TIP3    H162882   1.296   2.216  15.515  0.1380  0.1815 -0.2994
13797TIP3    H262883   1.422   2.178  15.588 -0.3669 -0.1533  0.4103
13798TIP3   OH262884   3.741   6.141   3.422 -0.0405  0.0119  0.8275
13798TIP3    H162885   3.779   6.223   3.454  0.8941  0.6083 -1.5845
13798TIP3    H262886   3.652   6.164   3.397  0.1442  0.2591  0.3780
13799TIP3   OH262887   6.661   1.857   4.553 -0.5137  0.3636  0.2125
13799TIP3    H162888   6.674   1.852   4.648 -0.1142  2.1214  0.2797
13799TIP3    H262889   6.647   1.766   4.526  0.8406 -0.3462  1.7318
13800TIP3   OH262890   6.713   2.608   4.550  0.2809 -0.3829  0.0643
13800TIP3    H162891   6.659   2.664   4.495  0.0346  0.7263  1.3958
13800TIP3    H262892   6.784   2.580   4.492 -1.0333 -0.8989 -1.3714
13801TIP3   OH262893   3.712   0.119  11.702  0.5019  0.4747  0.6030
13801TIP3    H162894   3.773   0.093  11.633  0.2032 -2.0899  1.1906
13801TIP3    H262895   3.692   0.211  11.683  1.8706  0.4045 -1.5846
13802TIP3   OH262896   5.206   6.647   1.733  0.2064  0.8276  0.4127
13802TIP3    H162897   5.224   6.715   1.799  1.5682  0.0167  0.9169
13802TIP3    H262898   5.237   6.566   1.774  0.7157  0.2458 -1.0881
13803TIP3   OH262899   6.713   2.306   1.908 -0.0468  0.4133 -0.1503
13803TIP3    H162900   6.751   2.259   1.834 -1.4017 -0.6031 -0.2458
13803TIP3    H262901   6.629   2.262   1.923  0.2494  0.4962  2.0817
13804TIP3   OH262902   0.845   3.623  13.471 -0.7800 -0.4697  0.2768
13804TIP3    H162903   0.757   3.623  13.433 -1.2588 -1.1493  1.3471
13804TIP3    H262904   0.889   3.698  13.429 -1.8823 -0.0664 -0.2081
13805TIP3   OH262905   2.574   0.278  14.477 -0.1833 -0.9294 -0.3889
13805TIP3    H162906   2.530   0.231  14.406  1.2395 -0.6440 -1.5005
13805TIP3    H262907   2.602   0.361  14.437 -1.1553  0.1605  1.0792
13806TIP3   OH262908   3.307   6.320  14.334  0.7891  0.5502 -0.5533
13806TIP3    H162909   3.268   6.292  14.417  0.5222  2.0448 -0.1555
13806TIP3    H262910   3.301   6.415  14.336 -2.2603  0.6158 -3.7350
13807TIP3   OH262911   1.803   6.475   0.080 -0.1278  0.4922  0.3871
13807TIP3    H162912   1.752   6.480   0.161  1.8244  1.9272  1.6078
13807TIP3    H262913   1.741   6.443   0.015 -1.9911  0.1069  2.2507
13808TIP3   OH262914   0.448   1.357  15.959  0.7349  0.5350  0.1147
13808TIP3    H162915   0.493   1.365  16.043  1.8591  0.4633 -0.4668
13808TIP3    H262916   0.452   1.264  15.938 -1.4535  0.1711  0.9715
13809TIP3   OH262917   5.438   6.137   2.876 -0.3652  0.1163 -0.3025
13809TIP3    H162918   5.394   6.054   2.859 -1.0218  0.2526  0.6464
13809TIP3    H262919   5.515   6.113   2.927 -2.3330  0.2908  3.0603
13810TIP3   OH262920   1.046   4.452  10.506 -0.0585  0.1742 -0.1842
13810TIP3    H162921   1.002   4.370  10.484  0.3746 -0.3008  0.6627
13810TIP3    H262922   1.139   4.430  10.505  0.0322  0.4720  0.7048
13811TIP3   OH262923   0.417   4.543  12.336  0.1711  0.2291  0.1400
13811TIP3    H162924   0.340   4.583  12.296 -0.2855 -0.6162  0.1578
13811TIP3    H262925   0.470   4.514  12.262  0.4436  0.7311  0.1291
13812TIP3   OH262926   2.615   2.013  15.144  0.0958 -0.3097  0.0286
13812TIP3    H162927   2.690   2.003  15.202 -0.3265  0.2904  0.7117
13812TIP3    H262928   2.592   2.106  15.151  0.0932 -0.2091 -1.1862
13813TIP3   OH262929   1.155   4.013   2.519  0.3305  0.2084  0.4584
13813TIP3    H162930   1.197   4.021   2.605  0.4073 -0.7708  0.5167
13813TIP3    H262931   1.201   3.941   2.477 -0.5590 -0.1467  0.0846
13814TIP3   OH262932   0.677   1.074  11.669 -0.0976 -0.3223  0.2530
13814TIP3    H162933   0.587   1.051  11.692 -0.2281 -0.5612 -0.4825
13814TIP3    H262934   0.669   1.134  11.595  0.3525 -0.5654  0.0020
13815TIP3   OH262935   2.614   6.775  14.180  0.1899  0.2147  0.0024
13815TIP3    H162936   2.566   6.776  14.098 -0.9064  0.2240  0.6280
13815TIP3    H262937   2.578   6.849  14.230  1.6181  0.9010  0.0685
13816TIP3   OH262938   6.391   4.193  14.324  0.3379 -0.6306 -0.0938
13816TIP3    H162939   6.333   4.177  14.249  0.3065 -1.9164  0.1764
13816TIP3    H262940   6.442   4.112  14.332  1.7393  0.2302  0.0699
13817TIP3   OH262941   4.155   0.206   2.835 -0.2327 -0.3478 -0.5751
13817TIP3    H162942   4.061   0.199   2.848 -0.0611 -0.6613  0.7322
13817TIP3    H262943   4.173   0.153   2.757 -0.9407 -1.8242  0.2093
13818TIP3   OH262944   5.318   0.633  11.519 -0.2891 -0.0965 -0.3602
13818TIP3    H162945   5.389   0.582  11.480  0.2630  0.0900  0.3640
13818TIP3    H262946   5.326   0.719  11.477 -0.7092 -0.3584 -0.9883
13819TIP3   OH262947   2.526   1.637   5.655  0.1351 -0.2056  0.5412
13819TIP3    H162948   2.610   1.622   5.612  0.1270 -0.2064  0.5258
13819TIP3    H262949   2.528   1.730   5.679 -1.0828  0.5906 -2.0988
13820TIP3   OH262950   5.522   3.537   3.839  0.1331  0.4166 -0.9554
13820TIP3    H162951   5.466   3.466   3.871  0.1269  0.6785 -0.3654
13820TIP3    H262952   5.461   3.609   3.822  0.3204  0.8458  0.0961
13821TIP3   OH262953   1.560   4.723   1.733 -0.0993  0.2497 -0.8209
13821TIP3    H162954   1.649   4.705   1.763 -0.2257 -0.9276 -1.1081
13821TIP3    H262955   1.505   4.661   1.782 -0.7235  0.7414 -0.8806
13822TIP3   OH262956   0.220   2.694  16.608  0.6322 -0.5243 -0.1062
13822TIP3    H162957   0.249   2.776  16.568  0.2880 -0.5592 -0.4322
13822TIP3    H262958   0.131   2.681  16.574  1.2937 -1.9114 -1.4162
13823TIP3   OH262959   0.543   0.221   2.188  0.4840  0.6106 -0.2882
13823TIP3    H162960   0.632   0.249   2.212  1.1563 -0.0593 -1.8778
13823TIP3    H262961   0.510   0.291   2.132 -0.3717  1.2826  0.9953
13824TIP3   OH262962   0.249   0.986   4.825  0.2849 -0.0765  0.0523
13824TIP3    H162963   0.204   1.071   4.833  0.1832 -0.0393 -0.7672
13824TIP3    H262964   0.317   1.001   4.759  0.0116 -0.7205 -0.3960
13825TIP3   OH262965   6.725   0.946   1.618 -0.3228 -0.2662  0.1903
13825TIP3    H162966   6.770   0.915   1.696 -1.5035  1.9394  1.8438
13825TIP3    H262967   6.632   0.935   1.637 -0.6361  0.2393 -0.9411
13826TIP3   OH262968   4.941   5.798   4.355  0.0366  0.0034 -0.0272
13826TIP3    H162969   4.897   5.801   4.270 -0.3951  0.7982  0.2249
13826TIP3    H262970   4.939   5.888   4.387  2.0350  0.1317 -0.1064
13827TIP3   OH262971   5.691   0.037   5.116 -0.0909 -0.4692 -0.3429
13827TIP3    H162972   5.658  -0.043   5.077 -0.5510 -0.3660 -0.1712
13827TIP3    H262973   5.615   0.095   5.121  0.1455 -0.1752 -0.0774
13828TIP3   OH262974   2.272   4.442  12.699 -0.9469 -0.0232  0.1594
13828TIP3    H162975   2.177   4.434  12.690 -0.9557 -0.6637  0.7185
13828TIP3    H262976   2.285   4.475  12.787 -0.6337 -0.5679  0.3218
13829TIP3   OH262977   0.904   6.380   6.569 -0.1038  0.0036  0.0730
13829TIP3    H162978   0.897   6.303   6.626 -0.6321 -0.3182 -0.4181
13829TIP3    H262979   0.978   6.360   6.512  0.2778  0.2249  0.4762
13830TIP3   OH262980   5.697   2.587   4.982 -0.6100  0.6954 -0.2245
13830TIP3    H162981   5.701   2.683   4.980 -0.5368  0.6836 -1.7122
13830TIP3    H262982   5.694   2.565   5.075  0.2181  2.1096  0.1715
13831TIP3   OH262983   0.885   6.757  16.075 -0.1587  0.3121  0.7236
13831TIP3    H162984   0.933   6.678  16.103 -0.0117  0.7004  1.6072
13831TIP3    H262985   0.952   6.811  16.033  0.1253  0.7035  1.6501
13832TIP3   OH262986   0.541   0.513   3.719  0.1606 -0.0996 -0.3283
13832TIP3    H162987   0.502   0.584   3.668  1.3347  0.9420  0.1585
13832TIP3    H262988   0.636   0.527   3.711  0.3880 -0.3706  1.4450
13833TIP3   OH262989   3.199   4.128   2.688  0.0922 -0.3397  0.1845
13833TIP3    H162990   3.120   4.181   2.684  0.1152 -0.3412 -0.6191
13833TIP3    H262991   3.171   4.046   2.729 -0.5837 -0.7384 -0.9927
13834TIP3   OH262992   4.582   2.038   3.743  0.0644 -0.1911 -0.1893
13834TIP3    H162993   4.580   2.002   3.832  0.4207 -1.1790 -0.5686
13834TIP3    H262994   4.608   2.130   3.755 -3.6962  0.8941  1.0912
13835TIP3   OH262995   4.115   5.542   3.044 -0.6402 -0.3563  0.5582
13835TIP3    H162996   4.201   5.503   3.027  0.7880  3.0519 -0.9587
13835TIP3    H262997   4.121   5.576   3.133 -0.6538 -0.6283  0.6648
13836TIP3   OH262998   2.440   4.172  14.381 -0.6407  0.1084 -0.1437
13836TIP3    H162999   2.477   4.259  14.394 -0.5347  0.1204 -0.5027
13836TIP3    H263000   2.470   4.147  14.293  2.0887 -1.6239  1.1354
13837TIP3   OH263001   6.251   0.100  16.352  0.3200  0.5269 -0.3483
13837TIP3    H163002   6.335   0.146  16.355  0.2887  0.5575  0.3501
13837TIP3    H263003   6.270   0.013  16.385 -0.0721  0.7912  0.6211
13838TIP3   OH263004   1.637   2.898   4.371  0.6192  0.0037 -0.0536
13838TIP3    H163005   1.643   2.907   4.276  0.1359  0.0935 -0.0807
13838TIP3    H263006   1.598   2.980   4.400 -0.8593 -0.6962  0.0385
13839TIP3   OH263007   3.327   0.968  15.460  0.0517 -0.2304  0.5117
13839TIP3    H163008   3.285   0.899  15.409 -0.5778 -0.6022  1.4925
13839TIP3    H263009   3.352   1.034  15.396  1.2170 -1.6199 -0.5203
13840TIP3   OH263010   6.667   2.282   1.069 -0.0335  0.6309 -0.5044
13840TIP3    H163011   6.731   2.232   1.120 -0.5672  1.5941  1.1580
13840TIP3    H263012   6.679   2.250   0.979  2.4715  0.4841 -0.1847
13841TIP3   OH263013   5.424   6.703   4.896  0.2845 -0.0113  0.2972
13841TIP3    H163014   5.384   6.630   4.849 -0.2665  0.6022 -0.2089
13841TIP3    H263015   5.385   6.700   4.983 -0.1029 -0.0218  0.1231
13842TIP3   OH263016   5.596   0.025   4.768 -0.1902 -0.5631  0.6563
13842TIP3    H163017   5.534  -0.022   4.823 -0.9729 -0.6683 -0.2847
13842TIP3    H263018   5.638  -0.043   4.715 -1.1107 -0.2591 -0.4975
13843TIP3   OH263019   0.376   4.969  11.989 -0.3040 -0.4760 -0.0233
13843TIP3    H163020   0.455   4.974  12.043  0.2523  4.4736 -0.8260
13843TIP3    H263021   0.409   4.967  11.899 -1.0377  0.3832 -0.3260
13844TIP3   OH263022   4.009   4.469   1.615  0.1868 -0.1045 -0.8456
13844TIP3    H163023   4.014   4.395   1.675 -0.9689  0.4536 -0.0172
13844TIP3    H263024   4.055   4.440   1.537  1.3505 -1.0165  0.1370
13845TIP3   OH263025   2.714   3.708   6.198 -0.7124 -0.0123  0.5810
13845TIP3    H163026   2.649   3.639   6.184 -1.4271  0.4999  1.2814
13845TIP3    H263027   2.671   3.769   6.258  0.1191  0.7561  0.4103
13846TIP3   OH263028   4.262   3.426  15.543  0.3566  0.1840  0.1310
13846TIP3    H163029   4.353   3.403  15.526  0.2332  0.6532 -1.2611
13846TIP3    H263030   4.211   3.375  15.480 -0.4118 -0.5332  1.2940
13847TIP3   OH263031   4.277   5.769  10.489 -0.5991 -0.3794  0.1414
13847TIP3    H163032   4.225   5.702  10.444  0.1812 -0.1752 -1.1194
13847TIP3    H263033   4.231   5.851  10.471 -0.1279 -0.2610 -0.5482
13848TIP3   OH263034   0.836   4.342  14.014 -0.2606 -0.0031 -0.0454
13848TIP3    H163035   0.880   4.421  13.984  0.0793 -0.0833  0.2251
13848TIP3    H263036   0.841   4.347  14.110  1.4511 -1.2540 -0.0107
13849TIP3   OH263037   3.073   3.291   1.510  0.0606  0.0134  0.8025
13849TIP3    H163038   3.008   3.261   1.573 -1.4001  0.5919 -0.3811
13849TIP3    H263039   3.066   3.387   1.511  2.5436  0.2977  2.3052
13850TIP3   OH263040   0.562   2.278  14.399  0.0161 -0.0517 -0.0303
13850TIP3    H163041   0.558   2.276  14.495 -0.5528  1.2348 -0.0121
13850TIP3    H263042   0.473   2.299  14.372  0.7121  2.2858 -0.7173
13851TIP3   OH263043   1.431   0.889   2.377 -0.0001 -0.0145 -0.7652
13851TIP3    H163044   1.443   0.941   2.298 -0.2997  0.4319 -0.5205
13851TIP3    H263045   1.344   0.850   2.369  0.0071 -0.0454 -0.7001
13852TIP3   OH263046   0.212   3.133  16.168 -0.0994  0.4959 -0.1548
13852TIP3    H163047   0.241   3.140  16.259  0.0230 -0.7690 -0.0829
13852TIP3    H263048   0.126   3.175  16.167 -0.4524 -0.1682  0.7283
13853TIP3   OH263049   1.579   3.162  17.074  0.2525 -0.2642  0.0995
13853TIP3    H163050   1.674   3.163  17.086  0.1571  1.1917  1.0015
13853TIP3    H263051   1.567   3.157  16.979  1.1549 -3.3492  0.0372
13854TIP3   OH263052   0.988   2.365  16.321  0.3909 -0.3528  0.2746
13854TIP3    H163053   1.007   2.275  16.350  0.0967 -0.7530 -0.7354
13854TIP3    H263054   0.902   2.359  16.279  0.2882  0.4441  0.3633
13855TIP3   OH263055   4.822   2.809  14.169  0.2405 -0.4530  0.5598
13855TIP3    H163056   4.731   2.817  14.199 -0.7146 -0.3238 -2.1175
13855TIP3    H263057   4.868   2.881  14.211 -0.9018 -0.4263  1.8447
13856TIP3   OH263058   3.092   2.666  13.268  1.0587  0.3076  0.0285
13856TIP3    H163059   3.140   2.649  13.187 -0.1567  1.1092 -0.8910
13856TIP3    H263060   3.113   2.757  13.290  0.0424  0.6455 -0.3473
13857TIP3   OH263061   1.050   0.631   1.073  0.3393  0.3991  0.1312
13857TIP3    H163062   1.111   0.698   1.104  1.9843 -0.8712 -0.2190
13857TIP3    H263063   0.981   0.680   1.029  2.1620  1.8341 -1.2730
13858TIP3   OH263064   6.782   6.818   4.910 -0.8841  0.1557 -0.3563
13858TIP3    H163065   6.875   6.834   4.894 -0.7886  0.2216  0.2472
13858TIP3    H263066   6.739   6.851   4.831 -0.2658 -1.6299 -1.5267
13859TIP3   OH263067   4.094   6.674   1.487  0.7046 -0.2891  0.7026
13859TIP3    H163068   4.108   6.635   1.401 -0.2653  0.9237 -0.0451
13859TIP3    H263069   4.173   6.727   1.502  0.2248  0.6914 -0.1430
13860TIP3   OH263070   4.538   2.886   0.130 -0.0756  0.3304 -0.0731
13860TIP3    H163071   4.479   2.922   0.064 -0.0624 -0.3848 -0.4910
13860TIP3    H263072   4.524   2.940   0.208 -2.1150 -0.4968  0.1966
13861TIP3   OH263073   5.312   6.216  13.032 -0.8182 -0.1983  0.3619
13861TIP3    H163074   5.303   6.121  13.025  2.0530 -0.4412 -2.0769
13861TIP3    H263075   5.395   6.228  13.080  0.0724  0.9427 -1.3479
13862TIP3   OH263076   6.167   2.478   5.547 -0.3395 -0.1958 -0.0738
13862TIP3    H163077   6.155   2.447   5.636  1.2742  0.6128  0.4643
13862TIP3    H263078   6.260   2.503   5.542 -0.3899 -0.2044 -1.9687
13863TIP3   OH263079   3.482   5.175  12.047  0.5013 -0.3132 -0.1239
13863TIP3    H163080   3.570   5.157  12.013  0.7112 -0.9583  0.7274
13863TIP3    H263081   3.492   5.256  12.098  0.9751 -1.1872  1.2433
13864TIP3   OH263082   3.607   5.419   4.914  0.1376 -0.0080 -0.0174
13864TIP3    H163083   3.660   5.491   4.882  1.0392 -1.3017 -1.5956
13864TIP3    H263084   3.521   5.458   4.931  0.9528  1.6718  0.4348
13865TIP3   OH263085   4.313   6.291  14.064  0.1359  0.5357  0.0856
13865TIP3    H163086   4.265   6.363  14.103  0.1995  1.0508 -0.7607
13865TIP3    H263087   4.369   6.258  14.135 -0.0970  1.1328  0.5556
13866TIP3   OH263088   5.864   6.212   3.754 -0.3478 -0.3672 -0.0915
13866TIP3    H163089   5.870   6.288   3.811  2.0010 -0.4530 -0.1167
13866TIP3    H263090   5.895   6.243   3.669 -0.4576 -1.0715 -0.3964
13867TIP3   OH263091   6.565   0.977  14.331  0.1232 -0.1676 -0.5148
13867TIP3    H163092   6.574   1.065  14.294  2.0853 -0.8182 -1.7423
13867TIP3    H263093   6.511   0.989  14.409 -0.7258  1.9088 -1.3609
13868TIP3   OH263094   3.935   5.640   5.974 -0.4937  0.2432 -0.0399
13868TIP3    H163095   3.852   5.670   6.012 -2.0456 -1.2421 -2.0066
13868TIP3    H263096   3.992   5.717   5.976 -1.8146  1.2460  1.6063
13869TIP3   OH263097   4.446   2.989   4.965  0.0848 -0.3106 -0.0542
13869TIP3    H163098   4.448   3.077   4.928 -0.8818 -0.7434 -1.1909
13869TIP3    H263099   4.357   2.958   4.949 -0.9052 -0.0402  3.9180
13870TIP3   OH263100   1.435   6.403  11.650  0.2046  0.3345 -0.0016
13870TIP3    H163101   1.346   6.414  11.685  0.3658  0.6830  0.3072
13870TIP3    H263102   1.470   6.328  11.698  0.0675  0.1773 -0.1452
13871TIP3   OH263103   5.623   3.415  11.585 -0.7451  0.6527 -0.2789
13871TIP3    H163104   5.646   3.394  11.495  1.6696  5.6424 -1.1612
13871TIP3    H263105   5.693   3.376  11.638 -2.2470 -2.4147 -0.3160
13872TIP3   OH263106   2.926   3.545  14.954  0.0290  0.0396  0.0370
13872TIP3    H163107   3.012   3.524  14.992  0.1696 -0.6395 -0.6302
13872TIP3    H263108   2.891   3.613  15.012  1.9576  1.9999 -0.9065
13873TIP3   OH263109   1.599   2.221  13.386 -0.2583  0.0933  0.1448
13873TIP3    H163110   1.611   2.307  13.426 -0.2473  0.3812 -0.4564
13873TIP3    H263111   1.551   2.170  13.451  0.7822  0.1683  0.9992
13874TIP3   OH263112   3.645   6.523   3.510 -0.2671  0.0481  0.0854
13874TIP3    H163113   3.570   6.476   3.474  0.1400 -0.3791 -0.2043
13874TIP3    H263114   3.719   6.494   3.458  0.1587  0.2174  0.5902
13875TIP3   OH263115   1.051   0.978   5.573 -0.0415 -0.0321 -0.4255
13875TIP3    H163116   0.962   0.995   5.603 -0.6237  0.2612 -2.2191
13875TIP3    H263117   1.099   1.058   5.592  0.0915 -0.4986  1.3414
13876TIP3   OH263118   1.854   4.397   2.702  0.0278 -0.1009  0.3070
13876TIP3    H163119   1.942   4.428   2.723 -0.6604  0.5399  2.5435
13876TIP3    H263120   1.809   4.474   2.668 -0.6846  0.6119  2.6622
13877TIP3   OH263121   4.405   0.145  14.905 -0.2623  0.5000 -0.5108
13877TIP3    H163122   4.410   0.049  14.902 -1.9262  0.3885 -1.5482
13877TIP3    H263123   4.473   0.174  14.845  1.5838  0.0793  1.2905
13878TIP3   OH263124   0.429   2.198   1.715  0.4052  0.4524  0.1666
13878TIP3    H163125   0.525   2.194   1.709  0.3582 -1.1785 -0.0051
13878TIP3    H263126   0.412   2.236   1.801  1.2241 -0.1705  0.6263
13879TIP3   OH263127   3.315   1.054  12.930  0.1027  0.4663 -0.0018
13879TIP3    H163128   3.402   1.043  12.891 -0.7567 -4.0399 -1.2314
13879TIP3    H263129   3.308   0.983  12.995 -2.2406  1.4517  0.9567
13880TIP3   OH263130   0.734   2.258   5.774 -0.0098  0.3134  0.7118
13880TIP3    H163131   0.791   2.294   5.842  0.6091 -1.3505  1.1244
13880TIP3    H263132   0.740   2.163   5.786 -0.2773 -0.0066 -1.3522
13881TIP3   OH263133   6.156   0.348  11.879 -0.0029 -0.0658 -0.3507
13881TIP3    H163134   6.116   0.271  11.840 -1.1297 -0.3124  1.2225
13881TIP3    H263135   6.108   0.422  11.842  0.1085 -0.1893 -0.7469
13882TIP3   OH263136   2.180   5.319   4.151  0.3677  0.3718  0.2484
13882TIP3    H163137   2.158   5.336   4.059  1.1545  0.1717  0.0132
13882TIP3    H263138   2.096   5.305   4.194 -0.0263  0.7226 -0.3919
13883TIP3   OH263139   6.682   1.693   1.217  0.3797  0.0740 -0.6339
13883TIP3    H163140   6.686   1.598   1.204  0.3045  0.1587 -1.2857
13883TIP3    H263141   6.651   1.703   1.307  2.2972 -0.5271  0.1378
13884TIP3   OH263142   2.066   5.734  15.551 -0.2312 -0.2915 -0.1489
13884TIP3    H163143   1.972   5.720  15.561 -0.2146 -1.4772 -1.4272
13884TIP3    H263144   2.084   5.812  15.604 -2.0885  0.4927 -0.5888
13885TIP3   OH263145   4.768   3.112   1.426 -0.3137 -0.3209 -0.3723
13885TIP3    H163146   4.787   3.192   1.377 -0.0557 -0.2267 -0.1247
13885TIP3    H263147   4.824   3.045   1.387 -0.7540 -0.4550 -0.7801
13886TIP3   OH263148   3.621   5.891   1.996 -0.5715 -0.2304 -0.2599
13886TIP3    H163149   3.542   5.876   2.048  0.1128 -0.7595  0.6567
13886TIP3    H263150   3.588   5.919   1.910 -1.7265  0.7838  0.4784
13887TIP3   OH263151   1.575   6.674   2.696  0.1878  0.1476  0.1284
13887TIP3    H163152   1.630   6.660   2.773 -1.6597 -0.2628  1.4412
13887TIP3    H263153   1.607   6.610   2.633  1.3567  0.0894  0.7347
13888TIP3   OH263154   0.579   3.459  16.779 -0.3664  0.4880 -0.0104
13888TIP3    H163155   0.629   3.382  16.753 -2.6092 -1.0035 -0.1619
13888TIP3    H263156   0.572   3.453  16.875 -0.3406  0.6412  0.0025
13889TIP3   OH263157   4.429   2.691   4.934 -0.1300 -0.3007 -0.0311
13889TIP3    H163158   4.341   2.729   4.930 -0.2470 -0.4792  0.6652
13889TIP3    H263159   4.463   2.699   4.845 -0.8114 -0.1335 -0.2817
13890TIP3   OH263160   5.073   5.890  12.466 -0.0174  0.2467 -0.0314
13890TIP3    H163161   5.009   5.931  12.524 -0.3550 -0.3200  0.0048
13890TIP3    H263162   5.067   5.940  12.385 -1.3245 -0.4963 -0.4165
13891TIP3   OH263163   4.276   0.719  14.246 -0.3618 -0.1089  0.6686
13891TIP3    H163164   4.290   0.656  14.176  0.5748  0.7874 -0.0006
13891TIP3    H263165   4.211   0.679  14.303 -2.5037 -0.1616 -1.6148
13892TIP3   OH263166   1.886   3.474  15.683 -0.2281 -0.7298  0.1623
13892TIP3    H163167   1.876   3.536  15.610 -2.7547  0.3463  1.3243
13892TIP3    H263168   1.897   3.530  15.760 -0.7579 -1.7739  1.0101
13893TIP3   OH263169   5.273   1.761  11.410  0.1645 -0.2340 -0.2576
13893TIP3    H163170   5.312   1.690  11.460  0.3066  1.1251  1.6587
13893TIP3    H263171   5.235   1.718  11.333  0.7108 -2.2887  0.5574
13894TIP3   OH263172   3.241   5.247  11.415 -0.1182  0.7095  0.1548
13894TIP3    H163173   3.290   5.246  11.333  0.8725 -0.2717  0.7289
13894TIP3    H263174   3.155   5.211  11.393 -0.1875  1.3371 -0.6297
13895TIP3   OH263175   5.595   2.452  11.921  0.1096  0.4986  0.1888
13895TIP3    H163176   5.651   2.527  11.901 -0.4186  1.4362  2.0288
13895TIP3    H263177   5.509   2.477  11.886  0.2326  0.1319 -0.4033
13896TIP3   OH263178   4.271   5.088   0.992  0.3354 -0.1894 -0.0705
13896TIP3    H163179   4.366   5.079   0.982  0.3965  0.0522  0.2575
13896TIP3    H263180   4.237   5.083   0.903  0.4555 -2.4081 -0.0422
13897TIP3   OH263181   0.733   4.105   3.695 -0.8756 -0.3925 -0.4142
13897TIP3    H163182   0.658   4.153   3.660  0.7636  0.6510 -2.8201
13897TIP3    H263183   0.766   4.055   3.620  0.8908 -0.7082  0.5164
13898TIP3   OH263184   4.911   3.240   5.613 -0.1750  0.2359  0.6273
13898TIP3    H163185   4.867   3.261   5.530 -0.2986  2.4217  1.1846
13898TIP3    H263186   4.969   3.168   5.591 -1.2179 -0.1593 -1.0337
13899TIP3   OH263187   3.807   5.784  15.732 -0.1921 -0.3938  0.6344
13899TIP3    H163188   3.723   5.824  15.757 -1.6019 -1.5895 -1.8240
13899TIP3    H263189   3.786   5.692  15.714  1.6092 -0.6869 -0.2243
13900TIP3   OH263190   4.261   2.816   5.542  0.2630 -0.2078 -0.0185
13900TIP3    H163191   4.264   2.726   5.509  0.9793  0.4450 -1.8269
13900TIP3    H263192   4.169   2.829   5.567 -0.3896 -0.6860 -1.9885
13901TIP3   OH263193   0.226   0.798   5.198 -0.0751  0.3091  0.0021
13901TIP3    H163194   0.194   0.868   5.255 -0.5214  1.3310 -1.4613
13901TIP3    H263195   0.174   0.806   5.119  1.5849 -0.0858 -1.1703
13902TIP3   OH263196   5.011   1.771   6.173  0.4622  0.4255  0.5103
13902TIP3    H163197   5.034   1.765   6.080  1.8516 -0.0498  0.8558
13902TIP3    H263198   5.006   1.865   6.190  0.7106  0.5211  0.0692
13903TIP3   OH263199   5.609   2.400  12.391  0.0964 -0.2022 -0.2050
13903TIP3    H163200   5.570   2.486  12.374  0.0535 -0.4200 -1.3471
13903TIP3    H263201   5.703   2.417  12.397  0.0654 -0.0412 -0.1753
13904TIP3   OH263202   1.908   6.700  17.208 -0.1504  0.0318  0.1298
13904TIP3    H163203   1.848   6.637  17.249  0.2695  0.2206  1.0720
13904TIP3    H263204   1.935   6.756  17.280 -2.3670  2.8610 -1.0549
13905TIP3   OH263205   1.200   3.480  14.635 -0.5498 -0.2214 -0.7333
13905TIP3    H163206   1.112   3.457  14.663 -0.0447  0.5058  1.6512
13905TIP3    H263207   1.247   3.396  14.631 -0.8688 -0.4243 -0.2268
13906TIP3   OH263208   5.258   2.720   5.928 -0.0187  0.1038 -0.2198
13906TIP3    H163209   5.305   2.651   5.975 -0.4248  0.1713  0.2922
13906TIP3    H263210   5.167   2.709   5.955  0.1771  2.1372  1.4791
13907TIP3   OH263211   0.782   1.068  12.986 -0.9111  0.0372 -0.0837
13907TIP3    H163212   0.812   1.155  13.012  1.1916 -0.6462 -0.0092
13907TIP3    H263213   0.770   1.021  13.069  1.2473 -0.7252 -0.1552
13908TIP3   OH263214   0.948   1.564   3.698  0.7899 -0.0179 -0.2050
13908TIP3    H163215   0.869   1.610   3.670  1.5193  0.6799 -1.1950
13908TIP3    H263216   0.967   1.502   3.627 -0.0317 -1.7343  0.9902
13909TIP3   OH263217   4.094   4.616   4.296 -0.9691  0.0803  0.1002
13909TIP3    H163218   4.136   4.649   4.375 -1.7466  2.3626 -0.3660
13909TIP3    H263219   4.167   4.586   4.241 -0.0358  2.1559  0.1035
13910TIP3   OH263220   5.148   6.661  14.104 -0.6574 -0.5352  0.4047
13910TIP3    H163221   5.100   6.594  14.056  0.5599 -1.6135  0.6096
13910TIP3    H263222   5.189   6.614  14.177  0.3012  0.4000  0.5091
13911TIP3   OH263223   0.116   3.812  12.306 -0.5380  0.0397 -0.5916
13911TIP3    H163224   0.021   3.812  12.300 -0.7372  2.7142  0.8745
13911TIP3    H263225   0.144   3.742  12.248 -3.4435 -2.0898  0.3647
13912TIP3   OH263226   2.700   2.761   3.006  0.2574  0.4651 -0.3544
13912TIP3    H163227   2.751   2.684   2.980  0.4326  0.5477 -0.2538
13912TIP3    H263228   2.650   2.783   2.927 -0.9156 -0.6285  0.0378
13913TIP3   OH263229   5.118   5.269  11.693 -0.6606  1.1286  0.3987
13913TIP3    H163230   5.152   5.297  11.778 -0.4144  0.8113  0.4083
13913TIP3    H263231   5.024   5.281  11.700 -0.6328  1.1965  0.6835
13914TIP3   OH263232   0.112   6.686  11.577 -0.0965 -0.3567  0.2680
13914TIP3    H163233   0.152   6.721  11.656 -0.3479 -1.5174  0.9258
13914TIP3    H263234   0.031   6.646  11.606  0.4825 -2.0614 -0.3214
13915TIP3   OH263235   0.930   5.946  15.471  0.0962 -0.7030  0.1558
13915TIP3    H163236   0.904   5.922  15.382 -1.0040 -0.6113  0.4410
13915TIP3    H263237   0.848   5.968  15.515  0.7652  0.8738  0.7098
13916TIP3   OH263238   4.838   2.290   5.450 -0.1951  0.3475 -0.2333
13916TIP3    H163239   4.885   2.228   5.505 -0.9553  1.7120  2.1429
13916TIP3    H263240   4.905   2.352   5.420  0.3213 -0.7373 -1.4020
13917TIP3   OH263241   3.734   4.386  14.938  0.6416 -0.1126  0.5537
13917TIP3    H163242   3.661   4.326  14.924 -0.9174  1.8560 -0.2408
13917TIP3    H263243   3.739   4.437  14.857  2.1998  0.5493  1.0165
13918TIP3   OH263244   2.994   0.961   1.928 -0.0007 -0.0364  0.5083
13918TIP3    H163245   3.088   0.960   1.908 -0.2727  0.1024 -0.8191
13918TIP3    H263246   2.967   0.869   1.919  0.1566 -0.2305  1.7503
13919TIP3   OH263247   6.700   4.209   5.672  0.7061 -0.0268 -0.0656
13919TIP3    H163248   6.681   4.127   5.717  1.7360 -0.9050 -1.1591
13919TIP3    H263249   6.614   4.243   5.648  0.2679 -1.1009 -0.1036
13920TIP3   OH263250   2.215   2.245  13.988  0.4316 -0.4322  0.6086
13920TIP3    H163251   2.184   2.223  14.075 -0.1886  0.5689  0.6575
13920TIP3    H263252   2.156   2.199  13.929 -0.0409  0.0199  0.7186
13921TIP3   OH263253   0.272   6.092  16.294 -0.0286 -0.0108  0.1650
13921TIP3    H163254   0.187   6.073  16.255 -0.2788 -0.0846  0.7453
13921TIP3    H263255   0.332   6.097  16.219 -0.3798 -0.8198 -0.1820
13922TIP3   OH263256   0.086   0.839  13.997  0.1836  0.3168 -0.0509
13922TIP3    H163257   0.079   0.753  14.039 -0.0160 -0.6563 -1.9574
13922TIP3    H263258  -0.002   0.875  14.002 -0.6120 -1.1259 -2.2123
13923TIP3   OH263259   4.989   3.875  12.331 -0.1873  0.6486 -0.1285
13923TIP3    H163260   4.922   3.811  12.309 -1.0191  1.1600  0.8303
13923TIP3    H263261   4.984   3.884  12.426  2.3301 -0.4701  0.1998
13924TIP3   OH263262   6.536   1.856   2.882  0.1983  0.0518  0.2790
13924TIP3    H163263   6.571   1.847   2.793  0.1777  0.4529  0.2310
13924TIP3    H263264   6.614   1.860   2.937  0.2370  0.7700  0.1871
13925TIP3   OH263265   0.218   1.846  11.389  0.1246 -0.4442 -0.1227
13925TIP3    H163266   0.177   1.850  11.475 -0.1742 -1.0764 -0.2326
13925TIP3    H263267   0.232   1.753  11.373  0.6295 -0.3015 -0.5475
13926TIP3   OH263268   1.945   3.578   2.896  0.0294 -0.4094  0.5433
13926TIP3    H163269   1.974   3.602   2.808 -2.5029  0.8246 -0.0716
13926TIP3    H263270   2.019   3.599   2.953  1.7936 -1.4094 -1.2790
13927TIP3   OH263271   4.984   3.165   5.859  0.0113 -0.3877 -0.2689
13927TIP3    H163272   5.059   3.113   5.831  0.7308  1.2312 -1.5593
13927TIP3    H263273   4.965   3.221   5.783 -1.1646  0.6943  0.7842
13928TIP3   OH263274   5.379   2.117  15.225 -0.1935  0.4818  0.5276
13928TIP3    H163275   5.315   2.165  15.278 -1.6791  1.9146 -2.3074
13928TIP3    H263276   5.451   2.180  15.212  0.4480 -0.0764  1.2764
13929TIP3   OH263277   2.931   3.210  16.894  0.0402 -0.5155 -0.0178
13929TIP3    H163278   2.978   3.252  16.822  0.6211 -0.4153  0.4152
13929TIP3    H263279   2.894   3.131  16.855  0.5507 -0.5870 -0.3674
13930TIP3   OH263280   3.550   4.476   2.482  0.4433 -0.2088  0.7439
13930TIP3    H163281   3.496   4.508   2.554 -0.0534  1.3453 -0.2612
13930TIP3    H263282   3.624   4.432   2.525 -1.2281 -1.7928  2.1538
13931TIP3   OH263283   3.784   1.184  12.209 -0.0031 -0.1440 -0.7534
13931TIP3    H163284   3.874   1.156  12.192 -0.0568 -0.8665  0.0851
13931TIP3    H263285   3.792   1.271  12.248  0.3185 -0.1057 -0.9094
13932TIP3   OH263286   0.539   0.123   0.593  0.0740 -0.1755  0.1418
13932TIP3    H163287   0.627   0.153   0.569  0.1662  0.4896  1.2396
13932TIP3    H263288   0.485   0.203   0.590 -1.0053 -0.8876 -2.5329
13933TIP3   OH263289   3.820   4.096  13.923 -0.1075 -0.1382 -0.2061
13933TIP3    H163290   3.756   4.112  13.993 -0.0576  3.4439 -0.7940
13933TIP3    H263291   3.771   4.108  13.842  0.3446 -2.0892 -0.8365
13934TIP3   OH263292   4.785   5.017  17.056 -0.1678  0.3226  0.0780
13934TIP3    H163293   4.718   5.021  17.125 -0.1396  2.4390  0.0397
13934TIP3    H263294   4.742   4.971  16.984 -0.6717 -0.6602  0.9732
13935TIP3   OH263295   0.233   0.224  16.848  0.5717  0.0577  0.1225
13935TIP3    H163296   0.295   0.294  16.829 -0.6914  0.7620 -1.7104
13935TIP3    H263297   0.148   0.269  16.854  0.0402 -1.0419  1.3066
13936TIP3   OH263298   5.919   5.389  13.996 -0.1510  1.3025 -0.3353
13936TIP3    H163299   5.948   5.311  14.044  1.5644  2.3339  0.4157
13936TIP3    H263300   5.875   5.443  14.062 -0.6238  1.3351 -0.6698
13937TIP3   OH263301   2.431   4.330   4.130  0.2551 -0.2052  0.0821
13937TIP3    H163302   2.464   4.282   4.054 -0.2472 -0.6257  0.1232
13937TIP3    H263303   2.414   4.263   4.196  3.8738  0.4024  1.8491
13938TIP3   OH263304   4.869   1.459   1.673 -0.0569  0.3700 -0.2832
13938TIP3    H163305   4.840   1.368   1.684  1.4906 -0.3799 -1.8889
13938TIP3    H263306   4.899   1.485   1.760  2.2709 -1.7551 -0.3171
13939TIP3   OH263307   1.866   6.669   3.482  0.1359  0.0077  0.0189
13939TIP3    H163308   1.894   6.581   3.458  0.6574  0.2597 -0.3122
13939TIP3    H263309   1.946   6.714   3.507 -0.1726  0.2916  0.5128
13940TIP3   OH263310   4.063   4.745  16.399 -0.1980  0.5147 -0.2062
13940TIP3    H163311   4.158   4.760  16.399  0.0143 -0.6771 -0.1181
13940TIP3    H263312   4.043   4.723  16.308 -0.2017 -0.2263 -0.0342
13941TIP3   OH263313   3.888   4.344   4.643 -0.3744  0.7474  0.0029
13941TIP3    H163314   3.953   4.304   4.586 -0.5115 -0.2385  0.5234
13941TIP3    H263315   3.932   4.421   4.680 -0.6595  2.1143 -2.3021
13942TIP3   OH263316   3.563   3.058  15.468 -0.7381  0.3657 -0.0546
13942TIP3    H163317   3.497   3.125  15.483  1.3604  2.9464 -1.5355
13942TIP3    H263318   3.637   3.084  15.523  0.5175 -0.0740 -1.4581
13943TIP3   OH263319   1.338   5.813   1.544 -0.0528  0.1339  0.2253
13943TIP3    H163320   1.255   5.768   1.528 -0.1850 -0.4002  2.2166
13943TIP3    H263321   1.389   5.752   1.597  1.1082  0.9945  0.1448
13944TIP3   OH263322   1.218   3.344   1.618  0.0365 -0.0799  0.0708
13944TIP3    H163323   1.299   3.300   1.642  0.3197  1.0594  1.3124
13944TIP3    H263324   1.174   3.361   1.701 -0.9393  0.3149 -0.5045
13945TIP3   OH263325   2.575   4.402  14.354 -0.0631 -0.1558 -0.0299
13945TIP3    H163326   2.520   4.454  14.295  0.7220  2.5818  1.4962
13945TIP3    H263327   2.663   4.411  14.318  0.1775  0.1622  0.6227
13946TIP3   OH263328   1.511   0.230   6.030 -0.1468 -0.1439  0.0079
13946TIP3    H163329   1.536   0.305   6.083 -1.2221  0.1362  0.1388
13946TIP3    H263330   1.592   0.203   5.987  0.4924  0.3687  0.8515
13947TIP3   OH263331   0.436   2.055  14.284 -0.0470 -0.2096 -0.5306
13947TIP3    H163332   0.447   2.086  14.194  1.2292 -3.7375 -1.7796
13947TIP3    H263333   0.502   2.103  14.334  1.4786 -0.4410 -2.1986
13948TIP3   OH263334   2.938   1.277  12.977  0.4825 -0.1556  0.2873
13948TIP3    H163335   2.981   1.209  12.925 -1.1387 -0.8575 -0.2017
13948TIP3    H263336   2.988   1.357  12.959  0.3478 -0.5062 -1.9163
13949TIP3   OH263337   3.174   3.654  15.520  0.0891 -0.1900 -0.0007
13949TIP3    H163338   3.212   3.736  15.486  1.8948 -0.5480  1.0448
13949TIP3    H263339   3.086   3.652  15.482  1.0909  0.6540 -2.6535
13950TIP3   OH263340   0.555   6.161  15.179  0.1549  0.0803  0.1317
13950TIP3    H163341   0.617   6.189  15.246 -0.3679 -0.0015  0.6646
13950TIP3    H263342   0.501   6.094  15.223 -0.7563  0.6435 -0.1011
13951TIP3   OH263343   5.838   5.327   2.444 -0.2411  0.1813 -0.1363
13951TIP3    H163344   5.874   5.405   2.402 -1.5701  0.9212  0.0263
13951TIP3    H263345   5.853   5.340   2.537  0.7078 -0.3953 -0.1994
13952TIP3   OH263346   5.476   5.110   2.451 -0.3510 -0.5106 -0.1934
13952TIP3    H163347   5.456   5.032   2.503 -1.1432 -0.6899 -0.7456
13952TIP3    H263348   5.429   5.181   2.495 -0.0378 -0.4314  0.0195
13953TIP3   OH263349   2.028   5.508   0.961  0.4007 -0.5647 -0.2607
13953TIP3    H163350   2.118   5.481   0.942  0.9010  0.1989  0.8818
13953TIP3    H263351   2.004   5.457   1.038  0.4879  0.4556  0.4612
13954TIP3   OH263352   3.137   6.648   2.725 -0.2481  0.1957  0.3588
13954TIP3    H163353   3.119   6.557   2.703  0.1684 -0.0617  1.0319
13954TIP3    H263354   3.063   6.675   2.780  0.0292 -0.0070  0.8465
13955TIP3   OH263355   6.347   6.087  16.330 -0.2956 -0.1757 -0.8795
13955TIP3    H163356   6.374   6.041  16.250 -0.2246  1.8121 -2.0518
13955TIP3    H263357   6.359   6.179  16.310  1.1434  0.3610  1.9657
13956TIP3   OH263358   3.776   0.939   0.341  0.2294  0.2137 -0.5721
13956TIP3    H163359   3.700   0.915   0.288  0.6975  0.4819 -1.3793
13956TIP3    H263360   3.767   0.887   0.421 -0.2452 -0.5438 -1.1051
13957TIP3   OH263361   0.035   1.928  15.962  0.3996  0.0012 -0.3794
13957TIP3    H163362   0.016   1.858  16.024  1.1207  0.3032  0.1951
13957TIP3    H263363   0.051   2.005  16.016  1.5463  0.1482 -0.9044
13958TIP3   OH263364   1.603   3.579   3.172  0.1799  0.1074  0.7399
13958TIP3    H163365   1.562   3.555   3.255  0.3128  0.0756  0.7962
13958TIP3    H263366   1.550   3.651   3.139  1.6136  1.9003  2.0980
13959TIP3   OH263367   1.219   5.874  13.946  0.2990 -0.6153 -0.3022
13959TIP3    H163368   1.176   5.835  14.022  1.8176  0.8007  1.3584
13959TIP3    H263369   1.177   5.960  13.936  1.9127  0.3245  0.6593
13960TIP3   OH263370   6.498   2.258  13.898 -0.0955  0.1023 -0.0671
13960TIP3    H163371   6.432   2.254  13.967 -0.5007 -0.7425 -0.4838
13960TIP3    H263372   6.458   2.314  13.830 -1.3737 -2.1628 -1.2874
13961TIP3   OH263373   2.524   2.319   5.181  0.1202  0.3335  0.1151
13961TIP3    H163374   2.500   2.405   5.216 -1.6300  0.6450 -1.6704
13961TIP3    H263375   2.508   2.326   5.087  0.9469 -1.6487 -0.2297
13962TIP3   OH263376   6.547   5.527  12.849 -0.2343  0.1296  0.2758
13962TIP3    H163377   6.613   5.462  12.872 -1.9629 -2.4622 -1.5898
13962TIP3    H263378   6.529   5.573  12.932  0.5177 -2.2856  1.8934
13963TIP3   OH263379   5.328   4.221   1.040 -0.3081  0.1868 -0.0344
13963TIP3    H163380   5.360   4.142   0.997  0.4030 -0.1515  1.0704
13963TIP3    H263381   5.251   4.193   1.090 -1.1126  0.5703 -1.0252
13964TIP3   OH263382   5.976   1.561   1.079 -0.7910 -0.8228 -0.0473
13964TIP3    H163383   5.958   1.501   1.007 -0.4434 -0.1213 -0.7280
13964TIP3    H263384   5.985   1.647   1.038 -4.9198  0.4660  1.2162
13965TIP3   OH263385   3.338   0.356   6.498 -0.0828  0.3134 -0.8982
13965TIP3    H163386   3.382   0.278   6.532 -2.5339 -0.8842 -0.2462
13965TIP3    H263387   3.382   0.374   6.415  1.0559 -1.2742 -0.6876
13966TIP3   OH263388   0.526   0.731   1.170 -0.2275  0.3870  0.3601
13966TIP3    H163389   0.490   0.643   1.185  0.7204 -0.4955 -1.9808
13966TIP3    H263390   0.490   0.757   1.085  1.3548  1.2589 -0.0694
13967TIP3   OH263391   0.191   0.692  10.399 -0.1370 -0.6694  0.3422
13967TIP3    H163392   0.244   0.751  10.346  1.4805 -0.9110  1.6099
13967TIP3    H263393   0.226   0.700  10.488 -1.0807 -2.1488  0.9001
13968TIP3   OH263394   3.150   6.442  16.715 -0.0375  0.1069  0.2623
13968TIP3    H163395   3.078   6.439  16.778 -0.6687 -1.4871 -0.4838
13968TIP3    H263396   3.134   6.522  16.664 -0.9173  0.0931  0.5014
13969TIP3   OH263397   0.092   4.983  17.106  0.1667  0.4314  0.1228
13969TIP3    H163398   0.126   5.037  17.035  1.3946  0.3362  0.6161
13969TIP3    H263399   0.014   4.942  17.069  0.2577  1.0989 -0.8626
13970TIP3   OH263400   5.408   1.236   2.848 -0.0627  0.6430  0.1285
13970TIP3    H163401   5.313   1.227   2.848 -0.3629  2.6423 -2.0217
13970TIP3    H263402   5.426   1.301   2.915 -0.2835  0.6966  0.1372
13971TIP3   OH263403   1.632   0.791  13.791 -0.1441  0.8421  0.1734
13971TIP3    H163404   1.661   0.836  13.871  2.8272  0.1901 -0.4260
13971TIP3    H263405   1.672   0.841  13.720 -1.2934  0.3772 -0.8324
13972TIP3   OH263406   1.110   1.440  15.260  0.3630 -0.0996  0.2600
13972TIP3    H163407   1.059   1.360  15.254  0.9360 -0.3969 -1.1175
13972TIP3    H263408   1.070   1.489  15.331 -1.6897 -0.4366 -0.5872
13973TIP3   OH263409   4.605   5.946  12.479 -0.2739  0.0979  0.0110
13973TIP3    H163410   4.528   5.903  12.516 -0.5950 -0.0996 -0.8606
13973TIP3    H263411   4.581   6.039  12.475 -0.0005  0.2167  0.8548
13974TIP3   OH263412   0.929   4.788  14.538 -0.1098  0.0674  0.1839
13974TIP3    H163413   0.947   4.712  14.483  0.9513  0.7986 -0.5297
13974TIP3    H263414   0.853   4.830  14.498 -0.4008 -0.3487  0.2975
13975TIP3   OH263415   1.565   3.016   3.332  0.1497 -0.0496 -0.0234
13975TIP3    H163416   1.543   3.034   3.423 -0.3028 -0.2812 -0.0826
13975TIP3    H263417   1.480   3.018   3.287  0.3641  0.0015 -0.4264
13976TIP3   OH263418   0.076   5.887   4.651 -0.0573 -0.0917  0.6387
13976TIP3    H163419   0.049   5.966   4.698  0.5747 -0.7782  2.2296
13976TIP3    H263420  -0.002   5.832   4.651  0.1512 -0.4097  1.6229
13977TIP3   OH263421   1.578   4.385   2.379  0.2794 -0.2223  0.1311
13977TIP3    H163422   1.562   4.312   2.438 -1.1815  1.3916  1.8508
13977TIP3    H263423   1.515   4.373   2.308 -2.9315  1.3898  2.4619
13978TIP3   OH263424   1.755   1.115  14.606  0.0910  0.6262 -0.7960
13978TIP3    H163425   1.756   1.021  14.626 -1.9267  0.4983 -1.0304
13978TIP3    H263426   1.847   1.141  14.605  0.6190 -0.9910  0.9171
13979TIP3   OH263427   6.351   1.448   0.368  0.2359 -0.4804 -0.3993
13979TIP3    H163428   6.347   1.376   0.305 -0.7973 -0.5812 -0.2251
13979TIP3    H263429   6.439   1.441   0.406  0.5981 -0.8769 -1.2851
13980TIP3   OH263430   1.397   1.923   4.429 -0.3423 -0.3657  0.2807
13980TIP3    H163431   1.309   1.891   4.448 -0.8728  1.3115  0.8610
13980TIP3    H263432   1.390   1.969   4.345  0.5587 -2.2677 -0.8937
13981TIP3   OH263433   1.523   3.804   0.316  0.0576  0.3214 -0.0893
13981TIP3    H163434   1.577   3.766   0.247 -0.5237  1.1729 -1.0471
13981TIP3    H263435   1.447   3.746   0.323  0.2251  0.1118 -0.0043
13982TIP3   OH263436   2.683   3.270   3.272  0.0806  0.0862 -0.3949
13982TIP3    H163437   2.666   3.277   3.366  0.2938  3.3551 -0.4845
13982TIP3    H263438   2.774   3.239   3.267  0.4597  0.9673  0.5556
13983TIP3   OH263439   3.806   3.457  11.144  0.4439 -0.0423 -0.0917
13983TIP3    H163440   3.828   3.531  11.087 -3.5374  1.2471 -0.2582
13983TIP3    H263441   3.789   3.385  11.084  2.3496 -0.6208 -0.0274
13984TIP3   OH263442   0.677   1.643   0.122 -0.2146  0.1639  0.3192
13984TIP3    H163443   0.661   1.548   0.126  0.6305  0.0191  0.3578
13984TIP3    H263444   0.659   1.666   0.031 -0.4417 -0.0288  0.3131
13985TIP3   OH263445   0.834   0.880   2.563 -0.3145  0.2949 -0.6210
13985TIP3    H163446   0.826   0.858   2.471 -0.1236  1.3758 -0.9043
13985TIP3    H263447   0.882   0.806   2.601  1.0943  0.6200 -1.7055
13986TIP3   OH263448   0.230   2.257   5.163 -0.1696  0.0803 -0.1918
13986TIP3    H163449   0.296   2.187   5.167 -0.5794 -0.3626 -0.8715
13986TIP3    H263450   0.255   2.318   5.232  0.9447 -0.0852 -0.4320
13987TIP3   OH263451   4.311   2.504   4.068 -0.1635  0.5378 -0.4584
13987TIP3    H163452   4.302   2.434   4.003  1.3969 -0.1236 -0.0290
13987TIP3    H263453   4.383   2.558   4.036  0.5490  0.2741  0.6098
13988TIP3   OH263454   2.367   1.823   1.695  0.4487  0.0449 -0.7099
13988TIP3    H163455   2.457   1.854   1.707  0.8676 -0.3963 -2.4478
13988TIP3    H263456   2.348   1.773   1.775  2.1841 -0.8462 -0.8008
13989TIP3   OH263457   5.479   4.416  16.646 -0.0390  0.1211 -0.6124
13989TIP3    H163458   5.507   4.498  16.686 -0.5635 -0.1255  0.2931
13989TIP3    H263459   5.509   4.349  16.708  0.2466 -0.3569 -1.2661
13990TIP3   OH263460   1.492   3.922   1.566 -0.2098 -0.2210 -0.7975
13990TIP3    H163461   1.584   3.931   1.542  0.2956 -1.0815  0.7225
13990TIP3    H263462   1.452   3.880   1.489  0.8275 -0.5992 -1.1548
13991TIP3   OH263463   3.735   3.139  13.211  0.0235  0.5807 -0.0904
13991TIP3    H163464   3.749   3.116  13.120 -1.9176  1.7715 -0.7546
13991TIP3    H263465   3.654   3.094  13.236  0.6483  0.0804  1.1358
13992TIP3   OH263466   6.136   5.621   1.587 -0.1516 -0.2344 -0.2667
13992TIP3    H163467   6.135   5.529   1.560 -0.6835 -0.7248  1.3096
13992TIP3    H263468   6.044   5.647   1.589 -0.1540 -0.2858  1.2130
13993TIP3   OH263469   2.218   5.278  10.560  0.0626  0.0143 -0.1251
13993TIP3    H163470   2.154   5.339  10.524 -0.7767 -1.6323 -1.5795
13993TIP3    H263471   2.167   5.201  10.585  0.9341  0.2293  2.6736
13994TIP3   OH263472   5.499   4.640  11.347 -0.0208  0.3164  0.0919
13994TIP3    H163473   5.521   4.729  11.375  1.5410 -0.0853  0.2400
13994TIP3    H263474   5.573   4.613  11.292 -0.7192 -0.7042 -0.3694
13995TIP3   OH263475   2.915   6.252   5.434  0.3081 -0.1543  0.0085
13995TIP3    H163476   2.860   6.313   5.384 -2.5925 -1.3417  1.5264
13995TIP3    H263477   2.920   6.174   5.378  0.6601  0.0275 -0.2194
13996TIP3   OH263478   4.517   2.737   6.533 -0.6286  0.4558 -0.8713
13996TIP3    H163479   4.453   2.778   6.475 -2.3994 -2.5014 -1.2633
13996TIP3    H263480   4.499   2.643   6.524  0.4229 -0.2627  2.8650
13997TIP3   OH263481   4.854   5.465  11.368  0.4584 -0.2655  0.0193
13997TIP3    H163482   4.934   5.496  11.411  0.4101 -1.4940  1.0769
13997TIP3    H263483   4.806   5.419  11.438 -0.7840 -0.2400 -0.7923
13998TIP3   OH263484   0.448   6.181  11.799 -0.3627 -0.1924 -0.4018
13998TIP3    H163485   0.368   6.188  11.747 -1.3714  0.7512  1.1942
13998TIP3    H263486   0.462   6.269  11.833  0.4911 -0.6986  0.5892
13999TIP3   OH263487   1.758   6.547  11.502 -0.4507 -0.0538 -0.4867
13999TIP3    H163488   1.769   6.615  11.569 -2.2450 -0.1173 -0.0656
13999TIP3    H263489   1.817   6.477  11.528  1.7589  1.4547 -1.1495
14000TIP3   OH263490   1.569   6.119   0.834 -0.0223 -0.2455  0.6624
14000TIP3    H163491   1.608   6.092   0.916  0.3620  0.3415  0.6821
14000TIP3    H263492   1.476   6.129   0.853 -0.1522 -1.3632  0.6904
14001TIP3   OH263493   2.559   4.459  12.859  0.5252 -0.0433  0.4378
14001TIP3    H163494   2.482   4.488  12.909 -0.0001  0.8343 -0.8201
14001TIP3    H263495   2.527   4.385  12.807 -0.2009  1.7808 -1.8812
14002TIP3   OH263496   2.003   5.102  14.328  0.1130  0.5593 -0.7133
14002TIP3    H163497   1.921   5.066  14.295 -0.7687  0.1563  1.7092
14002TIP3    H263498   2.038   5.033  14.384 -0.2357  2.3430  1.8551
14003TIP3   OH263499   3.075   3.292   2.578  0.2455  0.0843  0.0633
14003TIP3    H163500   3.059   3.198   2.568 -0.6678  0.2618 -0.2730
14003TIP3    H263501   3.141   3.313   2.511  1.2316 -0.4982  0.8347
14004TIP3   OH263502   0.211   0.140   4.052  0.3734 -0.4013 -0.3151
14004TIP3    H163503   0.192   0.232   4.032  2.3257  0.1409  0.0347
14004TIP3    H263504   0.152   0.118   4.123  0.3186  0.8059  0.0393
14005TIP3   OH263505   6.466   2.389   2.966  0.3711 -0.1814 -0.2665
14005TIP3    H163506   6.488   2.467   3.017 -1.0125 -0.5307  0.9339
14005TIP3    H263507   6.437   2.325   3.031 -1.6761 -0.5659 -1.4562
14006TIP3   OH263508   4.814   1.764  17.154  0.2894  0.0079  0.0723
14006TIP3    H163509   4.817   1.860  17.151 -0.1941  0.0198 -0.1162
14006TIP3    H263510   4.847   1.742  17.241  1.1118  0.3075 -0.1522
14007TIP3   OH263511   5.119   2.916   1.898 -0.1616 -0.1529 -0.0271
14007TIP3    H163512   5.057   2.980   1.862  0.4423  1.5430  1.7446
14007TIP3    H263513   5.205   2.946   1.867  0.0554 -0.6226  0.1141
14008TIP3   OH263514   1.570   4.834   3.921 -0.1273 -0.3408  0.3326
14008TIP3    H163515   1.491   4.878   3.890  0.0340 -0.3262 -0.0609
14008TIP3    H263516   1.600   4.886   3.995 -0.7214 -0.5819  0.7522
14009TIP3   OH263517   3.965   4.834  14.757 -0.4745  0.1732  0.5950
14009TIP3    H163518   3.907   4.776  14.807 -1.4801 -0.9813 -1.7775
14009TIP3    H263519   3.911   4.910  14.735 -0.1075  0.5663  1.0153
14010TIP3   OH263520   3.267   2.976  14.182 -0.7439 -0.5686 -0.0341
14010TIP3    H163521   3.195   3.030  14.214  0.6972  0.4127  1.8286
14010TIP3    H263522   3.286   2.917  14.255  0.7344 -0.3493 -0.2072
14011TIP3   OH263523   2.749   3.633   3.027  0.7424 -0.0543  0.5462
14011TIP3    H163524   2.660   3.598   3.041  1.1827 -1.0597  0.9439
14011TIP3    H263525   2.787   3.636   3.115  1.8390 -1.7273  0.1722
14012TIP3   OH263526   3.541   0.494  14.328  0.5937 -0.2006  0.2797
14012TIP3    H163527   3.598   0.543  14.269 -0.9593  1.0110 -0.2672
14012TIP3    H263528   3.460   0.482  14.279 -0.2961 -0.2617  1.7104
14013TIP3   OH263529   4.724   3.735   0.887 -0.2313 -0.0525 -0.3953
14013TIP3    H163530   4.790   3.671   0.861  0.3678  0.3781  0.0232
14013TIP3    H263531   4.709   3.787   0.809 -0.6929 -0.6750 -0.7264
14014TIP3   OH263532   2.555   6.227  16.427 -0.0695 -0.0122 -0.1944
14014TIP3    H163533   2.646   6.256  16.420  0.5061 -1.8635 -0.8604
14014TIP3    H263534   2.510   6.300  16.470  2.0887  0.1879  1.9093
14015TIP3   OH263535   0.898   4.035  17.030 -0.6050  0.3879 -0.2786
14015TIP3    H163536   0.882   4.038  16.936  1.7206  1.3339 -0.6933
14015TIP3    H263537   0.899   4.127  17.057  0.8247  0.2372  0.2564
14016TIP3   OH263538   5.306   3.576   5.496  0.4030  0.2492 -0.7310
14016TIP3    H163539   5.381   3.536   5.451  0.8751 -1.0083  1.0579
14016TIP3    H263540   5.265   3.504   5.543  0.6865  1.6317  1.8393
14017TIP3   OH263541   6.581   1.585  12.290 -0.0087  0.2365  1.0752
14017TIP3    H163542   6.629   1.606  12.210  0.9850 -0.7091  1.4147
14017TIP3    H263543   6.512   1.525  12.261  0.4836 -0.2763  0.9662
14018TIP3   OH263544   2.747   4.677  11.403  0.1413  0.0749  0.2997
14018TIP3    H163545   2.667   4.726  11.424  0.8205  1.3424  0.0500
14018TIP3    H263546   2.716   4.591  11.375 -1.1647  0.6444 -0.0958
14019TIP3   OH263547   3.144   1.596   3.217 -0.3085  0.3541 -0.5487
14019TIP3    H163548   3.109   1.659   3.280  0.4141  0.7511 -0.5376
14019TIP3    H263549   3.199   1.647   3.159 -1.4183  0.0837 -1.8811
14020TIP3   OH263550   2.030   3.259   0.143 -0.1217  0.2803 -0.0565
14020TIP3    H163551   2.019   3.167   0.166  0.3513  0.7425  2.3273
14020TIP3    H263552   2.073   3.257   0.058 -1.6696 -1.6448 -0.8871
14021TIP3   OH263553   0.471   0.933   3.419  0.4886 -0.3060 -0.0141
14021TIP3    H163554   0.429   1.012   3.453  1.1959  0.9145 -1.8590
14021TIP3    H263555   0.471   0.944   3.324  0.6376 -2.5244 -0.3286
14022TIP3   OH263556   3.059   3.936  14.547 -0.1065 -0.0824  0.5803
14022TIP3    H163557   3.000   3.941  14.622  0.6447 -1.2503  1.2807
14022TIP3    H263558   3.046   3.848  14.512 -1.3020  0.8196 -1.4178
14023TIP3   OH263559   5.338   3.569  13.836 -0.0465 -0.4988  0.4135
14023TIP3    H163560   5.296   3.497  13.789 -0.9867 -0.2429  0.8272
14023TIP3    H263561   5.269   3.634  13.847  0.2313 -0.4049  1.8294
14024TIP3   OH263562   1.586   4.984   0.003 -0.2820  0.0828 -0.2529
14024TIP3    H163563   1.615   5.062   0.050 -2.0027  1.5123 -1.4440
14024TIP3    H263564   1.553   4.926   0.071  2.9900 -0.6399  0.8949
14025TIP3   OH263565   2.073   2.321   2.091 -0.1443 -0.3119 -0.5520
14025TIP3    H163566   2.052   2.346   2.001 -0.6556  1.9056  0.1147
14025TIP3    H263567   2.116   2.398   2.127  1.6576 -1.7842  0.6259
14026TIP3   OH263568   1.247   0.635   2.114  0.1232  0.1861 -0.5846
14026TIP3    H163569   1.251   0.695   2.039 -0.6398 -1.3204 -1.8905
14026TIP3    H263570   1.338   0.607   2.126  0.5936  1.9326  0.3925
14027TIP3   OH263571   1.215   1.221  16.411 -0.3637 -0.1726  0.2563
14027TIP3    H163572   1.294   1.226  16.464  0.1509 -1.0267 -0.4098
14027TIP3    H263573   1.224   1.140  16.361 -0.9538  0.4651 -0.9377
14028TIP3   OH263574   3.135   3.708  13.189 -0.3606 -0.0034 -0.0410
14028TIP3    H163575   3.050   3.677  13.220 -0.4070  0.7029  0.5828
14028TIP3    H263576   3.154   3.784  13.245  0.7962 -0.3052 -0.0018
14029TIP3   OH263577   5.907   2.661  10.420  0.1809 -0.4042  0.1534
14029TIP3    H163578   5.997   2.677  10.449  0.4955 -1.3029 -0.2895
14029TIP3    H263579   5.853   2.690  10.493  0.7351  1.5038 -0.1213
14030TIP3   OH263580   4.302   5.168   4.741 -0.1930 -0.0820 -0.3415
14030TIP3    H163581   4.356   5.232   4.787 -0.7801 -0.2380  0.5922
14030TIP3    H263582   4.212   5.196   4.758 -0.4466 -0.9335 -0.2397
14031TIP3   OH263583   1.758   6.813  11.187 -0.3846 -0.1115  0.4533
14031TIP3    H163584   1.666   6.832  11.206 -0.8288  0.2314 -1.7233
14031TIP3    H263585   1.755   6.736  11.130  0.7848 -0.8147  1.2921
14032TIP3   OH263586   0.493   0.320  12.617 -1.0012 -0.6899 -0.0608
14032TIP3    H163587   0.495   0.225  12.628  0.9630 -0.6949 -0.1473
14032TIP3    H263588   0.481   0.333  12.523 -2.2975 -0.8137  0.0699
14033TIP3   OH263589   1.573   4.002   0.965 -0.0774 -0.4820  0.1918
14033TIP3    H163590   1.517   4.035   0.894 -0.7100 -1.6933  0.0987
14033TIP3    H263591   1.607   4.081   1.007 -1.4560  0.2833 -0.0669
14034TIP3   OH263592   2.612   0.401  16.480  0.0384 -0.3998  0.0893
14034TIP3    H163593   2.525   0.384  16.442 -0.3364  0.0348  0.7329
14034TIP3    H263594   2.593   0.442  16.564  0.8506 -1.5906  0.8761
14035TIP3   OH263595   6.196   5.141  14.361  0.0694 -0.4564  0.1895
14035TIP3    H163596   6.211   5.128  14.454  0.1643 -0.8798  0.1170
14035TIP3    H263597   6.146   5.223  14.355 -0.2511 -0.6247  0.6305
14036TIP3   OH263598   5.560   1.167  12.814  0.1419 -0.0129 -0.1467
14036TIP3    H163599   5.518   1.154  12.899 -0.5189  2.8584  0.0791
14036TIP3    H263600   5.531   1.254  12.787  3.0490  0.5563 -1.7433
14037TIP3   OH263601   4.802   5.735   0.542  0.6745 -0.0753 -0.4711
14037TIP3    H163602   4.751   5.809   0.508  1.5556 -0.4265 -2.7231
14037TIP3    H263603   4.892   5.751   0.510  1.3913 -0.8911  1.0438
14038TIP3   OH263604   1.868   1.750  12.026 -0.2157 -0.6330 -0.5057
14038TIP3    H163605   1.792   1.707  12.064  0.0107  0.5204  1.3810
14038TIP3    H263606   1.938   1.686  12.033 -0.9442 -1.7063 -2.2540
14039TIP3   OH263607   6.422   5.224   2.064  0.3121 -0.3242 -0.4386
14039TIP3    H163608   6.490   5.177   2.016  1.6885  0.5188  0.6087
14039TIP3    H263609   6.447   5.316   2.058  0.0083 -0.1129  1.0604
14040TIP3   OH263610   1.406   3.170  15.357  0.3879 -0.4285  0.1894
14040TIP3    H163611   1.353   3.134  15.285 -1.7206  2.4423  0.1450
14040TIP3    H263612   1.394   3.108  15.429 -1.2653 -1.0129 -0.5360
14041TIP3   OH263613   4.044   4.650   0.159 -0.2626 -0.6097 -0.2680
14041TIP3    H163614   3.956   4.686   0.169  0.3386  0.5612  1.2129
14041TIP3    H263615   4.053   4.633   0.065 -1.8477 -0.1915 -0.5166
14042TIP3   OH263616   6.266   2.480   1.475 -0.0858 -0.1164  0.0244
14042TIP3    H163617   6.209   2.438   1.411 -1.9554  0.1441  1.4369
14042TIP3    H263618   6.336   2.519   1.423 -2.1846  1.1604 -2.0128
14043TIP3   OH263619   4.858   2.547   2.849 -0.2547  0.4268 -0.1617
14043TIP3    H163620   4.869   2.465   2.800 -0.3704  0.0287  0.4663
14043TIP3    H263621   4.788   2.593   2.804 -1.3715 -0.6017  0.4859
14044TIP3   OH263622   1.852   5.472  12.053  0.3443  0.4906  0.2517
14044TIP3    H163623   1.823   5.545  12.109 -1.3670 -0.1831  0.2989
14044TIP3    H263624   1.893   5.411  12.114 -1.0324  0.0068  0.7294
14045TIP3   OH263625   0.232   6.011  13.551 -0.0827  0.2100 -0.1883
14045TIP3    H163626   0.295   5.987  13.483 -0.6245  0.7212 -0.8892
14045TIP3    H263627   0.170   5.939  13.553  0.2148 -0.0380  0.1156
14046TIP3   OH263628   0.760   0.166   5.185  0.0784 -0.0850  0.0139
14046TIP3    H163629   0.713   0.225   5.244  0.9489 -1.3358  2.0766
14046TIP3    H263630   0.838   0.140   5.233  0.6735 -1.4514 -1.5696
14047TIP3   OH263631   3.163   0.339  14.434 -0.9399 -0.3355  0.1899
14047TIP3    H163632   3.113   0.409  14.392 -0.7185 -0.1354  0.2547
14047TIP3    H263633   3.203   0.291  14.361 -0.9697 -0.3007  0.1512
14048TIP3   OH263634   4.401   1.821   3.996 -0.2642 -0.1272  0.1293
14048TIP3    H163635   4.392   1.727   4.013 -0.2314 -0.4617 -1.5081
14048TIP3    H263636   4.316   1.858   4.019 -0.3194 -0.5731  0.6658
14049TIP3   OH263637   6.174   6.591  12.632  0.3684  0.2622  0.2977
14049TIP3    H163638   6.127   6.527  12.684  0.0484 -0.2846 -0.6444
14049TIP3    H263639   6.137   6.675  12.658 -1.8336 -0.2142 -1.0759
14050TIP3   OH263640   2.888   0.160   1.053  0.1681  0.4007 -0.5463
14050TIP3    H163641   2.879   0.210   1.134 -0.1399 -0.3807 -0.0814
14050TIP3    H263642   2.966   0.105   1.067 -0.3922 -0.3800 -0.4126
14051TIP3   OH263643   6.704   0.189  12.739 -0.1449  0.3132  0.3452
14051TIP3    H163644   6.628   0.131  12.737 -0.7383  1.0904 -0.3820
14051TIP3    H263645   6.773   0.137  12.780 -1.1913 -0.2422  1.4507
14052TIP3   OH263646   5.664   0.747  16.720 -0.4739 -0.5709 -0.1751
14052TIP3    H163647   5.633   0.740  16.811  0.6966 -0.9454  0.2087
14052TIP3    H263648   5.736   0.685  16.715 -0.3058 -0.2940 -1.2776
14053TIP3   OH263649   4.962   4.838  15.350 -0.6422 -0.2065 -0.5180
14053TIP3    H163650   4.907   4.782  15.295 -0.4596 -1.5708  0.6367
14053TIP3    H263651   4.924   4.926  15.339 -1.9826 -0.8188 -1.0698
14054TIP3   OH263652   4.492   1.624   5.935 -0.8967 -0.3237  0.2875
14054TIP3    H163653   4.416   1.605   5.989 -1.3182 -1.2649 -0.6191
14054TIP3    H263654   4.567   1.596   5.987 -1.2681 -0.7963  0.5663
14055TIP3   OH263655   0.931   2.621   0.999  0.1343  0.2769 -0.5090
14055TIP3    H163656   0.889   2.690   0.946 -1.8920 -0.6659 -0.1944
14055TIP3    H263657   0.867   2.551   1.003  1.8119 -1.3120 -0.0678
14056TIP3   OH263658   3.021   1.366   4.990 -0.6257 -0.0562  0.5197
14056TIP3    H163659   2.989   1.415   5.067 -2.0884  0.3668 -0.3179
14056TIP3    H263660   3.091   1.421   4.955 -0.0266 -0.1905  1.4724
14057TIP3   OH263661   2.980   2.281  11.333 -0.4512  0.1043  0.1093
14057TIP3    H163662   3.060   2.257  11.287 -1.6797 -1.9928 -1.1135
14057TIP3    H263663   2.983   2.230  11.414 -0.5357 -0.0180  0.0378
14058TIP3   OH263664   4.887   3.636  11.331  0.0099  0.2367 -0.0111
14058TIP3    H163665   4.954   3.622  11.264 -1.6878  0.0354 -1.7385
14058TIP3    H263666   4.843   3.717  11.305 -0.0646  0.6841  1.4240
14059TIP3   OH263667   3.029   1.300  12.573 -0.7522  0.1802  0.2490
14059TIP3    H163668   3.117   1.303  12.534 -0.8779 -0.4225 -0.1050
14059TIP3    H263669   3.041   1.253  12.655 -0.9911 -1.4261 -0.5789
14060TIP3   OH263670   5.312   6.290  15.523  1.0461  0.0559  0.1532
14060TIP3    H163671   5.245   6.350  15.491  1.4375 -0.8396 -2.5789
14060TIP3    H263672   5.300   6.289  15.618 -0.3527  2.7552  0.0881
14061TIP3   OH263673   1.423   4.932  11.521  0.2298  0.0963  0.0812
14061TIP3    H163674   1.417   5.011  11.467  1.7102  0.0875 -0.1416
14061TIP3    H263675   1.460   4.866  11.462  0.0482 -0.4555  0.5742
14062TIP3   OH263676   1.883   0.119   4.846  0.5780 -0.2870  0.0621
14062TIP3    H163677   1.797   0.097   4.810  0.9545 -1.7125 -0.0494
14062TIP3    H263678   1.883   0.214   4.853 -1.4718 -0.3075  1.2167
14063TIP3   OH263679   0.102   1.008   5.487  0.0245 -0.3093  0.0815
14063TIP3    H163680   0.110   1.101   5.511  0.1519  0.1405 -1.5343
14063TIP3    H263681   0.015   1.000   5.449  0.1100 -0.7834 -0.0251
14064TIP3   OH263682   0.106   5.756  14.293 -0.1885  0.3036 -0.2716
14064TIP3    H163683   0.118   5.663  14.311  0.1398  0.2144 -0.9474
14064TIP3    H263684   0.109   5.763  14.198 -2.3755  0.6973 -0.3623
14065TIP3   OH263685   4.282   5.715   1.024  0.3963 -0.3974 -0.5295
14065TIP3    H163686   4.298   5.695   1.117  0.4972  3.8075  0.6120
14065TIP3    H263687   4.192   5.687   1.008 -0.7444  1.4379  1.9152
14066TIP3   OH263688   5.173   0.937   0.437  0.6126 -0.4267 -0.8713
14066TIP3    H163689   5.178   0.877   0.363  1.0192 -1.4463 -0.0508
14066TIP3    H263690   5.239   0.905   0.498  1.8654  1.7505 -1.0069
14067TIP3   OH263691   1.518   6.200   5.746 -0.2420 -0.1468 -0.0058
14067TIP3    H163692   1.512   6.291   5.720 -0.0482 -0.2591 -0.4571
14067TIP3    H263693   1.540   6.203   5.839  1.1735  0.2921 -0.3235
14068TIP3   OH263694   0.539   2.117   3.874  0.0505 -0.2861  0.1743
14068TIP3    H163695   0.489   2.035   3.869 -0.2469 -0.0315 -2.9213
14068TIP3    H263696   0.519   2.152   3.961 -2.4023 -1.9173  0.3635
14069TIP3   OH263697   6.549   3.026  11.417  0.1830  0.7682 -0.0565
14069TIP3    H163698   6.592   3.057  11.497  0.5661 -1.3661  0.6607
14069TIP3    H263699   6.622   2.998  11.361 -0.1144  1.5912 -0.8692
14070TIP3   OH263700   1.929   2.872   5.814 -0.5076 -0.0373  0.0496
14070TIP3    H163701   1.862   2.940   5.823  0.5592  1.1640 -0.6668
14070TIP3    H263702   1.937   2.836   5.902  0.7702  2.6605  1.1694
14071TIP3   OH263703   1.955   5.727   2.181  0.2572  0.3013  0.3454
14071TIP3    H163704   1.991   5.776   2.107 -0.3526 -1.9632 -1.5794
14071TIP3    H263705   1.864   5.756   2.186  0.2233  0.2700 -0.0123
14072TIP3   OH263706   0.033   0.384   0.902 -0.3175 -0.1032  0.7075
14072TIP3    H163707  -0.014   0.380   0.985  0.0745 -2.4557  0.8952
14072TIP3    H263708   0.115   0.427   0.923 -1.1799  1.4751  0.9880
14073TIP3   OH263709   0.242   0.997  15.722  0.2346 -0.0655 -0.3062
14073TIP3    H163710   0.228   0.976  15.814  0.9659  0.3180 -0.0987
14073TIP3    H263711   0.267   0.913  15.682  0.0622 -0.2028 -0.1253
14074TIP3   OH263712   1.835   3.817   6.598 -0.1006 -0.3066  0.3269
14074TIP3    H163713   1.794   3.903   6.601  0.3943 -0.0777  0.6786
14074TIP3    H263714   1.836   3.787   6.689 -1.2675 -1.1735  0.0802
14075TIP3   OH263715   4.882   5.255   3.499 -0.0582  0.3595 -0.2794
14075TIP3    H163716   4.920   5.342   3.482  0.8728  0.0170 -0.0170
14075TIP3    H263717   4.818   5.271   3.568  0.5100  0.7579  0.1690
14076TIP3   OH263718   4.526   6.756  13.199 -0.1175 -0.1524  0.9180
14076TIP3    H163719   4.605   6.773  13.249 -1.0641 -0.1099  2.4560
14076TIP3    H263720   4.455   6.765  13.262 -1.7867  3.9792 -1.2070
14077TIP3   OH263721   1.450   6.554  16.250  0.2573 -0.1673  0.1499
14077TIP3    H163722   1.512   6.566  16.322 -1.1356 -0.1983  1.3812
14077TIP3    H263723   1.435   6.643  16.216 -0.5578  0.1115  1.1850
14078TIP3   OH263724   2.357   1.624  14.718 -0.5407  0.4438 -0.0649
14078TIP3    H163725   2.411   1.576  14.781 -1.1812  0.8756  0.8389
14078TIP3    H263726   2.378   1.585  14.633 -1.0296 -1.4336  0.6252
14079TIP3   OH263727   6.131   2.284   5.009 -0.3322 -0.1296  0.1295
14079TIP3    H163728   6.169   2.198   4.994  2.0469  0.7703  0.5208
14079TIP3    H263729   6.161   2.309   5.097 -0.1021  1.4765 -0.3595
14080TIP3   OH263730   0.212   0.611   2.895  0.2623  0.5343 -0.2716
14080TIP3    H163731   0.185   0.593   2.985  0.1986 -0.4396 -0.4761
14080TIP3    H263732   0.169   0.694   2.873  0.3092  0.8052  0.5984
14081TIP3   OH263733   2.895   5.148  16.551  0.1840 -0.2212 -0.8186
14081TIP3    H163734   2.910   5.092  16.475  0.8501 -0.3642 -0.5935
14081TIP3    H263735   2.980   5.151  16.595  0.3929  1.5794 -1.2393
14082TIP3   OH263736   1.624   5.502  15.836  0.3349  0.3336 -0.7621
14082TIP3    H163737   1.560   5.545  15.893 -1.9055 -1.8526 -1.4325
14082TIP3    H263738   1.633   5.561  15.762 -1.1601  0.6056 -0.7650
14083TIP3   OH263739   5.621   1.378   3.434 -0.4744  0.3150  0.7636
14083TIP3    H163740   5.698   1.416   3.477  0.3050  0.2590 -0.5295
14083TIP3    H263741   5.577   1.329   3.503  1.3439 -0.6834  1.2678
14084TIP3   OH263742   5.810   3.629   3.839  0.4972  0.9168  0.0478
14084TIP3    H163743   5.834   3.713   3.799 -1.5921  1.4705 -0.1715
14084TIP3    H263744   5.717   3.638   3.859  0.6279 -0.7312  1.6407
14085TIP3   OH263745   6.124   1.042  14.601 -0.4506  0.4231 -0.1000
14085TIP3    H163746   6.216   1.067  14.606 -0.9368  2.1669  0.9822
14085TIP3    H263747   6.115   1.001  14.515  1.4229 -0.2616 -0.0190
14086TIP3   OH263748   1.001   4.804  12.764  0.1780  0.2995  0.2614
14086TIP3    H163749   1.083   4.845  12.739 -0.1091  0.4300 -0.4786
14086TIP3    H263750   1.026   4.718  12.796  0.3830 -0.8105 -2.6202
14087TIP3   OH263751   4.172   3.448  12.128 -0.4834 -0.2361  0.0459
14087TIP3    H163752   4.097   3.445  12.069 -0.9206 -0.8218  0.6098
14087TIP3    H263753   4.243   3.482  12.075 -1.5780  2.1495 -0.0169
14088TIP3   OH263754   3.125   4.841  15.071  0.3807 -0.3306 -0.0743
14088TIP3    H163755   3.199   4.810  15.018  1.4166 -1.0165  1.6826
14088TIP3    H263756   3.163   4.906  15.130 -1.0979  1.7741 -1.3240
14089TIP3   OH263757   2.489   1.688  15.681 -0.2688 -0.4310 -0.4409
14089TIP3    H163758   2.540   1.611  15.654  0.7939  0.5167 -1.2752
14089TIP3    H263759   2.547   1.762  15.663 -0.8552  0.5084  1.3437
14090TIP3   OH263760   5.574   2.372  15.567  0.1804 -0.4434  0.2837
14090TIP3    H163761   5.511   2.369  15.639  2.1678 -2.0973  2.0578
14090TIP3    H263762   5.632   2.445  15.588  0.2279 -0.3644 -0.1184
14091TIP3   OH263763   1.706   4.273   1.674 -0.1753 -0.3403 -0.1761
14091TIP3    H163764   1.798   4.245   1.671  0.0231  0.2454  0.1646
14091TIP3    H263765   1.691   4.295   1.766  0.3100  2.5699 -0.6793
14092TIP3   OH263766   5.799   5.392  14.519 -0.3781 -0.0001 -0.1508
14092TIP3    H163767   5.816   5.475  14.563 -0.7806  0.8782 -1.6005
14092TIP3    H263768   5.723   5.356  14.565 -0.2793  0.4803  0.4068
14093TIP3   OH263769   2.864   4.365  13.732  0.1155 -0.0756 -0.1704
14093TIP3    H163770   2.836   4.374  13.641  0.2389 -0.2595 -0.2269
14093TIP3    H263771   2.857   4.453  13.769 -1.1673 -0.2158 -0.0074
14094TIP3   OH263772   4.177   1.019   0.409 -0.0704 -0.2368  0.0447
14094TIP3    H163773   4.214   1.040   0.495  0.0974 -1.0115  0.1696
14094TIP3    H263774   4.248   1.035   0.347 -0.1296  0.1308  0.0712
14095TIP3   OH263775   0.367   6.180  15.441  0.0257 -0.0661  0.1942
14095TIP3    H163776   0.448   6.137  15.468  0.3507  0.8728  0.7625
14095TIP3    H263777   0.392   6.272  15.428 -0.6177 -0.0451 -1.1165
14096TIP3   OH263778   1.462   2.682   4.411 -0.0939 -0.3429  0.5971
14096TIP3    H163779   1.406   2.687   4.488 -1.1631 -0.9212 -0.1201
14096TIP3    H263780   1.529   2.749   4.426 -0.4633 -0.2319  1.8709
14097TIP3   OH263781   4.684   2.112  16.682 -0.0421  0.5584 -0.0645
14097TIP3    H163782   4.616   2.180  16.681  0.9534  1.5810 -0.7728
14097TIP3    H263783   4.683   2.078  16.772 -1.1195  0.9201  0.0779
14098TIP3   OH263784   4.509   4.804  16.264  0.2523  0.2174  0.3322
14098TIP3    H163785   4.587   4.751  16.248  0.8985  0.5019  2.3356
14098TIP3    H263786   4.486   4.839  16.177  0.8634 -1.8434 -0.7186
14099TIP3   OH263787   0.647   0.118  16.031 -0.1916 -0.1626  0.4087
14099TIP3    H163788   0.737   0.096  16.056  0.1602  1.6284  0.8572
14099TIP3    H263789   0.619   0.044  15.977  0.8808 -1.6683  1.7751
14100TIP3   OH263790   3.328   5.207  13.809 -0.1581  0.6370  0.1025
14100TIP3    H163791   3.295   5.150  13.739  3.1028  1.5756 -2.4430
14100TIP3    H263792   3.342   5.147  13.883  0.2232 -1.2931 -1.4361
14101TIP3   OH263793   0.294   0.492   0.254 -0.5223 -0.5597 -0.0333
14101TIP3    H163794   0.242   0.505   0.334  0.0789  1.3357  0.1122
14101TIP3    H263795   0.229   0.492   0.183 -0.8365  1.0913  0.2054
14102TIP3   OH263796   1.572   3.541   0.498 -0.5999 -0.5120 -0.1248
14102TIP3    H163797   1.514   3.592   0.442 -2.0794 -1.1498  0.7713
14102TIP3    H263798   1.641   3.603   0.523 -2.1108  0.9483  0.6026
14103TIP3   OH263799   1.550   4.093  13.022 -0.0812 -0.1832 -0.0380
14103TIP3    H163800   1.527   4.123  13.110  1.5145  1.8483 -0.2223
14103TIP3    H263801   1.551   4.173  12.969 -0.3444 -1.2606 -1.7609
14104TIP3   OH263802   4.485   5.179  16.993  0.0366  0.1157 -0.0346
14104TIP3    H163803   4.420   5.239  17.030 -1.7994 -1.0857 -1.1144
14104TIP3    H263804   4.472   5.184  16.898 -0.8082 -2.5180 -0.1559
14105TIP3   OH263805   3.184   4.320  15.929 -0.4785 -0.2015 -0.2374
14105TIP3    H163806   3.261   4.297  15.980  0.4518  0.4720 -1.2869
14105TIP3    H263807   3.128   4.242  15.932  0.8332 -1.1799 -0.5264
14106TIP3   OH263808   6.515   5.438  15.390 -0.2139  0.0675  0.0786
14106TIP3    H163809   6.456   5.363  15.386  0.4251 -0.5097  1.0012
14106TIP3    H263810   6.603   5.400  15.396  0.2137  0.9019 -0.5550
14107TIP3   OH263811   6.517   1.174  14.156 -0.0669 -0.3977 -0.4379
14107TIP3    H163812   6.485   1.246  14.102 -0.2631  1.5925  2.1376
14107TIP3    H263813   6.465   1.099  14.129 -0.8112  0.7071 -2.2846
14108TIP3   OH263814   3.697   4.983   0.703  0.0339 -0.3622 -0.4965
14108TIP3    H163815   3.713   5.057   0.646 -0.0677  0.4258  0.4750
14108TIP3    H263816   3.616   4.943   0.669 -1.1444  1.2824  0.2611
14109TIP3   OH263817   0.142   5.152  15.756  0.3907 -0.1265 -0.5439
14109TIP3    H163818   0.064   5.195  15.721  1.2066 -0.3341 -2.7650
14109TIP3    H263819   0.109   5.072  15.797 -0.6164  0.0778 -0.9314
14110TIP3   OH263820   3.842   5.737  11.186 -0.9262 -0.0842 -0.4877
14110TIP3    H163821   3.752   5.705  11.196 -1.1423  0.6338 -0.1152
14110TIP3    H263822   3.887   5.709  11.266 -0.3743 -1.8328 -1.3531
14111TIP3   OH263823   4.787   6.600  15.289 -0.0517 -0.4200 -0.2934
14111TIP3    H163824   4.775   6.693  15.303  1.4034 -0.1298 -0.7260
14111TIP3    H263825   4.788   6.562  15.377  2.1394  0.3933  0.0935
14112TIP3   OH263826   3.309   5.851  16.881  0.2109  0.4977  0.1379
14112TIP3    H163827   3.261   5.776  16.917  0.8863  0.0139  0.0410
14112TIP3    H263828   3.241   5.909  16.848 -0.3799  0.4571  1.2370
14113TIP3   OH263829   2.963   2.432   0.396 -0.0333 -0.8701 -0.2303
14113TIP3    H163830   3.011   2.367   0.448 -0.0403 -1.5136 -1.0220
14113TIP3    H263831   2.893   2.461   0.455  2.0056  1.0159  1.4120
14114TIP3   OH263832   2.356   0.986  12.000 -0.0425  0.2093  0.1433
14114TIP3    H163833   2.347   0.995  12.095  0.9416 -0.8988  0.3632
14114TIP3    H263834   2.404   1.065  11.973 -0.7354  0.7604  0.4827
14115TIP3   OH263835   0.608   0.574   4.851  0.0286 -0.1769  0.2105
14115TIP3    H163836   0.538   0.606   4.907  0.6793  0.6921  0.5466
14115TIP3    H263837   0.653   0.508   4.905  0.0038 -0.1100  0.3133
14116TIP3   OH263838   2.681   2.968  11.953 -0.5075  0.5481  0.2411
14116TIP3    H163839   2.735   2.918  12.015  0.1796  1.5712  0.5063
14116TIP3    H263840   2.739   2.981  11.878 -1.4727 -1.0368 -0.8345
14117TIP3   OH263841   2.263   6.729  14.714 -0.2777 -0.0467 -0.2201
14117TIP3    H163842   2.294   6.696  14.799 -0.8859 -0.2729 -0.0786
14117TIP3    H263843   2.215   6.809  14.736 -0.9497 -0.4251 -0.2747
14118TIP3   OH263844   4.389   0.200   6.650 -0.1402  0.6720 -0.0768
14118TIP3    H163845   4.326   0.239   6.589  1.6860  2.5614 -0.8927
14118TIP3    H263846   4.406   0.269   6.714  0.9058  0.1368  0.2392
14119TIP3   OH263847   0.296   6.287   3.291  0.1591  0.0714 -0.7237
14119TIP3    H163848   0.311   6.381   3.284 -1.1138  0.4252  0.6304
14119TIP3    H263849   0.377   6.247   3.262 -0.3724  1.4540 -4.6605
14120TIP3   OH263850   1.360   0.390  14.467  0.1900  0.1361 -0.2831
14120TIP3    H163851   1.323   0.434  14.390 -0.2231 -1.2966 -0.9353
14120TIP3    H263852   1.295   0.324  14.490  0.7807 -0.1306  0.6929
14121TIP3   OH263853   3.130   5.704   3.192  0.3049  0.1546  0.2442
14121TIP3    H163854   3.170   5.624   3.227  0.3801 -0.3096 -0.8447
14121TIP3    H263855   3.197   5.741   3.136  0.3500  1.1244  0.9179
14122TIP3   OH263856   3.140   1.048   5.603  0.1171  0.7701 -0.5715
14122TIP3    H163857   3.180   0.979   5.657 -0.2057  0.6752 -0.4528
14122TIP3    H263858   3.062   1.007   5.567  0.3291  0.8352 -1.1130
14123TIP3   OH263859   4.583   3.828   4.973  0.1482 -0.6692 -0.0715
14123TIP3    H163860   4.655   3.778   5.011 -0.6372 -1.0661  0.9378
14123TIP3    H263861   4.577   3.906   5.027  1.2955  0.5247 -1.5731
14124TIP3   OH263862   2.422   4.725   1.864 -0.1740  1.0276 -0.2893
14124TIP3    H163863   2.414   4.716   1.959 -0.1633 -0.8954 -0.4373
14124TIP3    H263864   2.368   4.800   1.842 -2.7371 -0.3486  0.9078
14125TIP3   OH263865   5.093   6.459  15.477 -0.2252  0.1125  0.1581
14125TIP3    H163866   5.096   6.548  15.442 -0.6332 -0.3700 -1.1500
14125TIP3    H263867   5.047   6.409  15.411  0.3995 -1.1822  0.6725
14126TIP3   OH263868   4.291   1.734   2.908  0.3761  0.4159 -0.2991
14126TIP3    H163869   4.363   1.688   2.865 -0.8397  0.9211 -3.1029
14126TIP3    H263870   4.291   1.699   2.998  2.3743 -1.5758 -0.9655
14127TIP3   OH263871   2.599   1.037  13.512 -0.1226 -0.0811 -0.6297
14127TIP3    H163872   2.567   1.102  13.575  1.4794 -1.8037  2.1459
14127TIP3    H263873   2.529   0.971  13.509 -0.4743  0.3005 -1.2236
14128TIP3   OH263874   1.680   2.276  14.366 -0.4927 -0.4173  0.3070
14128TIP3    H163875   1.735   2.261  14.443 -0.7920 -1.1335  0.3902
14128TIP3    H263876   1.590   2.269  14.400 -0.7357 -4.2850 -0.6600
14129TIP3   OH263877   3.837   4.099  13.038 -0.1751  0.3909  0.0372
14129TIP3    H163878   3.849   4.013  13.078  1.4915  0.3429 -0.4923
14129TIP3    H263879   3.793   4.081  12.955  0.3627  0.0011 -0.1742
14130TIP3   OH263880   4.019   1.454  11.389  0.1378 -0.2194 -0.5752
14130TIP3    H163881   3.931   1.488  11.373 -0.6534 -0.8424  1.9556
14130TIP3    H263882   4.059   1.517  11.448  0.5716 -1.0180  0.0016
14131TIP3   OH263883   0.381   0.764  14.307 -0.5312 -0.2836 -0.0534
14131TIP3    H163884   0.433   0.709  14.248 -1.4345 -0.6818 -0.4905
14131TIP3    H263885   0.446   0.814  14.357  0.2583  0.1085 -1.4252
14132TIP3   OH263886   3.383   4.403  15.377  0.0615 -0.5281  0.5919
14132TIP3    H163887   3.372   4.487  15.333  1.0542  1.2098  3.3865
14132TIP3    H263888   3.475   4.401  15.404 -0.5571 -1.1637  2.9649
14133TIP3   OH263889   1.632   2.295  15.793 -0.7381  0.3461 -0.2052
14133TIP3    H163890   1.715   2.275  15.835 -0.8873 -0.2267 -0.1769
14133TIP3    H263891   1.635   2.249  15.709 -0.7148  0.9429 -0.5369
14134TIP3   OH263892   6.786   1.916  12.401 -0.2491  0.2871  0.3526
14134TIP3    H163893   6.835   1.834  12.399 -2.2023 -0.9328 -0.5798
14134TIP3    H263894   6.699   1.891  12.431 -1.1505  1.8521 -0.7949
14135TIP3   OH263895   3.423   6.436  11.627 -0.0431  0.0634 -0.0287
14135TIP3    H163896   3.331   6.408  11.628  0.2890 -1.4199 -2.6639
14135TIP3    H263897   3.470   6.367  11.673 -0.2466  1.0530  1.7340
14136TIP3   OH263898   5.687   6.085   2.282  0.1376  0.3873  0.0782
14136TIP3    H163899   5.600   6.121   2.263  0.6424  0.7159 -1.8547
14136TIP3    H263900   5.673   5.991   2.290 -0.4666  0.4867  0.2194
14137TIP3   OH263901   4.786   4.670   2.928 -0.7297  0.1527 -0.5004
14137TIP3    H163902   4.727   4.649   2.857 -1.4929  0.8386 -0.0799
14137TIP3    H263903   4.873   4.643   2.896 -1.0301  0.5973 -1.7369
14138TIP3   OH263904   5.483   1.215   2.362  0.0715 -0.0852 -0.3388
14138TIP3    H163905   5.440   1.233   2.278  0.7469  1.5755 -0.3512
14138TIP3    H263906   5.563   1.167   2.337  1.0449  1.7081 -0.8164
14139TIP3   OH263907   2.817   4.904  13.904  0.7477  0.0875  0.3112
14139TIP3    H163908   2.746   4.927  13.845 -0.5959  2.2024  2.5633
14139TIP3    H263909   2.879   4.976  13.897  0.9247  0.0037  0.9544
14140TIP3   OH263910   3.929   2.450   3.584 -0.4023 -0.2324 -0.1833
14140TIP3    H163911   3.891   2.530   3.549 -0.4002  0.0817  0.5265
14140TIP3    H263912   3.853   2.396   3.608 -0.4037 -0.4042 -0.5753
14141TIP3   OH263913   6.129   2.732  12.871 -0.3906  0.1781  0.0169
14141TIP3    H163914   6.081   2.666  12.820 -1.5175  0.7552  0.3226
14141TIP3    H263915   6.213   2.740  12.825 -0.2358 -1.4479 -0.0411
14142TIP3   OH263916   6.102   6.082  16.166  0.0891 -0.1958 -0.2917
14142TIP3    H163917   6.094   6.168  16.124  0.0044 -0.5036 -0.9172
14142TIP3    H263918   6.036   6.084  16.236  0.9238  0.6954  0.4941
14143TIP3   OH263919   5.163   0.581  12.608  0.3793  0.2038  0.5140
14143TIP3    H163920   5.253   0.609  12.622 -0.2559  2.3083  0.7460
14143TIP3    H263921   5.113   0.622  12.678 -1.0357  0.7724 -0.7504
14144TIP3   OH263922   5.226   4.084   2.019  0.0619  0.2072  0.3060
14144TIP3    H163923   5.270   4.030   1.954 -0.4627 -3.7215  2.8903
14144TIP3    H263924   5.134   4.059   2.012  0.1136 -1.1899  3.0948
14145TIP3   OH263925   2.538   4.842  16.893  0.1043  0.1995  0.5793
14145TIP3    H163926   2.531   4.820  16.800 -0.8287  1.0373  0.4332
14145TIP3    H263927   2.508   4.763  16.939  2.1495 -0.8408  0.2556
14146TIP3   OH263928   4.682   4.518  11.262  0.2687  0.1003 -0.3183
14146TIP3    H163929   4.644   4.554  11.182 -1.2579 -0.0983  0.2831
14146TIP3    H263930   4.708   4.429  11.239  0.3148  0.2188 -0.7281
14147TIP3   OH263931   5.105   3.998   6.488  0.3351  0.2657 -0.9271
14147TIP3    H163932   5.191   3.963   6.467 -0.2500 -1.0587 -1.2191
14147TIP3    H263933   5.084   3.960   6.573 -0.9706 -1.4508 -1.9477
14148TIP3   OH263934   4.296   0.891   1.334 -0.5915  0.0406  0.1200
14148TIP3    H163935   4.202   0.873   1.323 -0.4497 -1.9691  1.6304
14148TIP3    H263936   4.336   0.860   1.253 -1.1795  0.3088 -0.2757
14149TIP3   OH263937   5.919   6.607   5.780 -0.0744 -0.9166  0.6717
14149TIP3    H163938   5.955   6.518   5.774 -1.1223 -1.3178 -0.0080
14149TIP3    H263939   5.979   6.653   5.839 -0.5766 -2.6075  2.6019
14150TIP3   OH263940   5.832   1.594   3.445  0.4467  0.2029 -0.5594
14150TIP3    H163941   5.814   1.566   3.355 -1.1008  0.9112 -0.5071
14150TIP3    H263942   5.897   1.533   3.477 -0.1637 -1.0588 -1.6498
14151TIP3   OH263943   6.694   2.391  11.228 -0.1905  0.4050  0.6791
14151TIP3    H163944   6.659   2.390  11.139 -0.0319 -1.6329  0.6025
14151TIP3    H263945   6.629   2.439  11.279 -1.3822 -0.3384 -0.1129
14152TIP3   OH263946   3.304   5.741   6.667 -0.1528 -0.0275 -0.0050
14152TIP3    H163947   3.388   5.708   6.700 -0.2937 -1.1721 -0.7168
14152TIP3    H263948   3.328   5.809   6.604  0.2114  0.1912  0.3654
14153TIP3   OH263949   2.541   6.559  11.276 -0.1249 -0.8586 -0.2396
14153TIP3    H163950   2.526   6.540  11.183  0.3501 -0.9665 -0.2975
14153TIP3    H263951   2.612   6.623  11.276  0.0548 -1.0575  0.0625
14154TIP3   OH263952   6.274   4.039  12.961 -0.2758 -0.4679 -0.6639
14154TIP3    H163953   6.229   3.969  12.915 -1.7345  0.0015 -0.0130
14154TIP3    H263954   6.316   4.090  12.892 -0.2179 -1.2732 -1.2343
14155TIP3   OH263955   3.749   0.930  12.785  0.4461  0.1758 -0.0979
14155TIP3    H163956   3.661   0.893  12.790  1.0491 -1.3653 -0.3755
14155TIP3    H263957   3.770   0.927  12.691  1.9845 -2.5434  0.2146
14156TIP3   OH263958   0.336   1.348  16.829  0.5407  0.1717 -0.8086
14156TIP3    H163959   0.288   1.265  16.829  0.9637 -0.0861  0.3288
14156TIP3    H263960   0.393   1.342  16.752 -1.3290  0.5751 -2.3039
14157TIP3   OH263961   2.956   1.658   5.161 -0.3726 -0.0242  0.4888
14157TIP3    H163962   3.007   1.677   5.240 -0.6504  0.0447  0.6567
14157TIP3    H263963   3.019   1.659   5.090  0.0617 -1.0703  0.8333
14158TIP3   OH263964   1.610   2.858  16.411  0.7285 -0.2010  0.2441
14158TIP3    H163965   1.612   2.769  16.377  0.0051 -0.0709 -0.1584
14158TIP3    H263966   1.521   2.890  16.392  0.7118  0.3185  1.1181
14159TIP3   OH263967   2.040   1.027   6.078 -0.2350 -0.3988 -0.2943
14159TIP3    H163968   1.969   1.071   6.124 -1.7458 -1.3518 -1.6141
14159TIP3    H263969   2.093   1.099   6.042 -0.8436  0.3318  0.2299
14160TIP3   OH263970   6.691   6.566   4.375  0.7347 -0.3208  0.4092
14160TIP3    H163971   6.778   6.593   4.346 -0.4177  2.0356 -1.1878
14160TIP3    H263972   6.678   6.612   4.458  0.6223  0.2275  0.0955
14161TIP3   OH263973   6.815   2.753   4.775 -0.5455  0.3017 -0.0894
14161TIP3    H163974   6.817   2.699   4.697 -1.1983  1.0219 -0.6170
14161TIP3    H263975   6.819   2.691   4.848 -0.5291 -0.4042 -0.6897
14162TIP3   OH263976   2.051   3.074  14.431  0.2082 -0.3440 -0.3383
14162TIP3    H163977   2.037   3.032  14.346 -1.9555 -0.1176 -0.1577
14162TIP3    H263978   2.005   3.158  14.424  0.2924 -0.1726  0.9425
14163TIP3   OH263979   4.301   5.640  14.253 -0.0954 -0.2845 -0.2492
14163TIP3    H163980   4.238   5.602  14.314  1.2220  0.3212  1.5852
14163TIP3    H263981   4.318   5.571  14.189  0.7226 -2.1145  1.8219
14164TIP3   OH263982   0.856   6.113   2.259  0.0032  0.1951 -0.0004
14164TIP3    H163983   0.761   6.106   2.244  0.1955 -1.7478 -0.5691
14164TIP3    H263984   0.881   6.193   2.213 -1.4666  1.1803  0.8188
14165TIP3   OH263985   3.165   6.011   3.277 -0.1411  0.0706 -0.2247
14165TIP3    H163986   3.186   6.100   3.250  0.8709 -0.0906  0.0051
14165TIP3    H263987   3.140   6.020   3.369 -1.5927  0.3253 -0.6148
14166TIP3   OH263988   3.670   0.685  12.325  0.2486 -0.1200 -0.2997
14166TIP3    H163989   3.663   0.657  12.234  1.9818  0.9483 -0.8156
14166TIP3    H263990   3.667   0.781  12.321  0.7244 -0.0486  0.7307
14167TIP3   OH263991   1.531   3.482   1.425 -0.5919 -0.2604 -0.0514
14167TIP3    H163992   1.586   3.512   1.498 -1.7825 -1.3200  1.3628
14167TIP3    H263993   1.544   3.547   1.356  1.7108 -0.0009  0.5439
14168TIP3   OH263994   4.445   2.185   2.229 -0.3542 -0.0109  0.2107
14168TIP3    H163995   4.415   2.095   2.242 -1.8625  0.3698 -0.4325
14168TIP3    H263996   4.366   2.238   2.233  0.0680  0.9708 -2.2532
14169TIP3   OH263997   0.171   1.479   3.621  0.0578 -0.3800 -0.4798
14169TIP3    H163998   0.125   1.551   3.663 -1.2425 -1.0126 -0.7946
14169TIP3    H263999   0.128   1.400   3.654  0.6473 -0.9733 -1.0959
14170TIP3   OH264000   4.331   4.365  16.184  0.2520  0.5023 -0.3745
14170TIP3    H164001   4.306   4.395  16.097  0.7026  0.9852 -0.3435
14170TIP3    H264002   4.315   4.271  16.183 -0.6717  0.6482 -0.6542
14171TIP3   OH264003   0.206   3.012   2.876 -0.2321  0.5284 -0.1035
14171TIP3    H164004   0.251   2.978   2.953  0.9285  0.7950 -0.6419
14171TIP3    H264005   0.238   3.102   2.866  1.7678 -0.3382 -2.4237
14172TIP3   OH264006   3.851   1.528   4.918 -0.1159 -0.0576 -0.4240
14172TIP3    H164007   3.767   1.566   4.942 -0.3241  0.4081 -1.8020
14172TIP3    H264008   3.832   1.435   4.904 -0.3399 -0.0089 -0.4429
14173TIP3   OH264009   2.224   6.475   2.373  0.3843 -0.5044 -0.4043
14173TIP3    H164010   2.310   6.515   2.381 -0.5314  1.5856 -0.3335
14173TIP3    H264011   2.195   6.461   2.463 -0.2621  0.9793 -0.3501
14174TIP3   OH264012   4.143   3.084  16.920 -0.3593  0.5781 -0.7222
14174TIP3    H164013   4.072   3.108  16.860 -0.0272  0.2166 -1.2730
14174TIP3    H264014   4.102   3.026  16.983 -0.4707  0.0132 -1.2991
14175TIP3   OH264015   4.168   3.373   3.218 -0.0500 -0.1225  0.1025
14175TIP3    H164016   4.124   3.323   3.286 -0.2507 -0.0464  0.0281
14175TIP3    H264017   4.220   3.438   3.266 -2.3095  1.7742  0.1743
14176TIP3   OH264018   0.766   0.235  13.180  0.3760  0.0518 -0.5484
14176TIP3    H164019   0.695   0.287  13.145 -0.9446 -0.9915  0.4716
14176TIP3    H264020   0.725   0.179  13.246  2.0038 -1.1246 -0.4593
14177TIP3   OH264021   0.204   3.713  14.857  0.0056 -0.0942  0.4243
14177TIP3    H164022   0.287   3.756  14.834  0.6138 -1.2708  0.3467
14177TIP3    H264023   0.148   3.727  14.781  0.0986  0.7603  0.5008
14178TIP3   OH264024   3.869   6.176  13.540  0.0046 -0.2421 -0.0966
14178TIP3    H164025   3.794   6.119  13.555 -0.2257 -0.4722 -1.9104
14178TIP3    H264026   3.945   6.123  13.563 -0.3030 -0.5536  0.2058
14179TIP3   OH264027   5.677   2.397   2.557  0.1429  0.3252  0.2771
14179TIP3    H164028   5.721   2.313   2.544  0.6687  0.5710  0.4340
14179TIP3    H264029   5.657   2.428   2.468  1.8138  0.9976  0.0902
14180TIP3   OH264030   5.488   1.954  10.370  0.2624 -0.2144 -0.6090
14180TIP3    H164031   5.446   1.884  10.320 -0.9400  0.1662 -0.1695
14180TIP3    H264032   5.548   1.995  10.308  1.2844 -1.8422 -0.7834
14181TIP3   OH264033   1.818   0.916  16.969 -0.4145  0.1340  0.1293
14181TIP3    H164034   1.766   0.873  17.037 -0.1917  1.5069  1.2015
14181TIP3    H264035   1.876   0.975  17.017  1.1099 -0.2778 -1.1375
14182TIP3   OH264036   4.095   6.328   1.130  0.3751  0.2339 -0.2330
14182TIP3    H164037   4.120   6.321   1.222 -4.1658  1.0799  1.3026
14182TIP3    H264038   4.016   6.275   1.122  0.9904 -0.4270 -3.9296
14183TIP3   OH264039   5.827   1.785   1.627  0.1665 -0.5546 -0.1854
14183TIP3    H164040   5.800   1.875   1.609 -1.4212 -1.2231 -1.4123
14183TIP3    H264041   5.915   1.778   1.590  0.0647  0.3033 -0.6199
14184TIP3   OH264042   4.186   0.087   4.369  0.0556  0.4415 -0.6305
14184TIP3    H164043   4.207   0.034   4.291  0.6376  1.0403 -0.8839
14184TIP3    H264044   4.134   0.159   4.335 -0.1829  0.3922 -0.3738
14185TIP3   OH264045   2.495   4.999   1.265 -0.0159  0.3458  0.1659
14185TIP3    H164046   2.541   5.074   1.229 -1.0964  0.2629 -1.4627
14185TIP3    H264047   2.430   4.975   1.199 -0.7437 -1.0670  1.3111
14186TIP3   OH264048   3.882   0.128  11.470  0.0993 -0.0383  0.3301
14186TIP3    H164049   3.902   0.114  11.377  1.6927 -1.5784  0.8440
14186TIP3    H264050   3.943   0.196  11.498  0.2069 -0.1799  0.4409
14187TIP3   OH264051   2.676   3.956  16.305 -0.3255 -0.6283 -0.4712
14187TIP3    H164052   2.593   4.004  16.306  1.0078  2.0045 -2.4600
14187TIP3    H264053   2.728   3.996  16.375 -1.3636 -3.8741  2.4114
14188TIP3   OH264054   3.216   4.308  12.064  0.2029 -0.0151 -0.3352
14188TIP3    H164055   3.185   4.218  12.075  0.6629 -0.0796  0.5204
14188TIP3    H264056   3.165   4.359  12.127 -0.5489  0.4655 -1.2883
14189TIP3   OH264057   3.650   1.149  14.037  0.3508 -0.4405 -0.0253
14189TIP3    H164058   3.627   1.152  14.130  0.6581  1.1780  0.0370
14189TIP3    H264059   3.610   1.229  14.001  1.9115  0.0043 -0.8597
14190TIP3   OH264060   0.930   5.204   2.223 -0.4018  0.5108 -0.5388
14190TIP3    H164061   0.837   5.226   2.219 -0.5620 -0.1180 -0.4655
14190TIP3    H264062   0.937   5.124   2.171 -0.6088 -1.6627  2.5290
14191TIP3   OH264063   3.238   2.358  12.405  0.0316  0.5765  0.1624
14191TIP3    H164064   3.297   2.413  12.354 -0.9971  1.8703  0.3142
14191TIP3    H264065   3.173   2.419  12.440 -1.6027 -0.8389 -0.2878
14192TIP3   OH264066   6.055   2.650  15.722 -0.2842 -0.1304  0.2098
14192TIP3    H164067   6.088   2.731  15.682 -0.6231  0.2946  0.7617
14192TIP3    H264068   6.043   2.673  15.814 -1.1228 -0.5721  0.2219
14193TIP3   OH264069   1.398   2.194  16.934  0.2625 -0.2215  0.6416
14193TIP3    H164070   1.377   2.245  16.856  0.8474  0.2163  0.7665
14193TIP3    H264071   1.438   2.114  16.901 -1.4417 -1.0287  0.3992
14194TIP3   OH264072   3.754   6.168   0.960 -0.1988 -0.0589  0.5638
14194TIP3    H164073   3.703   6.202   1.034  1.4252 -0.5187  1.9628
14194TIP3    H264074   3.748   6.073   0.969  1.0039 -0.1200  0.8402
14195TIP3   OH264075   0.546   3.506  12.427 -0.6004  0.2041  0.5480
14195TIP3    H164076   0.593   3.588  12.414 -2.1315  1.0413 -0.0124
14195TIP3    H264077   0.576   3.450  12.356 -1.2152  1.1162 -0.4737
14196TIP3   OH264078   3.703   2.560   5.895 -0.3004 -0.1921 -0.5073
14196TIP3    H164079   3.657   2.569   5.812 -0.5030 -1.0570 -0.4965
14196TIP3    H264080   3.786   2.606   5.882 -0.6034  0.2262 -0.9701
14197TIP3   OH264081   3.788   5.485   6.939 -0.4117  0.5541  0.0858
14197TIP3    H164082   3.816   5.576   6.949  0.9711  0.0396  1.2042
14197TIP3    H264083   3.799   5.468   6.845  3.6359  0.3084  0.4079
14198TIP3   OH264084   5.091   5.465   4.851 -0.1359 -0.2248  0.2700
14198TIP3    H164085   5.158   5.534   4.852 -2.0284  1.7230  0.0690
14198TIP3    H264086   5.069   5.451   4.943 -0.3971  0.1438  0.2683
14199TIP3   OH264087   0.257   3.943  16.511  0.0305  0.7478 -0.2674
14199TIP3    H164088   0.212   3.877  16.459  0.6903  0.8217 -0.9504
14199TIP3    H264089   0.205   3.951  16.591 -0.4553 -0.0710 -0.4946
14200TIP3   OH264090   1.550   1.947   1.558 -0.2006  0.0805 -0.1657
14200TIP3    H164091   1.490   1.875   1.536  0.3659 -0.0080 -1.5157
14200TIP3    H264092   1.563   1.993   1.475 -1.0707  2.1661  0.7834
14201TIP3   OH264093   2.254   0.639  16.507 -0.0940 -0.0969  0.1805
14201TIP3    H164094   2.171   0.683  16.526  0.6112  1.1369  0.5143
14201TIP3    H264095   2.288   0.613  16.592 -0.5874 -1.4863 -0.0283
14202TIP3   OH264096   1.402   5.149  16.131 -0.0422  0.1193 -0.4646
14202TIP3    H164097   1.451   5.185  16.057 -0.4555  0.6693 -0.4796
14202TIP3    H264098   1.448   5.069  16.154 -0.2620 -0.3919 -1.7162
14203TIP3   OH264099   2.389   6.657  13.960 -0.3144  0.0147  0.7006
14203TIP3    H164100   2.422   6.570  13.936 -0.1762 -0.1596  1.5093
14203TIP3    H264101   2.298   6.642  13.984 -0.4669  0.1987  0.2521
14204TIP3   OH264102   5.071   2.223  13.767 -0.1666  0.2378  0.4682
14204TIP3    H164103   5.160   2.194  13.787  0.2339 -1.2828 -2.8601
14204TIP3    H264104   5.082   2.311  13.732  0.2684 -0.4619 -1.2340
14205TIP3   OH264105   4.763   5.076   0.407 -0.6845 -0.5826  0.2281
14205TIP3    H164106   4.851   5.083   0.442 -0.6459 -1.1768  0.2517
14205TIP3    H264107   4.708   5.057   0.483 -0.8815  0.1071  0.2642
14206TIP3   OH264108   4.367   5.910   0.070  0.2756  0.0345 -0.1669
14206TIP3    H164109   4.425   5.839   0.044  0.9614  0.1994  0.8689
14206TIP3    H264110   4.321   5.877   0.147  1.1196  0.9573  0.7507
14207TIP3   OH264111   1.141   2.254   3.787  0.6013 -0.0827 -0.2145
14207TIP3    H164112   1.062   2.255   3.841  1.3522 -0.0038  0.9240
14207TIP3    H264113   1.139   2.336   3.739  0.5095  0.3968  0.5940
14208TIP3   OH264114   6.666   6.029   5.555  0.4818 -0.4336 -0.1532
14208TIP3    H164115   6.697   6.089   5.622 -1.7627 -0.3008  0.8364
14208TIP3    H264116   6.672   6.079   5.474 -1.1773  1.1472  0.6185
14209TIP3   OH264117   5.059   6.640  12.603 -0.6661 -0.2770 -0.0022
14209TIP3    H164118   5.141   6.671  12.565  0.1348 -2.6460 -0.3677
14209TIP3    H264119   5.006   6.615  12.528 -0.7399 -1.0480  0.2991
14210TIP3   OH264120   2.863   3.468  11.118  0.0029  1.3669 -0.2396
14210TIP3    H164121   2.914   3.521  11.056 -0.3444  0.0630 -1.6934
14210TIP3    H264122   2.806   3.415  11.063 -2.5630  2.3383  1.3175
14211TIP3   OH264123   6.223   2.276   3.164  0.1505 -0.2666 -0.2728
14211TIP3    H164124   6.207   2.279   3.069  0.8020  2.0491 -0.3648
14211TIP3    H264125   6.199   2.187   3.189 -1.7688 -0.4170 -2.3114
14212TIP3   OH264126   2.932   3.700  10.974  0.0733  0.1911  0.1667
14212TIP3    H164127   2.851   3.744  11.000 -0.3051 -0.5446  0.2658
14212TIP3    H264128   3.000   3.740  11.028 -0.3947  0.0764  0.8558
14213TIP3   OH264129   3.300   0.156  16.615 -0.1703 -0.3078  0.6374
14213TIP3    H164130   3.362   0.165  16.687 -0.8655  0.5564  1.1531
14213TIP3    H264131   3.224   0.112  16.654 -0.5501  0.1617  0.4403
14214TIP3   OH264132   2.607   5.670   4.340 -0.1872  0.4806  0.2045
14214TIP3    H164133   2.600   5.765   4.340 -2.2735  0.3989  1.7427
14214TIP3    H264134   2.642   5.649   4.427  1.6267 -0.1376 -0.6286
14215TIP3   OH264135   1.309   1.307   2.894 -0.3028  0.2934 -0.4755
14215TIP3    H164136   1.279   1.258   2.971 -0.6428 -0.2799 -0.9620
14215TIP3    H264137   1.236   1.364   2.872  0.4548  1.7464  0.6681
14216TIP3   OH264138   2.658   6.226   2.594 -0.8919  0.5366  0.2730
14216TIP3    H164139   2.594   6.159   2.618 -1.2157  0.7085 -0.1030
14216TIP3    H264140   2.717   6.230   2.669 -0.0374 -1.1550 -0.2518
14217TIP3   OH264141   2.142   5.927  13.184  0.7495 -0.3274  1.0601
14217TIP3    H164142   2.175   5.929  13.274  1.2871  0.2062  0.8557
14217TIP3    H264143   2.199   5.987  13.136  0.9539 -1.1878  0.1973
14218TIP3   OH264144   3.997   4.805  10.505  0.0169  0.0849 -0.2131
14218TIP3    H164145   4.057   4.738  10.472  2.0207  0.9421  1.4320
14218TIP3    H264146   4.055   4.875  10.536 -1.9454  1.8821 -0.4058
14219TIP3   OH264147   6.070   4.964   5.851 -0.2364  0.1111 -0.0097
14219TIP3    H164148   6.143   5.016   5.819 -0.2568  1.2122  1.6303
14219TIP3    H264149   6.069   4.979   5.946 -1.6753 -1.0568  0.1997
14220TIP3   OH264150   1.458   4.312   5.242 -0.4463 -0.0780  0.6563
14220TIP3    H164151   1.411   4.258   5.305 -1.8755 -0.3677 -0.6072
14220TIP3    H264152   1.471   4.256   5.166 -0.5697  0.8603 -0.0857
14221TIP3   OH264153   3.519   3.800  15.868 -0.3883  0.6088  0.4605
14221TIP3    H164154   3.554   3.888  15.854 -0.7272  0.4966 -1.3216
14221TIP3    H264155   3.424   3.813  15.873 -0.4569  0.3107 -0.0895
14222TIP3   OH264156   3.251   4.097  12.396 -0.2964  0.4617  0.4729
14222TIP3    H164157   3.250   4.075  12.489 -1.4770 -0.6902  0.2118
14222TIP3    H264158   3.214   4.020  12.353 -2.0494  1.9249 -0.7393
14223TIP3   OH264159   4.867   4.018  10.564 -0.6912  0.2630  0.2294
14223TIP3    H164160   4.829   3.930  10.556  0.9273 -0.6439  1.7949
14223TIP3    H264161   4.939   4.019  10.501 -1.3019  0.8346 -0.4747
14224TIP3   OH264162   0.733   6.459   5.542 -0.2007  0.5555  0.2624
14224TIP3    H164163   0.679   6.538   5.550  0.1463  0.7005  1.4331
14224TIP3    H264164   0.799   6.481   5.477  0.4167  1.5692  1.1896
14225TIP3   OH264165   3.149   1.357   5.753  0.1820 -0.4964  0.0740
14225TIP3    H164166   3.196   1.288   5.799 -0.1056 -1.0136 -0.3938
14225TIP3    H264167   3.190   1.361   5.667  1.1865  0.9533  0.5870
14226TIP3   OH264168   1.692   3.903   6.050  0.0563  0.3109  0.3667
14226TIP3    H164169   1.784   3.881   6.035  0.5004  1.7387  0.8288
14226TIP3    H264170   1.668   3.855   6.129  0.2156 -0.5458 -0.0969
14227TIP3   OH264171   3.253   3.671   1.886 -0.0072 -0.1903 -0.2468
14227TIP3    H164172   3.185   3.607   1.867 -0.1605  0.0203 -0.4149
14227TIP3    H264173   3.326   3.647   1.828 -0.4218  0.3663 -1.0239
14228TIP3   OH264174   0.352   4.125  14.041 -0.2366  0.1747 -0.2718
14228TIP3    H164175   0.419   4.062  14.067  2.1954  2.5188 -0.3072
14228TIP3    H264176   0.276   4.072  14.018  2.2003 -2.8513 -2.1861
14229TIP3   OH264177   5.362   4.809  11.638  0.1599  0.1136  0.1172
14229TIP3    H164178   5.417   4.862  11.580 -1.6793  1.1606 -0.7642
14229TIP3    H264179   5.324   4.872  11.699  0.3982 -0.6841  1.1292
14230TIP3   OH264180   3.144   3.132  15.153  0.0730 -0.1920 -0.0482
14230TIP3    H164181   3.098   3.213  15.175  0.2354 -0.5295  1.7196
14230TIP3    H264182   3.126   3.074  15.227  1.7948 -0.9714 -0.1947
14231TIP3   OH264183   4.893   2.552  16.922 -0.7292  0.2494 -0.6100
14231TIP3    H164184   4.988   2.540  16.914 -0.4966  1.5708 -0.1595
14231TIP3    H264185   4.884   2.638  16.964 -2.1145 -0.1718 -0.0081
14232TIP3   OH264186   3.860   4.744   5.605 -0.0128 -0.3291  0.3681
14232TIP3    H164187   3.783   4.792   5.575  0.0411  0.0159  0.7728
14232TIP3    H264188   3.853   4.658   5.562 -0.4777 -0.2084  0.1936
14233TIP3   OH264189   3.752   4.909   5.019 -0.0602 -0.0280  0.7994
14233TIP3    H164190   3.672   4.952   4.988  0.3745 -0.0531 -0.4062
14233TIP3    H264191   3.814   4.980   5.035 -0.7133  0.1093  3.0560
14234TIP3   OH264192   2.159   1.006   3.479  0.4250  0.4591  0.4350
14234TIP3    H164193   2.247   0.989   3.446  1.7470  3.2456  2.1058
14234TIP3    H264194   2.124   1.074   3.420  0.3704  1.0485  1.1305
14235TIP3   OH264195   0.566   6.221   0.548  0.1534 -0.4184 -0.4733
14235TIP3    H164196   0.492   6.231   0.487  0.1759  0.3937 -0.3779
14235TIP3    H264197   0.599   6.133   0.531 -2.3932 -1.8083  1.2414
14236TIP3   OH264198   5.379   0.211  11.565 -0.3812  0.5093 -0.0348
14236TIP3    H164199   5.306   0.265  11.594  0.1061  0.8267  0.6407
14236TIP3    H264200   5.426   0.188  11.645  0.7266  1.0073 -0.5020
14237TIP3   OH264201   0.413   5.215  15.725  0.3383 -0.4324 -0.0271
14237TIP3    H164202   0.394   5.305  15.698  0.8899 -0.1616  0.4701
14237TIP3    H264203   0.336   5.187  15.773  0.7245  0.2787  1.0453
14238TIP3   OH264204   4.774   1.973   5.052 -0.0426 -0.3502 -0.5805
14238TIP3    H164205   4.753   2.022   5.131  1.1929 -1.0164  0.2059
14238TIP3    H264206   4.771   1.881   5.080  0.9646 -0.5726 -1.1514
14239TIP3   OH264207   3.145   6.494  15.484 -0.1252 -0.2529  0.2064
14239TIP3    H164208   3.169   6.439  15.558 -1.3954  0.2143  0.9965
14239TIP3    H264209   3.207   6.567  15.488 -0.1778 -0.2367  0.8064
14240TIP3   OH264210   2.128   2.293  12.161 -0.2002 -0.2528 -0.2041
14240TIP3    H164211   2.155   2.239  12.236 -0.8183 -1.8073 -1.0701
14240TIP3    H264212   2.036   2.269  12.146 -0.1821  0.2978 -1.2568
14241TIP3   OH264213   6.690   3.577   2.126 -0.3478 -0.2533  0.1112
14241TIP3    H164214   6.741   3.587   2.207  0.4550 -1.4444 -0.2263
14241TIP3    H264215   6.754   3.588   2.056 -0.9275  0.1451 -0.3667
14242TIP3   OH264216   0.813   3.399   5.039 -0.3302 -0.2571  0.3037
14242TIP3    H164217   0.888   3.457   5.045 -0.4629 -0.0653  0.1580
14242TIP3    H264218   0.843   3.325   4.986 -0.5450  0.3209 -0.6458
14243TIP3   OH264219   6.174   0.511   2.203 -0.1865 -0.3353  0.0391
14243TIP3    H164220   6.265   0.489   2.186  0.1433  1.0563 -0.1141
14243TIP3    H264221   6.124   0.448   2.151  0.6845 -0.8168 -0.2368
14244TIP3   OH264222   5.565   6.323   4.424 -0.3791 -0.3673  0.7992
14244TIP3    H164223   5.572   6.366   4.510 -2.0641  1.0636  0.2752
14244TIP3    H264224   5.554   6.230   4.445  0.9911 -0.2853  2.0518
14245TIP3   OH264225   2.290   4.308  15.620  0.2053  0.2631 -0.2032
14245TIP3    H164226   2.292   4.397  15.654  0.0469  0.1661  0.0650
14245TIP3    H264227   2.310   4.253  15.696 -1.1887 -0.0271 -0.0078
14246TIP3   OH264228   6.634   1.638  14.782  0.0117 -0.4476  0.2015
14246TIP3    H164229   6.658   1.716  14.833  0.0783  0.1814 -0.7602
14246TIP3    H264230   6.574   1.671  14.716  0.0397 -1.2241 -0.2166
14247TIP3   OH264231   0.229   3.637  13.348  0.2202  0.2256 -0.1894
14247TIP3    H164232   0.270   3.571  13.404 -0.2169  0.8986  0.9856
14247TIP3    H264233   0.135   3.631  13.370  0.3209  2.2630  1.1769
14248TIP3   OH264234   4.038   3.105  14.976 -0.0700 -0.1137  0.0322
14248TIP3    H164235   4.037   3.137  14.886 -1.0510  0.8771  0.3728
14248TIP3    H264236   3.946   3.099  15.001 -0.0249  4.8583  2.7029
14249TIP3   OH264237   3.656   2.758   5.231  0.0386 -0.4227 -0.1096
14249TIP3    H164238   3.716   2.763   5.157 -0.7631 -1.0424 -0.8286
14249TIP3    H264239   3.578   2.715   5.195 -0.4021 -0.6367  1.0682
14250TIP3   OH264240   3.535   4.862  12.073  0.2750  0.3926  0.4411
14250TIP3    H164241   3.478   4.939  12.083  0.8634  1.0763 -1.0751
14250TIP3    H264242   3.479   4.788  12.093 -0.7150  1.1428  0.5470
14251TIP3   OH264243   6.090   1.305  12.806 -0.6738 -0.4767  0.1629
14251TIP3    H164244   6.082   1.306  12.711  0.5076  0.9689  0.0519
14251TIP3    H264245   6.080   1.397  12.832 -2.1723 -0.9759  1.5719
14252TIP3   OH264246   1.033   3.489   2.366  0.1465  0.3740 -0.5413
14252TIP3    H164247   1.056   3.551   2.434  0.1716 -0.4940  0.2653
14252TIP3    H264248   0.963   3.531   2.317 -2.6267 -0.4558  2.3723
14253TIP3   OH264249   1.865   5.625   0.777 -0.0181 -0.6851  0.4637
14253TIP3    H164250   1.931   5.585   0.834  1.1589  0.2257 -0.2192
14253TIP3    H264251   1.909   5.699   0.737 -1.9189  0.9029  1.1384
14254TIP3   OH264252   1.798   6.287   3.949 -0.4034  0.1951  0.2748
14254TIP3    H164253   1.727   6.293   4.013 -1.1761  0.6883 -0.6227
14254TIP3    H264254   1.765   6.332   3.871  0.0018 -1.5441 -0.9563
14255TIP3   OH264255   1.534   5.983  15.090  0.0915  0.0394  0.2048
14255TIP3    H164256   1.569   6.057  15.140  3.8161 -1.0708 -0.5025
14255TIP3    H264257   1.550   6.006  14.999 -0.0165 -1.0488 -0.0962
14256TIP3   OH264258   2.752   2.009   6.237  0.3824 -0.0069  0.4286
14256TIP3    H164259   2.685   2.017   6.169  0.0669  0.1002  0.7452
14256TIP3    H264260   2.739   2.086   6.292  0.8606  0.0848  0.4152
14257TIP3   OH264261   6.406   4.209   1.949 -0.3407  0.1535  0.4118
14257TIP3    H164262   6.419   4.120   1.916 -0.9566  0.3653 -0.4343
14257TIP3    H264263   6.493   4.237   1.976  0.1597 -0.1428 -0.8064
14258TIP3   OH264264   0.730   0.476   2.634  0.0154  0.0709  0.4879
14258TIP3    H164265   0.651   0.444   2.677  0.0267 -0.9893 -0.2491
14258TIP3    H264266   0.697   0.530   2.561 -0.0894 -1.6555 -0.7947
14259TIP3   OH264267   4.843   2.392   5.119  0.1400 -0.4995  0.1741
14259TIP3    H164268   4.830   2.468   5.176  0.8930  0.0447 -0.3651
14259TIP3    H264269   4.755   2.360   5.102 -0.1643  0.0181  0.7318
14260TIP3   OH264270   2.134   4.819  10.757  0.1046 -0.0556  0.7610
14260TIP3    H164271   2.090   4.741  10.723 -0.0399  0.1524  0.4643
14260TIP3    H264272   2.226   4.808  10.732 -0.1419  0.5035 -0.4793
14261TIP3   OH264273   6.015   2.721  13.525 -0.0804  0.1616  0.1060
14261TIP3    H164274   6.106   2.694  13.539  0.7478  2.4862 -0.3309
14261TIP3    H264275   5.997   2.783  13.595 -0.9404  0.5989 -0.4846
14262TIP3   OH264276   6.801   6.165  14.031 -0.4120 -0.1165 -0.3059
14262TIP3    H164277   6.839   6.192  13.947 -1.5448  0.0073 -0.7969
14262TIP3    H264278   6.730   6.105  14.007  0.0456 -1.0571  0.6290
14263TIP3   OH264279   4.694   2.112   5.269  0.5240 -0.0070  0.3599
14263TIP3    H164280   4.608   2.091   5.303  0.7221 -2.2311 -0.3620
14263TIP3    H264281   4.730   2.174   5.332 -1.4711  0.7603  0.8111
14264TIP3   OH264282   2.859   1.630  11.479  0.2093  0.3269 -0.2848
14264TIP3    H164283   2.885   1.609  11.389  0.1140 -1.0895 -0.0092
14264TIP3    H264284   2.928   1.688  11.511  1.0996 -0.4223 -0.7766
14265TIP3   OH264285   1.286   3.800  13.598  0.1178  0.2986 -0.1376
14265TIP3    H164286   1.255   3.891  13.594 -1.2440 -0.1683 -0.5747
14265TIP3    H264287   1.232   3.759  13.666  1.3998  0.0436  0.7636
14266TIP3   OH264288   4.375   4.464   2.728  0.2101  0.0952  0.1540
14266TIP3    H164289   4.454   4.445   2.676  1.0480 -1.2106  1.8115
14266TIP3    H264290   4.406   4.522   2.798 -0.5761  0.5600  0.1317
14267TIP3   OH264291   1.834   3.580  14.351 -0.6431 -0.0200 -0.1283
14267TIP3    H164292   1.740   3.565  14.338 -0.7051  0.5433 -0.3827
14267TIP3    H264293   1.842   3.676  14.351  0.0391 -0.0696 -0.9417
14268TIP3   OH264294   4.482   2.819  12.964  0.7056 -0.7394  0.3515
14268TIP3    H164295   4.498   2.862  12.880  0.2612  0.2028  0.7289
14268TIP3    H264296   4.481   2.891  13.027  1.1642 -1.4484  1.1852
14269TIP3   OH264297   5.515   3.851  12.658  0.2861 -0.2983  0.1157
14269TIP3    H164298   5.603   3.887  12.667  0.0112 -0.0900  3.2746
14269TIP3    H264299   5.486   3.836  12.749 -2.0701 -2.4887 -0.8638
14270TIP3   OH264300   2.449   3.901   1.507 -0.3776 -0.5869  0.0800
14270TIP3    H164301   2.508   3.953   1.452 -0.4313  2.0142  2.2999
14270TIP3    H264302   2.361   3.934   1.486 -0.4096  0.3427  1.5307
14271TIP3   OH264303   3.562   0.431  13.154  0.0916 -0.3700 -0.0983
14271TIP3    H164304   3.585   0.491  13.225 -0.2434  1.1149 -1.1842
14271TIP3    H264305   3.610   0.465  13.078 -1.7755 -0.1486 -1.2425
14272TIP3   OH264306   3.708   0.142  12.444  0.1351 -0.1303 -0.1659
14272TIP3    H164307   3.777   0.209  12.437  0.6031 -0.5280  0.5255
14272TIP3    H264308   3.628   0.187  12.417  0.2668  1.0063  1.2383
14273TIP3   OH264309   1.209   0.667  16.994  0.0352 -0.0879  0.3897
14273TIP3    H164310   1.284   0.695  17.047  0.8069 -1.1422 -0.1210
14273TIP3    H264311   1.199   0.737  16.929  2.0566 -1.0001 -0.9927
14274TIP3   OH264312   1.777   5.721   0.081 -0.0629  0.1427 -0.4811
14274TIP3    H164313   1.806   5.670   0.006  1.7320 -1.5036  1.2133
14274TIP3    H264314   1.858   5.760   0.116 -0.9145  1.2139  0.3561
14275TIP3   OH264315   3.264   1.490   1.658  0.1691  0.2065  0.4771
14275TIP3    H164316   3.292   1.564   1.604 -0.1509  0.3092  0.4522
14275TIP3    H264317   3.207   1.529   1.724 -0.4337 -0.0918  0.1383
14276TIP3   OH264318   5.898   6.190   2.606 -0.9377 -0.1239 -0.2365
14276TIP3    H164319   5.863   6.207   2.694  0.0806 -1.2144  0.4202
14276TIP3    H264320   5.945   6.271   2.583  1.7264 -0.9347  1.7527
14277TIP3   OH264321   4.769   3.472   1.680  0.2880  0.1037 -0.3205
14277TIP3    H164322   4.722   3.400   1.721  1.8071  0.1402  1.6724
14277TIP3    H264323   4.848   3.431   1.644  0.3402  0.5114 -0.6703
14278TIP3   OH264324   5.288   5.107   1.152 -0.0947  0.0472  0.0985
14278TIP3    H164325   5.199   5.097   1.185  0.5996 -0.5014  1.9214
14278TIP3    H264326   5.293   5.199   1.125 -0.6014  0.6475  1.9331
14279TIP3   OH264327   0.479   5.142   2.061 -0.0265  0.2750 -0.5176
14279TIP3    H164328   0.522   5.185   2.135  1.0767 -0.0886 -0.9444
14279TIP3    H264329   0.542   5.146   1.990 -1.1161  0.7286 -1.5059
14280TIP3   OH264330   0.234   0.876  15.954  0.2825  0.3858 -0.1249
14280TIP3    H164331   0.245   0.783  15.972  0.0865  0.5889  1.0943
14280TIP3    H264332   0.287   0.921  16.020 -1.1362  1.1716  0.5230
14281TIP3   OH264333   6.361   0.935  12.517 -0.1024  0.3879  0.9142
14281TIP3    H164334   6.330   0.889  12.595 -2.6566  0.9099  0.3133
14281TIP3    H264335   6.433   0.990  12.548 -0.9319  0.4457  2.8716
14282TIP3   OH264336   0.148   3.422  12.630 -0.9270 -0.3478 -0.3426
14282TIP3    H164337   0.149   3.336  12.589  1.6235 -0.9449  0.7802
14282TIP3    H264338   0.202   3.477  12.573 -0.6837 -0.1175  0.0972
14283TIP3   OH264339   1.226   2.583  11.426  0.5625 -0.6196  0.1242
14283TIP3    H164340   1.162   2.616  11.490 -0.4285 -0.3472 -0.9646
14283TIP3    H264341   1.218   2.488  11.432 -0.3902 -0.5892 -0.3973
14284TIP3   OH264342   5.172   6.085   0.220  0.5235  0.2312  0.0883
14284TIP3    H164343   5.235   6.028   0.264  1.1315  1.2383  0.5450
14284TIP3    H264344   5.088   6.039   0.230  1.0464 -0.7567  0.1184
14285TIP3   OH264345   6.516   6.158   5.931  0.5182  0.2481  0.0216
14285TIP3    H164346   6.514   6.184   6.023  0.4401  0.4738 -0.0450
14285TIP3    H264347   6.606   6.132   5.916  0.4265 -0.2481  0.2915
14286TIP3   OH264348   2.674   5.870   4.615 -0.3231  0.2093  0.5566
14286TIP3    H164349   2.642   5.892   4.527  0.4404  0.7960  0.4121
14286TIP3    H264350   2.682   5.775   4.614  1.1453  0.3042 -0.5546
14287TIP3   OH264351   2.981   0.439   2.283  0.4312 -0.2830  0.3235
14287TIP3    H164352   3.039   0.513   2.298  0.3257 -0.3802  1.2229
14287TIP3    H264353   2.989   0.422   2.189 -0.4720  1.6360 -0.1462
14288TIP3   OH264354   3.224   5.020   0.548 -0.3155 -0.1912  0.0881
14288TIP3    H164355   3.156   4.958   0.573  0.4463 -1.0917  0.0286
14288TIP3    H264356   3.178   5.099   0.521 -1.3865 -1.1936 -1.1164
14289TIP3   OH264357   0.206   4.131  16.914 -0.0410  0.4375  0.3346
14289TIP3    H164358   0.285   4.152  16.865  0.5423 -0.6202  0.7866
14289TIP3    H264359   0.222   4.164  17.002  0.0607 -0.1322  0.5302
14290TIP3   OH264360   6.283   3.710  13.611  0.5077  0.3484 -0.1567
14290TIP3    H164361   6.306   3.802  13.610  1.1440  0.2261  1.1770
14290TIP3    H264362   6.223   3.701  13.686  0.8228 -0.3903  0.0185
14291TIP3   OH264363   6.381   0.125  12.704  0.1365 -0.0310  0.2767
14291TIP3    H164364   6.417   0.036  12.698  0.2695  0.0190  0.3442
14291TIP3    H264365   6.331   0.135  12.623  0.2529 -0.1084  0.1949
14292TIP3   OH264366   5.373   2.034  15.651  0.6400  0.2672 -0.1571
14292TIP3    H164367   5.405   1.978  15.581  0.3086  2.0560 -1.7991
14292TIP3    H264368   5.403   2.122  15.628 -1.9396  1.3722  0.3656
14293TIP3   OH264369   3.872   2.283  12.813 -0.3449  0.1813 -0.3857
14293TIP3    H164370   3.899   2.234  12.891 -1.0144 -1.9988 -1.4448
14293TIP3    H264371   3.779   2.299  12.825 -0.4296 -0.0773 -0.6600
14294TIP3   OH264372   4.416   4.218  10.459  0.5743 -0.3928 -0.4131
14294TIP3    H164373   4.399   4.171  10.377  0.2898 -0.3088 -0.4008
14294TIP3    H264374   4.484   4.167  10.503 -0.6119 -1.4781  0.1930
14295TIP3   OH264375   5.915   1.500  13.717  0.2098 -0.2148  0.1150
14295TIP3    H164376   6.007   1.476  13.728  0.3018  0.3247  0.5583
14295TIP3    H264377   5.908   1.588  13.753  0.5745  1.8969 -4.2342
14296TIP3   OH264378   5.382   0.462   3.414  0.1336 -0.7294  0.4011
14296TIP3    H164379   5.354   0.474   3.323 -2.3753 -1.1752  1.0416
14296TIP3    H264380   5.302   0.439   3.461  1.3446 -0.4426  2.7567
14297TIP3   OH264381   5.072   5.437   2.977 -0.2851 -0.0608  0.0802
14297TIP3    H164382   5.035   5.522   2.953 -1.2764 -0.2748  0.7568
14297TIP3    H264383   5.005   5.374   2.949 -0.5376 -0.4503  1.4913
14298TIP3   OH264384   4.145   5.495  14.446  0.3992 -0.3749 -0.0948
14298TIP3    H164385   4.191   5.412  14.454  0.5465 -0.4388 -1.3573
14298TIP3    H264386   4.055   5.470  14.423  0.0822 -0.2091  0.9092
14299TIP3   OH264387   5.629   4.539  12.698 -0.0470 -0.0461 -0.9636
14299TIP3    H164388   5.549   4.585  12.723  0.8301  1.3476 -0.6420
14299TIP3    H264389   5.649   4.571  12.610  0.7112  0.4146 -0.6360
14300TIP3   OH264390   0.996   5.552  13.466  0.0912  0.1372  0.0302
14300TIP3    H164391   1.039   5.591  13.390 -0.5452  0.3015 -0.2482
14300TIP3    H264392   0.929   5.615  13.492  0.4744  0.2020  0.8961
14301TIP3   OH264393   6.068   6.084   5.141 -0.0719  0.0816  0.5405
14301TIP3    H164394   5.986   6.060   5.097  0.0790  0.2825  0.1448
14301TIP3    H264395   6.110   6.000   5.159 -0.8235 -0.0733  1.6491
14302TIP3   OH264396   6.655   4.557   2.805 -0.3886 -0.4293 -0.7923
14302TIP3    H164397   6.586   4.535   2.742 -1.0921  2.0596 -0.9948
14302TIP3    H264398   6.736   4.537   2.760 -0.8687  1.4891 -2.6823
14303TIP3   OH264399   4.295   5.366   0.935  0.0942 -0.2595  0.1631
14303TIP3    H164400   4.281   5.406   1.021  1.1301 -0.9602  0.6754
14303TIP3    H264401   4.288   5.272   0.951 -1.8631 -0.3640 -0.9524
14304TIP3   OH264402   2.644   6.723  11.038 -0.3720  0.2862 -0.3167
14304TIP3    H164403   2.636   6.636  10.999 -1.0810  0.7527 -1.2402
14304TIP3    H264404   2.588   6.779  10.985 -0.2900  1.2245  0.5482
14305TIP3   OH264405   2.814   6.537  17.133 -0.4053  0.2893 -0.0225
14305TIP3    H164406   2.878   6.476  17.171  1.1369  2.1017  0.4422
14305TIP3    H264407   2.730   6.493  17.143  0.5015 -1.2229  1.4097
14306TIP3   OH264408   3.204   2.033  10.868 -0.5896  0.0475  0.0475
14306TIP3    H164409   3.147   1.958  10.849 -0.7775  0.1229  0.3119
14306TIP3    H264410   3.256   2.005  10.943  0.5069 -0.4407 -0.8576
14307TIP3   OH264411   3.918   1.156   4.160  0.2020  0.2883 -0.2560
14307TIP3    H164412   3.962   1.184   4.080 -0.1865 -0.0496 -0.5869
14307TIP3    H264413   3.955   1.069   4.178 -1.4746 -0.7054 -1.4190
14308TIP3   OH264414   1.014   4.136   6.690  0.2251  0.4346  0.1604
14308TIP3    H164415   1.049   4.214   6.734 -0.7043 -0.1194  1.9823
14308TIP3    H264416   0.943   4.170   6.635  0.9067  1.0570 -0.3489
14309TIP3   OH264417   6.613   6.196   3.162 -0.1504  0.6494 -0.0147
14309TIP3    H164418   6.656   6.130   3.109 -0.4575  0.5937 -0.1979
14309TIP3    H264419   6.523   6.197   3.130 -0.2746  0.7891  0.3377
14310TIP3   OH264420   4.949   0.988   3.074  0.3626  0.1523  0.1384
14310TIP3    H164421   4.893   1.061   3.049 -0.0892  0.4490  1.8811
14310TIP3    H264422   5.038   1.023   3.074  0.3442  0.2100 -0.7348
14311TIP3   OH264423   6.654   6.407  13.538 -0.6596  0.0288 -0.5133
14311TIP3    H164424   6.683   6.444  13.454 -0.4809 -0.1648 -0.5392
14311TIP3    H264425   6.571   6.364  13.518 -0.1202 -0.8970 -0.8201
14312TIP3   OH264426   6.734   2.148  14.946 -0.3766 -0.1105  0.2471
14312TIP3    H164427   6.719   2.233  14.903 -1.4256 -0.5738 -0.3489
14312TIP3    H264428   6.658   2.095  14.921  0.1058 -1.1265  0.8755
14313TIP3   OH264429   1.180   2.226  11.216  0.6844 -0.2726 -0.3567
14313TIP3    H164430   1.201   2.271  11.297 -0.5571  0.8481 -0.6139
14313TIP3    H264431   1.208   2.136  11.230  0.8618 -0.0071  1.1550
14314TIP3   OH264432   5.480   6.111  16.489  0.1612  0.1966  0.2395
14314TIP3    H164433   5.450   6.166  16.416 -0.2067  0.7704  0.8140
14314TIP3    H264434   5.480   6.022  16.454 -1.8325  0.2117  0.0905
14315TIP3   OH264435   3.305   4.061   5.028 -0.4422  0.2194 -0.6327
14315TIP3    H164436   3.277   4.108   4.950 -0.7378  0.3251 -0.4634
14315TIP3    H264437   3.345   3.981   4.994  0.6675  0.8873 -0.9513
14316TIP3   OH264438   4.387   6.138  14.883  0.6502  0.4578 -0.4523
14316TIP3    H164439   4.458   6.084  14.917 -0.4142 -0.7450 -0.0477
14316TIP3    H264440   4.308   6.104  14.926  0.0592  3.2781  0.9593
14317TIP3   OH264441   5.697   6.026  12.803  0.0154 -0.0092  0.3059
14317TIP3    H164442   5.770   5.986  12.850 -1.1978 -3.3416 -0.3693
14317TIP3    H264443   5.736   6.057  12.721  0.8575 -0.9733  0.3131
14318TIP3   OH264444   6.643   3.864  12.747  0.2176 -0.3455  0.0878
14318TIP3    H164445   6.557   3.884  12.709  0.5811  1.3033  0.0812
14318TIP3    H264446   6.705   3.883  12.678  0.7944  1.4859  1.0627
14319TIP3   OH264447   1.174   0.123  13.591  0.7890 -0.2247 -0.2528
14319TIP3    H164448   1.169   0.169  13.675 -1.9352 -0.8490  0.0265
14319TIP3    H264449   1.211   0.188  13.530 -0.3554  1.4113  0.7107
14320TIP3   OH264450   4.490   6.795  10.670  0.2194 -0.0294 -0.1063
14320TIP3    H164451   4.422   6.739  10.706  0.8012  0.7908  2.4657
14320TIP3    H264452   4.492   6.773  10.576 -2.0367 -1.6170  0.1363
14321TIP3   OH264453   2.391   6.764  12.467 -1.0063  0.3550  0.4350
14321TIP3    H164454   2.355   6.824  12.401 -0.2383 -2.5952 -2.9836
14321TIP3    H264455   2.344   6.682  12.453  0.5416 -0.9659  2.3345
14322TIP3   OH264456   5.542   5.703  16.075  0.0475 -0.1251  0.5855
14322TIP3    H164457   5.541   5.785  16.025 -0.4386 -0.1550  0.5441
14322TIP3    H264458   5.502   5.725  16.159 -2.7077 -0.9088 -0.3906
14323TIP3   OH264459   2.770   2.851   6.321  0.0491  0.5019  0.7475
14323TIP3    H164460   2.726   2.933   6.301  0.9569  0.7819 -0.1756
14323TIP3    H264461   2.745   2.792   6.250  1.0462  0.6318  0.2694
14324TIP3   OH264462   4.792   0.071  14.882 -0.7156 -0.1211  0.2305
14324TIP3    H164463   4.728   0.015  14.926 -0.8050 -0.9044 -0.8449
14324TIP3    H264464   4.854   0.010  14.843 -0.2094  0.5749 -0.0729
14325TIP3   OH264465   6.461   1.198   4.267 -0.0813  0.0738 -0.1462
14325TIP3    H164466   6.458   1.270   4.329 -1.8501 -0.2827  0.2332
14325TIP3    H264467   6.401   1.224   4.197 -1.3778 -1.3239  0.3894
14326TIP3   OH264468   5.529   5.276   5.109 -0.1239  0.0327  0.3175
14326TIP3    H164469   5.436   5.295   5.102  0.0619  0.8832  0.0230
14326TIP3    H264470   5.572   5.361   5.101  0.7247 -0.4509 -0.5063
14327TIP3   OH264471   6.148   5.175  13.220  0.1077  0.0171  0.2200
14327TIP3    H164472   6.163   5.262  13.258  2.3188  0.6018 -1.7252
14327TIP3    H264473   6.175   5.114  13.289  0.9873  0.9601  0.7439
14328TIP3   OH264474   2.745   3.944  14.039  0.4508  0.2720  0.0262
14328TIP3    H164475   2.731   3.874  13.976  1.3711  0.7584 -0.7480
14328TIP3    H264476   2.754   4.023  13.985  1.2294  0.7027  0.7607
14329TIP3   OH264477   5.318   0.331   1.853 -0.0465 -0.6235  0.2117
14329TIP3    H164478   5.326   0.254   1.910  1.6645 -0.4723  0.2096
14329TIP3    H264479   5.283   0.399   1.911  0.1768 -0.9077  0.6918
14330TIP3   OH264480   4.694   4.320  14.038  0.2268 -0.1010  0.6496
14330TIP3    H164481   4.745   4.365  13.970 -0.4637  0.8600  0.7528
14330TIP3    H264482   4.604   4.350  14.024 -0.7202 -3.1358 -0.6917
14331TIP3   OH264483   1.024   3.941   1.807 -0.3071  0.6156  0.0325
14331TIP3    H164484   1.053   3.899   1.726  0.0241 -1.3585  1.1015
14331TIP3    H264485   0.959   3.881   1.843 -0.0217  1.1589  1.5188
14332TIP3   OH264486   2.251   6.550  13.678 -0.2925 -0.8951 -0.8491
14332TIP3    H164487   2.281   6.487  13.612  1.3605  0.3171 -1.3121
14332TIP3    H264488   2.330   6.573  13.727 -1.0067  0.2396 -0.1847
14333TIP3   OH264489   4.562   5.294  14.133  0.5990  0.2414  0.4396
14333TIP3    H164490   4.552   5.202  14.108 -1.0961  0.5053  0.0147
14333TIP3    H264491   4.641   5.322  14.088  0.0938 -0.5219 -1.0063
14334TIP3   OH264492   1.917   4.959   2.266 -0.5214 -0.8093  0.1653
14334TIP3    H164493   1.962   4.915   2.193 -0.0378  0.9606 -0.6772
14334TIP3    H264494   1.857   5.020   2.223  1.3805  1.9253  1.1121
14335TIP3   OH264495   3.007   2.606  12.359 -0.4012  0.6625 -0.0588
14335TIP3    H164496   2.915   2.589  12.380 -0.3961  0.8699  0.1310
14335TIP3    H264497   3.052   2.597  12.443 -0.3232  1.0948 -0.0554
14336TIP3   OH264498   5.169   2.057   1.396  0.2250  0.1552  0.4617
14336TIP3    H164499   5.189   2.150   1.397  0.2031  0.1746 -0.4704
14336TIP3    H264500   5.253   2.014   1.410  0.6275  0.2854 -1.2936
14337TIP3   OH264501   0.110   1.846   5.520  0.1766  0.0409  0.0909
14337TIP3    H164502   0.119   1.918   5.582 -0.7335 -0.3445  0.6940
14337TIP3    H264503   0.136   1.768   5.569 -1.6149 -0.4243  0.3768
14338TIP3   OH264504   5.394   3.378  11.404 -0.1116 -0.1027  0.2397
14338TIP3    H164505   5.390   3.288  11.435  0.4221 -0.0705  0.4118
14338TIP3    H264506   5.441   3.425  11.472  0.9244  0.0054 -0.5242
14339TIP3   OH264507   1.434   4.527   5.406  0.3319  0.1060 -0.0709
14339TIP3    H164508   1.443   4.463   5.334 -0.2421  0.8810 -0.8491
14339TIP3    H264509   1.341   4.546   5.409  0.2664 -0.3703  1.3089
14340TIP3   OH264510   4.022   1.758   1.239  0.2396  0.0162  0.4238
14340TIP3    H164511   4.112   1.724   1.235  0.2209  0.0086  0.0754
14340TIP3    H264512   3.970   1.692   1.193  0.0305 -0.0578  0.7651
14341TIP3   OH264513   0.268   5.972  16.902 -0.1033 -0.2114 -0.0383
14341TIP3    H164514   0.308   6.052  16.935 -1.5058  0.7304 -0.5470
14341TIP3    H264515   0.340   5.924  16.861  0.8778  0.4541  0.8517
14342TIP3   OH264516   3.957   1.499   1.143  0.4197 -0.2729  0.3035
14342TIP3    H164517   4.041   1.507   1.097  0.0465  1.3008 -0.1484
14342TIP3    H264518   3.909   1.432   1.094  0.7075  0.1351 -0.5503
14343TIP3   OH264519   2.905   0.567   3.285 -0.4904 -0.1281  0.3346
14343TIP3    H164520   2.818   0.532   3.305 -1.1042  0.5249 -1.0323
14343TIP3    H264521   2.887   0.651   3.244  0.7344 -0.4386 -0.8940
14344TIP3   OH264522   5.578   3.347   1.892 -0.0278  0.4175 -0.3701
14344TIP3    H164523   5.535   3.373   1.974  2.9089  0.6366  1.2336
14344TIP3    H264524   5.605   3.429   1.852  3.4159  0.3504  1.3862
14345TIP3   OH264525   5.483   4.491  13.574 -0.2222  0.7151 -0.1603
14345TIP3    H164526   5.418   4.553  13.608 -0.4907  0.1824  0.3189
14345TIP3    H264527   5.567   4.529  13.598 -0.2043  2.5296 -2.6522
14346TIP3   OH264528   0.006   0.387  16.333 -0.4439  0.3133 -0.3898
14346TIP3    H164529   0.031   0.409  16.423 -1.2798  2.4993 -0.6180
14346TIP3    H264530   0.064   0.316  16.308  0.5352  0.3836  1.5077
14347TIP3   OH264531   4.668   1.505  14.081  0.2589  0.3570 -0.1652
14347TIP3    H164532   4.749   1.554  14.065  0.7107 -0.3632 -0.1172
14347TIP3    H264533   4.613   1.566  14.131  1.5223  0.1936  1.5134
14348TIP3   OH264534   6.720   5.918   5.121  0.4420  0.0711 -0.0543
14348TIP3    H164535   6.696   5.848   5.060 -1.9903 -0.8494  1.7533
14348TIP3    H264536   6.790   5.881   5.174  1.9722  0.5655 -1.6562
14349TIP3   OH264537   0.131   6.626   4.315 -0.0676  0.6386 -0.2498
14349TIP3    H164538   0.205   6.567   4.326  0.9223  1.5222 -1.8854
14349TIP3    H264539   0.169   6.713   4.310 -1.3661  1.2769  0.3952
14350TIP3   OH264540   4.415   4.736   4.552  0.2646 -0.6702  0.7742
14350TIP3    H164541   4.450   4.820   4.584 -2.4976  1.4853 -1.2920
14350TIP3    H264542   4.348   4.712   4.617 -0.9152  0.3271 -0.0179
14351TIP3   OH264543   5.884   6.135   0.095  0.0619 -0.1895 -0.2642
14351TIP3    H164544   5.839   6.188   0.029 -0.7787 -0.9385 -0.3190
14351TIP3    H264545   5.897   6.050   0.053 -1.0077 -0.8651  0.7054
14352TIP3   OH264546   3.728   4.044   0.808  0.4636 -0.2637 -0.6674
14352TIP3    H164547   3.700   3.965   0.762 -1.1646  0.8029 -1.6394
14352TIP3    H264548   3.651   4.070   0.859 -0.4174  2.6465 -3.2093
14353TIP3   OH264549   2.692   0.804   5.471 -0.1500 -0.1008  0.0756
14353TIP3    H164550   2.637   0.732   5.501  0.9052 -0.6854  0.6846
14353TIP3    H264551   2.652   0.882   5.509 -0.1815 -0.5896  1.1053
14354TIP3   OH264552   5.352   5.415  11.678 -0.1159 -0.1739  0.4401
14354TIP3    H164553   5.331   5.499  11.720  0.2055  1.4447 -2.4111
14354TIP3    H264554   5.269   5.386  11.640  0.6064  1.5174 -2.8351
14355TIP3   OH264555   0.729   2.563   3.857 -0.0599 -0.4485 -0.7559
14355TIP3    H164556   0.637   2.538   3.852 -0.6604  1.4262 -0.0658
14355TIP3    H264557   0.766   2.534   3.774 -0.7418 -3.0714 -0.2179
14356TIP3   OH264558   1.880   0.143  13.744 -0.5437  0.2575 -0.5031
14356TIP3    H164559   1.951   0.190  13.788 -0.2169 -0.1342 -0.6000
14356TIP3    H264560   1.886   0.054  13.778 -1.2909  0.3371 -0.1628
14357TIP3   OH264561   0.546   5.603   2.285 -0.1787  0.0329  0.3873
14357TIP3    H164562   0.573   5.692   2.261  0.0824 -0.0424  0.4010
14357TIP3    H264563   0.594   5.584   2.366  0.5733 -0.5179 -0.1836
14358TIP3   OH264564   4.955   1.361  10.993 -0.0518  0.1153 -0.1034
14358TIP3    H164565   5.022   1.322  11.049 -0.5969  0.4963  0.8429
14358TIP3    H264566   4.935   1.293  10.929  2.7772  0.7483 -1.8173
14359TIP3   OH264567   0.885   5.035   1.154 -0.7110  0.1074 -0.0095
14359TIP3    H164568   0.932   5.045   1.071 -0.1573 -2.6602 -0.1330
14359TIP3    H264569   0.948   4.991   1.212 -0.5415  3.2627  2.5027
14360TIP3   OH264570   0.834   1.679   1.829  0.2316  0.2205 -0.1000
14360TIP3    H164571   0.791   1.753   1.786  1.2649  0.8306 -0.1235
14360TIP3    H264572   0.797   1.678   1.918  1.8103  2.2237  0.6666
14361TIP3   OH264573   5.042   5.214   0.551 -0.3343  0.0248  0.4266
14361TIP3    H164574   5.069   5.147   0.614  0.4391 -0.3161 -0.2490
14361TIP3    H264575   5.022   5.291   0.604  2.4050  0.4395  0.9569
14362TIP3   OH264576   0.317   1.635   4.751 -0.3694 -0.3784 -0.2326
14362TIP3    H164577   0.299   1.554   4.704  1.1812  0.1214 -1.7791
14362TIP3    H264578   0.242   1.645   4.810 -1.3336 -2.1386 -1.0745
14363TIP3   OH264579   0.287   0.497   2.267 -0.9324 -0.0389  0.5252
14363TIP3    H164580   0.250   0.585   2.268 -1.4558 -0.2479 -0.1031
14363TIP3    H264581   0.358   0.502   2.203 -1.8524 -0.4185 -0.5510
14364TIP3   OH264582   4.304   4.172  12.011 -0.4563 -0.8363 -0.0031
14364TIP3    H164583   4.310   4.078  11.992 -0.1363 -0.5256 -1.6047
14364TIP3    H264584   4.212   4.193  11.996  0.0192 -0.3436 -2.7610
14365TIP3   OH264585   4.509   2.050  15.608  0.2291 -0.3816 -0.0740
14365TIP3    H164586   4.554   1.986  15.664  0.3939 -0.6718 -0.5355
14365TIP3    H264587   4.523   2.134  15.652 -0.4302 -0.7204  0.8233
14366TIP3   OH264588   3.780   5.102  11.653 -0.1899 -0.7428 -0.5783
14366TIP3    H164589   3.814   5.031  11.599 -0.6773 -1.2347 -0.2461
14366TIP3    H264590   3.716   5.146  11.598 -0.9822 -1.4925 -0.2833
14367TIP3   OH264591   3.569   5.765   5.067  0.3540  0.7677 -0.2914
14367TIP3    H164592   3.552   5.705   5.139 -0.1564  0.8560 -0.3333
14367TIP3    H264593   3.483   5.782   5.030  0.8024 -0.9297 -2.2729
14368TIP3   OH264594   0.730   3.144   1.741 -0.0398 -0.0398 -0.4470
14368TIP3    H164595   0.698   3.119   1.654 -0.6138 -1.1060  0.0603
14368TIP3    H264596   0.778   3.226   1.726 -0.0374 -0.2680 -1.7836
14369TIP3   OH264597   0.234   1.917  15.778 -0.5632 -0.1414  0.1656
14369TIP3    H164598   0.155   1.908  15.831 -0.6571 -0.9349 -0.0902
14369TIP3    H264599   0.230   1.842  15.718  0.6010 -0.4308  0.4348
14370TIP3   OH264600   5.917   1.683   0.682  0.1937  0.0111 -0.3404
14370TIP3    H164601   5.884   1.607   0.729  1.3805 -0.0537  0.4392
14370TIP3    H264602   5.900   1.664   0.590  3.8887 -3.1028 -0.6376
14371TIP3   OH264603   4.443   6.427  16.499 -0.0249 -0.5652 -0.4910
14371TIP3    H164604   4.495   6.360  16.455 -1.5942 -1.0027 -1.7938
14371TIP3    H264605   4.400   6.380  16.571  1.6507 -0.0988  0.8958
14372TIP3   OH264606   2.108   2.697  12.550 -0.1929 -0.0667 -0.4161
14372TIP3    H164607   2.104   2.683  12.644 -0.6287  1.6783 -0.1459
14372TIP3    H264608   2.195   2.734  12.535 -0.0622 -0.4874 -0.7460
14373TIP3   OH264609   0.764   2.761   4.412  0.2251  0.3332  0.4292
14373TIP3    H164610   0.727   2.848   4.426  0.9837  0.9634 -1.2091
14373TIP3    H264611   0.747   2.742   4.319  0.2189 -1.1987  0.7202
14374TIP3   OH264612   4.671   0.803   0.023 -0.0728 -0.7669  0.1870
14374TIP3    H164613   4.605   0.753   0.070  0.2528  1.4847  3.4109
14374TIP3    H264614   4.624   0.880  -0.011  0.3324 -0.6741 -0.1724
14375TIP3   OH264615   6.238   6.562  13.336  0.0096 -0.3844  0.0832
14375TIP3    H164616   6.163   6.605  13.376  0.7509  0.3720  0.7053
14375TIP3    H264617   6.296   6.634  13.311 -0.5435 -0.7666 -2.7099
14376TIP3   OH264618   6.609   1.969   2.634 -0.1703  0.3723  0.2726
14376TIP3    H164619   6.662   2.047   2.618  0.1372  0.2466  0.6405
14376TIP3    H264620   6.648   1.902   2.577 -1.3133  0.8353 -1.1039
14377TIP3   OH264621   0.709   1.996  15.505  0.3582 -0.4806 -0.0633
14377TIP3    H164622   0.773   2.053  15.462  1.3256 -0.7459  0.9875
14377TIP3    H264623   0.753   1.912  15.513 -0.7530 -1.1551 -0.8325
14378TIP3   OH264624   5.702   6.767  15.114  0.1746 -0.2216 -0.4076
14378TIP3    H164625   5.704   6.860  15.094  1.1227 -0.3817 -1.0675
14378TIP3    H264626   5.719   6.762  15.208 -1.0059  0.3227 -0.1456
14379TIP3   OH264627   6.520   0.712  17.030  0.7918 -0.2731  0.4035
14379TIP3    H164628   6.561   0.790  16.994 -0.3558  1.1017  1.9512
14379TIP3    H264629   6.458   0.744  17.095  0.3410 -2.4811  1.1754
14380TIP3   OH264630   0.204   2.587   1.245 -0.0078  0.4133 -0.0562
14380TIP3    H164631   0.221   2.627   1.330  0.6759 -1.2199  0.6261
14380TIP3    H264632   0.236   2.497   1.254 -2.8703 -0.8031 -0.9865
14381TIP3   OH264633   4.752   0.840  16.364 -0.5949 -0.1447 -0.2070
14381TIP3    H164634   4.696   0.917  16.354  0.1570  0.3277 -0.9935
14381TIP3    H264635   4.807   0.860  16.440 -0.8406 -0.1877 -0.0173
14382TIP3   OH264636   5.354   4.174   4.431 -0.4340  0.3790 -0.7503
14382TIP3    H164637   5.336   4.118   4.355 -1.4034  0.5187 -0.6315
14382TIP3    H264638   5.289   4.243   4.426  0.8369  1.5924 -0.9600
14383TIP3   OH264639   5.283   2.576  13.971 -0.5849 -0.6334  0.1302
14383TIP3    H164640   5.279   2.485  14.001 -1.4284 -0.6967 -0.1546
14383TIP3    H264641   5.320   2.624  14.046 -1.8557 -0.9226  0.9694
14384TIP3   OH264642   6.479   4.738   0.740  0.6786  0.2402  0.0456
14384TIP3    H164643   6.509   4.647   0.746 -1.1366 -0.2958  2.8027
14384TIP3    H264644   6.540   4.787   0.797 -1.0839 -0.1754  2.4425
14385TIP3   OH264645   2.452   3.101   2.236 -0.2296 -0.3320  0.7688
14385TIP3    H164646   2.485   3.019   2.274  2.0070  0.1410  0.0157
14385TIP3    H264647   2.361   3.106   2.265 -0.1984 -2.6744  1.5000
14386TIP3   OH264648   6.259   4.085   1.667  0.2361 -0.1112 -1.0910
14386TIP3    H164649   6.279   4.094   1.760 -1.4106 -0.1737 -0.6996
14386TIP3    H264650   6.341   4.109   1.622  1.1323 -0.3450  0.3592
14387TIP3   OH264651   4.363   6.261   5.270  0.3956  0.0536 -0.5070
14387TIP3    H164652   4.383   6.230   5.358 -0.6317 -1.2882 -0.7050
14387TIP3    H264653   4.429   6.328   5.252  2.5431 -1.7462  0.1246
14388TIP3   OH264654   2.177   4.110  14.268 -0.1495  0.1865 -0.0604
14388TIP3    H164655   2.134   4.179  14.218  0.2863  0.9632  0.6087
14388TIP3    H264656   2.250   4.154  14.312  0.7943 -0.9253 -0.4700
14389TIP3   OH264657   0.795   3.841   1.974 -0.4630  0.1616  0.3339
14389TIP3    H164658   0.778   3.768   1.914  0.8706 -0.3027  0.4865
14389TIP3    H264659   0.718   3.843   2.031 -0.2575 -1.5824  0.7461
14390TIP3   OH264660   6.139   1.451   2.424  0.1545 -0.0408 -0.1342
14390TIP3    H164661   6.098   1.533   2.451 -0.3803 -0.5818  0.7403
14390TIP3    H264662   6.107   1.386   2.487  0.6499 -0.9013 -0.7488
14391TIP3   OH264663   4.647   1.195  13.972  0.2168 -0.2259 -0.5022
14391TIP3    H164664   4.615   1.205  14.062  0.6840 -1.5689 -0.1704
14391TIP3    H264665   4.658   1.285  13.941 -0.6916  0.2615  0.5062
14392TIP3   OH264666   5.883   4.610   3.377  0.8673  0.4821 -0.4148
14392TIP3    H164667   5.824   4.537   3.360  1.1764  0.4074 -1.2206
14392TIP3    H264668   5.834   4.667   3.437  1.0023 -0.8443  1.0061
14393TIP3   OH264669   0.703   6.455  15.193  0.4203 -0.1158 -0.5327
14393TIP3    H164670   0.696   6.380  15.252  0.3964 -0.3915 -0.8780
14393TIP3    H264671   0.773   6.508  15.229  0.4190 -0.2917 -0.2679
14394TIP3   OH264672   0.250   0.671  11.974  0.1200 -0.2770 -0.2217
14394TIP3    H164673   0.169   0.678  12.024 -0.1868  0.1037 -0.7638
14394TIP3    H264674   0.227   0.617  11.898  0.7711 -1.4942  0.4223
14395TIP3   OH264675   3.156   1.017  15.827  0.2805 -0.1439  0.4728
14395TIP3    H164676   3.086   1.032  15.890  1.3640  2.1959  1.2344
14395TIP3    H264677   3.123   1.054  15.745  0.4664  0.6671  0.7522
14396TIP3   OH264678   6.456   3.416  12.035  0.6519 -0.4902 -0.2571
14396TIP3    H164679   6.486   3.382  12.119  1.5390 -0.7104 -0.6515
14396TIP3    H264680   6.484   3.351  11.971  1.0090  0.2349 -0.8495
14397TIP3   OH264681   2.932   1.527  10.911  0.4051  0.1167 -0.2733
14397TIP3    H164682   2.997   1.521  10.841 -0.2364  0.4220 -0.9019
14397TIP3    H264683   2.849   1.539  10.865 -0.4262 -2.4498  0.3906
14398TIP3   OH264684   2.878   6.050  14.871 -0.7823 -0.0620 -0.7098
14398TIP3    H164685   2.854   6.141  14.854 -0.3770 -0.1362 -1.7463
14398TIP3    H264686   2.921   6.052  14.956 -0.3008  0.8039 -0.9632
14399TIP3   OH264687   4.499   0.075  10.951 -0.4011 -0.1656 -0.9472
14399TIP3    H164688   4.485   0.048  10.860 -2.3703 -1.0288 -0.4537
14399TIP3    H264689   4.550   0.005  10.990 -0.1703 -0.1412 -1.2039
14400TIP3   OH264690   5.397   2.822   2.992  0.9225 -0.0866  0.0716
14400TIP3    H164691   5.370   2.837   2.902  0.1421  1.8767  0.5824
14400TIP3    H264692   5.466   2.756   2.986  0.8146 -0.0605 -1.9381
14401TIP3   OH264693   4.455   0.413  15.392  0.2060 -0.3566  0.1820
14401TIP3    H164694   4.451   0.341  15.330  0.3822 -1.6315  1.5915
14401TIP3    H264695   4.481   0.489  15.340 -1.0660 -1.0484 -1.5457
14402TIP3   OH264696   1.599   2.694  14.860 -0.0541 -0.2400 -0.5440
14402TIP3    H164697   1.563   2.777  14.830 -0.8486  0.0748  1.1209
14402TIP3    H264698   1.686   2.715  14.892 -0.4276  0.0782  0.3043
14403TIP3   OH264699   4.600   6.572   1.332  0.2703  0.5182  0.2642
14403TIP3    H164700   4.530   6.617   1.284 -0.6263  0.8724  1.8504
14403TIP3    H264701   4.636   6.638   1.390  0.7165 -0.1370  0.7404
14404TIP3   OH264702   1.826   4.061  13.766  0.3038 -0.0032  0.0014
14404TIP3    H164703   1.790   4.032  13.850 -1.2119 -1.5405 -1.1141
14404TIP3    H264704   1.792   4.149  13.755 -0.6940 -0.3221  0.3645
14405TIP3   OH264705   6.612   6.278   0.489 -0.9844  0.0963 -0.1169
14405TIP3    H164706   6.623   6.353   0.431 -0.0157  0.3388  0.3508
14405TIP3    H264707   6.521   6.282   0.518 -1.5188 -0.0910 -1.6841
14406TIP3   OH264708   2.753   1.531  15.585  0.5205  0.0275 -0.5892
14406TIP3    H164709   2.843   1.523  15.552  0.5026  0.5695 -0.7919
14406TIP3    H264710   2.712   1.448  15.562  0.6306  0.2256 -1.5874
14407TIP3   OH264711   6.731   4.087  14.549 -0.7323 -0.5019  0.2716
14407TIP3    H164712   6.741   4.099  14.643 -1.4426 -1.9654  0.5713
14407TIP3    H264713   6.779   4.159  14.509 -1.1347  0.6319  1.7665
14408TIP3   OH264714   0.686   3.157   4.166 -0.0980 -0.2021 -0.4919
14408TIP3    H164715   0.624   3.227   4.145  1.6135  2.3195  2.0494
14408TIP3    H264716   0.756   3.167   4.102  1.1654  2.0102  1.0782
14409TIP3   OH264717   1.734   4.233   0.832  0.6819  0.5594 -0.0539
14409TIP3    H164718   1.693   4.214   0.747  0.8021  1.5793 -0.3625
14409TIP3    H264719   1.822   4.197   0.825 -0.0155 -1.3624  0.4910
14410TIP3   OH264720   2.454   5.935  12.480 -0.2926  0.1536  0.5782
14410TIP3    H164721   2.401   6.014  12.489 -0.3091  0.1517  0.4959
14410TIP3    H264722   2.515   5.956  12.409 -1.0569 -0.3346 -0.2291
14411TIP3   OH264723   2.381   3.213  14.385  0.1738 -0.3448 -0.0894
14411TIP3    H164724   2.464   3.260  14.389  0.5096 -0.9223 -0.1023
14411TIP3    H264725   2.405   3.121  14.396 -0.6021 -0.4061  1.2160
14412TIP3   OH264726   1.994   5.738   2.927 -0.0968 -0.0300  0.2473
14412TIP3    H164727   1.994   5.652   2.971 -0.7948  0.6080  1.5596
14412TIP3    H264728   2.055   5.727   2.854  0.3681 -1.4355  0.7974
14413TIP3   OH264729   5.935   2.343   4.328  0.0314 -0.2654 -0.4427
14413TIP3    H164730   5.970   2.381   4.247 -0.1283 -1.4840 -1.1139
14413TIP3    H264731   5.969   2.399   4.398  1.7332 -0.2764 -1.2069
14414TIP3   OH264732   3.865   0.729   5.390 -0.2685  0.0832  0.5707
14414TIP3    H164733   3.843   0.645   5.431  0.6867  0.0054  0.9585
14414TIP3    H264734   3.803   0.737   5.318  0.7760 -1.8649 -0.6608
14415TIP3   OH264735   3.131   5.162   2.377 -0.1404 -0.3859  0.1145
14415TIP3    H164736   3.065   5.190   2.440 -0.3066 -3.5368  1.5343
14415TIP3    H264737   3.084   5.153   2.294 -0.3274  2.0008 -0.1064
14416TIP3   OH264738   2.562   2.081   2.628  0.2925 -0.2008  0.4043
14416TIP3    H164739   2.540   2.171   2.602  2.5054  0.2186 -0.2287
14416TIP3    H264740   2.513   2.026   2.568 -0.0636  0.6256 -0.0822
14417TIP3   OH264741   3.235   0.158  12.988 -0.2098 -0.2935  0.5533
14417TIP3    H164742   3.281   0.237  13.015 -0.6214 -0.5907  2.2434
14417TIP3    H264743   3.296   0.114  12.929  0.3870  0.8353  0.3016
14418TIP3   OH264744   2.327   6.253   4.995 -0.3248 -0.1006  0.1590
14418TIP3    H164745   2.382   6.276   4.920 -0.0414 -0.7650  0.1515
14418TIP3    H264746   2.240   6.241   4.958 -0.2649 -0.0431 -0.0010
14419TIP3   OH264747   5.078   1.334   3.293  0.4379  0.5458  0.0329
14419TIP3    H164748   5.047   1.390   3.221 -3.4610 -2.7249 -1.2452
14419TIP3    H264749   5.036   1.369   3.371  0.2100  0.9665 -0.2755
14420TIP3   OH264750   4.885   5.699  13.630 -0.1711 -0.4982 -0.0947
14420TIP3    H164751   4.943   5.677  13.557  0.6329  1.3597 -0.0517
14420TIP3    H264752   4.800   5.662  13.604  0.9475 -3.3185 -0.1327
14421TIP3   OH264753   5.493   1.631  14.902 -0.0788 -0.4233 -0.3087
14421TIP3    H164754   5.569   1.687  14.889 -0.8954  0.5000 -1.2891
14421TIP3    H264755   5.503   1.596  14.991  0.7035  0.8933  0.1453
14422TIP3   OH264756   5.048   3.027   3.914  0.0225  0.6911  0.3672
14422TIP3    H164757   4.970   2.971   3.918 -0.9254  1.6909 -1.8470
14422TIP3    H264758   5.122   2.967   3.927 -1.0639 -0.4595  1.4982
14423TIP3   OH264759   4.210   3.880  16.072  0.4796  0.3738  0.1864
14423TIP3    H164760   4.213   3.785  16.087  1.4605  0.3161 -0.2622
14423TIP3    H264761   4.155   3.914  16.143 -5.5637 -1.1443 -3.0623
14424TIP3   OH264762   0.343   4.845  11.503 -0.0372  0.0925 -0.0070
14424TIP3    H164763   0.338   4.926  11.452 -0.1470 -0.5360 -1.0168
14424TIP3    H264764   0.281   4.786  11.460 -0.7082 -0.2027  1.3350
14425TIP3   OH264765   4.314   4.800  11.807 -0.2808 -0.9166  0.3933
14425TIP3    H164766   4.355   4.759  11.883  0.9702  0.7069  0.6537
14425TIP3    H264767   4.238   4.846  11.842  1.0481  0.9535  0.9522
14426TIP3   OH264768   5.030   5.249   3.990 -0.2119  0.8190 -0.2328
14426TIP3    H164769   5.106   5.199   3.962  0.7237  1.3458  1.2629
14426TIP3    H264770   4.957   5.187   3.987  0.6032 -0.1628 -0.0304
14427TIP3   OH264771   5.381   3.745  15.203 -0.3945 -0.3150  0.2363
14427TIP3    H164772   5.356   3.830  15.168 -0.1780 -0.5872 -0.6230
14427TIP3    H264773   5.463   3.724  15.158  1.2207  0.3691  2.6605
14428TIP3   OH264774   2.389   6.286  13.027  0.3087  0.4382 -0.1162
14428TIP3    H164775   2.390   6.372  12.986 -0.6201 -0.0714 -1.2663
14428TIP3    H264776   2.373   6.304  13.120  0.9917  1.5387 -0.2004
14429TIP3   OH264777   5.395   3.005   0.456 -0.5612 -0.6845 -0.2895
14429TIP3    H164778   5.309   3.002   0.413 -0.2754  0.7985 -1.0001
14429TIP3    H264779   5.422   2.913   0.460 -1.3160 -1.0138 -1.8028
14430TIP3   OH264780   4.294   0.618  14.993 -0.3899  0.6768  0.0942
14430TIP3    H164781   4.260   0.533  14.963 -0.0891  0.4960  0.2569
14430TIP3    H264782   4.376   0.629  14.945 -0.9997  1.4313 -0.8109
14431TIP3   OH264783   3.767   4.991  16.902  0.3669  0.7753  0.2630
14431TIP3    H164784   3.775   5.011  16.808 -0.6731 -1.1732 -0.2893
14431TIP3    H264785   3.721   5.066  16.939  0.4067  1.3754 -0.8697
14432TIP3   OH264786   3.740   0.070  15.323 -0.1227  0.1731  0.6097
14432TIP3    H164787   3.760   0.112  15.407  2.0361 -0.5104  0.4904
14432TIP3    H264788   3.822   0.073  15.274 -1.2998  0.3916 -1.4358
14433TIP3   OH264789   3.628   5.857   4.398  0.1163 -0.1234 -0.4870
14433TIP3    H164790   3.557   5.800   4.426  0.4663  0.0589  0.8245
14433TIP3    H264791   3.681   5.803   4.339  0.3739 -1.1251  0.6253
14434TIP3   OH264792   0.870   5.845   5.597 -0.1754  0.7216 -0.1785
14434TIP3    H164793   0.955   5.812   5.626 -0.7375  1.7231  3.1158
14434TIP3    H264794   0.823   5.768   5.566  0.0033 -1.0046  3.3289
14435TIP3   OH264795   4.264   2.791  12.061  0.5913 -0.4403 -0.0254
14435TIP3    H164796   4.311   2.713  12.092  0.6616 -0.4015 -0.0353
14435TIP3    H264797   4.275   2.790  11.966  1.5351  0.1879  0.0648
14436TIP3   OH264798   5.369   4.714   0.180  0.7082 -0.3975 -1.0588
14436TIP3    H164799   5.408   4.633   0.148  2.7200 -0.2313  0.7256
14436TIP3    H264800   5.435   4.751   0.238 -0.0353  2.6696 -1.9681
14437TIP3   OH264801   2.256   0.095   1.103  0.2372  0.3831  0.1671
14437TIP3    H164802   2.290   0.006   1.118 -0.5098  0.1548  0.5189
14437TIP3    H264803   2.180   0.083   1.047  1.3659  1.0000 -1.5806
14438TIP3   OH264804   1.813   4.690   0.192  0.3412  0.2473 -0.0269
14438TIP3    H164805   1.807   4.667   0.284  0.1462  0.2571 -0.0368
14438TIP3    H264806   1.796   4.784   0.189  0.9168  0.3535 -0.0113
14439TIP3   OH264807   5.003   2.713   0.420 -0.3046 -0.0463 -0.8087
14439TIP3    H164808   4.923   2.660   0.428 -1.5309  1.2234 -3.4751
14439TIP3    H264809   5.063   2.675   0.484 -1.6935 -3.5554 -1.3543
14440TIP3   OH264810   6.041   6.564   4.884  0.0205  0.2363 -0.2909
14440TIP3    H164811   6.064   6.486   4.832 -0.0680  1.7502 -2.7572
14440TIP3    H264812   5.997   6.529   4.962  1.2799 -2.2233 -0.5875
14441TIP3   OH264813   6.590   4.865  16.551 -0.0770  0.2417 -0.4497
14441TIP3    H164814   6.499   4.853  16.525  0.1529  1.3913 -1.9491
14441TIP3    H264815   6.588   4.936  16.616 -0.4505 -1.3472  1.3710
14442TIP3   OH264816   5.390   6.568  15.603 -0.2004 -0.2535  0.8448
14442TIP3    H164817   5.355   6.545  15.689  1.2455  0.2147  1.5864
14442TIP3    H264818   5.312   6.590  15.551 -1.1835 -1.5844  1.6818
14443TIP3   OH264819   5.310   0.653   0.069 -0.0190  0.0027 -0.2054
14443TIP3    H164820   5.368   0.643   0.144  2.0573  1.1464 -1.5491
14443TIP3    H264821   5.285   0.564   0.046  0.5583 -0.4647  0.9081
14444TIP3   OH264822   0.462   6.587   5.153 -0.3814 -0.1245  0.5110
14444TIP3    H164823   0.415   6.507   5.128 -0.0606 -0.4573  0.9538
14444TIP3    H264824   0.549   6.556   5.179 -1.3748 -0.1115  4.2992
14445TIP3   OH264825   5.168   0.033  14.559 -0.0953 -0.3503 -0.2488
14445TIP3    H164826   5.235  -0.009  14.614 -0.7460 -0.3696  0.5488
14445TIP3    H264827   5.207   0.118  14.536  0.4856 -0.6417 -0.3802
14446TIP3   OH264828   5.788   2.127  16.209 -0.0488  0.2564  0.2931
14446TIP3    H164829   5.823   2.038  16.204  2.0578  1.0828 -1.6235
14446TIP3    H264830   5.712   2.126  16.151  1.8821  0.3847 -2.4390
14447TIP3   OH264831   0.354   6.468  14.413  0.5087 -0.2127  0.2529
14447TIP3    H164832   0.416   6.408  14.453  0.3504 -0.1096  0.6533
14447TIP3    H264833   0.268   6.440  14.446  0.0702 -1.7350 -1.9425
14448TIP3   OH264834   5.561   1.950  16.710 -0.3072 -0.3282 -0.3700
14448TIP3    H164835   5.517   2.015  16.764 -1.3324  0.2846 -1.8787
14448TIP3    H264836   5.516   1.868  16.730 -1.2291  0.0419 -0.8794
14449TIP3   OH264837   2.379   0.413   0.815 -0.0898 -0.2576  0.0701
14449TIP3    H164838   2.332   0.481   0.766  0.9224  0.2306 -0.2443
14449TIP3    H264839   2.432   0.368   0.749  0.2628 -0.4781  0.5017
14450TIP3   OH264840   0.686   2.296   2.876 -0.1494  0.0476  0.0934
14450TIP3    H164841   0.632   2.241   2.932  0.2983 -0.1881  0.3017
14450TIP3    H264842   0.658   2.386   2.895  0.2366 -0.0052  0.9611
14451TIP3   OH264843   1.709   6.519   2.526  0.2813  0.3331 -0.2744
14451TIP3    H164844   1.786   6.531   2.581 -0.3052 -0.0862  0.6715
14451TIP3    H264845   1.727   6.438   2.477  0.1306 -0.2044  0.5283
14452TIP3   OH264846   5.408   3.313   3.977  0.0072  0.2973 -0.1074
14452TIP3    H164847   5.433   3.238   4.032  2.6486  1.3660  0.2813
14452TIP3    H264848   5.411   3.279   3.888  1.7092 -0.0128  0.0231
14453TIP3   OH264849   0.335   6.820  14.221  0.1900  0.3793  0.1610
14453TIP3    H164850   0.317   6.805  14.314  1.3482  0.7239  0.4582
14453TIP3    H264851   0.417   6.868  14.220 -0.2242  1.1131 -1.0220
14454TIP3   OH264852   1.894   6.638  10.671  0.0771 -0.5905 -0.5142
14454TIP3    H164853   1.964   6.576  10.690 -1.0660 -2.5761 -2.3893
14454TIP3    H264854   1.814   6.595  10.703 -0.3965  1.7306  1.8063
14455TIP3   OH264855   6.428   2.808   1.694  0.4565  0.4313  0.1877
14455TIP3    H164856   6.495   2.825   1.627 -0.3867 -1.0405 -1.0909
14455TIP3    H264857   6.389   2.894   1.711  0.8503  0.8819 -1.0461
14456TIP3   OH264858   2.167   1.076   0.366  0.0356  0.2595  0.0611
14456TIP3    H164859   2.183   1.160   0.409  2.1671 -0.7497  1.4169
14456TIP3    H264860   2.232   1.072   0.296 -0.1108 -0.2181 -0.0546
14457TIP3   OH264861   1.943   3.403   1.079 -0.3139  0.3986  0.4402
14457TIP3    H164862   1.947   3.424   0.985 -0.2754  1.8601  0.7370
14457TIP3    H264863   2.035   3.392   1.104 -0.3966 -3.2289 -0.2902
14458TIP3   OH264864   5.033   4.794   3.227  0.1657 -0.2018  0.5222
14458TIP3    H164865   5.032   4.718   3.169  1.0928  0.0161  0.2060
14458TIP3    H264866   4.999   4.866   3.173 -1.2113 -0.4782  0.9779
14459TIP3   OH264867   1.156   6.457   1.604 -0.4093 -0.3623  0.3582
14459TIP3    H164868   1.182   6.421   1.519  0.2832  1.7389 -0.4109
14459TIP3    H264869   1.238   6.478   1.648 -0.7388  1.2142  0.2865
14460TIP3   OH264870   5.948   6.367  14.852 -0.5182  0.9301 -0.1539
14460TIP3    H164871   5.952   6.462  14.845 -2.4634  1.0901  0.3964
14460TIP3    H264872   6.037   6.338  14.830  0.8288  2.9929  2.0292
14461TIP3   OH264873   6.080   2.383  13.333 -0.5736  0.1736 -0.4522
14461TIP3    H164874   6.135   2.386  13.411  0.9832 -0.4748 -1.4832
14461TIP3    H264875   6.049   2.473  13.322  2.2041  1.1398 -1.1299
14462TIP3   OH264876   0.087   0.879  13.535  0.0974  0.2125  0.1232
14462TIP3    H164877   0.090   0.818  13.608  0.1349  1.0188  0.8142
14462TIP3    H264878   0.060   0.962  13.575 -0.3114  0.5597 -0.8483
14463TIP3   OH264879   6.476   3.804  14.855 -0.0707 -0.5465  0.1882
14463TIP3    H164880   6.408   3.871  14.844 -0.3348 -0.2471  2.9801
14463TIP3    H264881   6.558   3.853  14.855 -0.2709 -0.1254  2.3454
14464TIP3   OH264882   2.189   3.893   4.534 -0.1003 -0.3472 -0.0583
14464TIP3    H164883   2.122   3.932   4.477 -0.5689 -0.8730  0.1311
14464TIP3    H264884   2.241   3.838   4.476  0.6914  0.6818 -0.3703
14465TIP3   OH264885   2.439   2.266  15.612  0.1362  0.1527 -0.1102
14465TIP3    H164886   2.404   2.229  15.694  0.4208 -1.6531 -0.7671
14465TIP3    H264887   2.372   2.328  15.584  0.1199  0.9606  1.5743
14466TIP3   OH264888   6.619   2.960   4.199 -0.1070  0.2491 -0.2182
14466TIP3    H164889   6.613   3.005   4.284 -1.3143  1.5654 -0.9646
14466TIP3    H264890   6.687   3.007   4.151 -0.5332  0.5156 -0.5625
14467TIP3   OH264891   6.521   1.724   3.146 -0.5018  0.0643 -0.3617
14467TIP3    H164892   6.547   1.638   3.180  0.5042  0.9364  1.2214
14467TIP3    H264893   6.602   1.761   3.112 -1.0877  0.0985 -1.7743
14468TIP3   OH264894   1.766   5.616  14.449 -0.5025 -0.1855  0.2838
14468TIP3    H164895   1.737   5.647  14.363  0.2659  1.4698  0.5794
14468TIP3    H264896   1.685   5.611  14.501 -1.0226 -1.5693 -0.6139
14469TIP3   OH264897   1.779   1.791  13.238  0.2483  0.6023  0.2759
14469TIP3    H164898   1.811   1.878  13.260 -0.5797  0.4518  2.3459
14469TIP3    H264899   1.719   1.769  13.310  1.1490 -2.0461  0.3287
14470TIP3   OH264900   0.187   4.188   4.103  0.5806  0.6881  0.0536
14470TIP3    H164901   0.136   4.249   4.157  0.4353 -1.2611  2.3150
14470TIP3    H264902   0.160   4.102   4.134  2.5779 -0.4872 -1.2723
14471TIP3   OH264903   2.864   2.769   3.371  0.5988 -0.2906 -0.0512
14471TIP3    H164904   2.954   2.739   3.358  0.3023 -0.5185 -1.8892
14471TIP3    H264905   2.857   2.784   3.465  1.5268 -3.5522  0.6683
14472TIP3   OH264906   2.893   1.267  16.224  0.6649  0.0512  0.1357
14472TIP3    H164907   2.841   1.218  16.288 -0.7813  1.5252  0.1295
14472TIP3    H264908   2.978   1.278  16.266  0.7628 -1.6846  0.4833
14473TIP3   OH264909   5.676   4.446   4.872  0.2418 -0.4689 -0.2348
14473TIP3    H164910   5.666   4.428   4.965  1.1939 -0.6197 -0.1562
14473TIP3    H264911   5.742   4.384   4.842  1.2522  0.7433 -0.6201
14474TIP3   OH264912   6.565   5.087  11.387  0.2712 -0.4563  0.0391
14474TIP3    H164913   6.586   5.174  11.353 -0.9561 -1.0244 -2.3821
14474TIP3    H264914   6.650   5.043  11.394  0.7194  0.2474 -0.8080
14475TIP3   OH264915   1.072   1.562   1.826 -0.2866  0.2280  0.1336
14475TIP3    H164916   0.988   1.607   1.839  0.2765  1.0712  0.9225
14475TIP3    H264917   1.097   1.532   1.913  0.2251 -0.0295 -0.0986
14476TIP3   OH264918   4.693   3.963  11.966  0.2202 -0.2755  0.7860
14476TIP3    H164919   4.643   3.994  11.890 -1.2818 -0.4495  1.6591
14476TIP3    H264920   4.689   3.868  11.961 -0.7483 -0.2965  1.5918
14477TIP3   OH264921   1.551   1.346  14.186  0.1628 -0.2566 -0.5532
14477TIP3    H164922   1.502   1.285  14.241  1.5325  0.3500  1.4476
14477TIP3    H264923   1.517   1.432  14.209  2.5756  0.2631  1.5047
14478TIP3   OH264924   1.256   1.322  12.570  0.1005  0.2008 -0.3089
14478TIP3    H164925   1.181   1.273  12.603  0.5252 -1.0881 -1.1764
14478TIP3    H264926   1.326   1.303  12.632  1.3210 -3.4243 -2.5130
14479TIP3   OH264927   2.635   2.103   2.168 -0.0992 -1.2846  0.1503
14479TIP3    H164928   2.544   2.078   2.178 -0.0829 -0.9267  1.3623
14479TIP3    H264929   2.679   2.070   2.246  0.7326 -1.1066 -0.2202
14480TIP3   OH264930   1.281   6.738  13.958 -0.3251 -0.0485  0.2957
14480TIP3    H164931   1.275   6.700  14.046 -0.3273 -0.9361 -0.0748
14480TIP3    H264932   1.360   6.700  13.921 -0.4568  0.1286 -0.1753
14481TIP3   OH264933   1.147   4.839   6.515 -0.1112 -0.4920  0.2588
14481TIP3    H164934   1.200   4.763   6.538 -0.0730 -0.2524  0.9849
14481TIP3    H264935   1.061   4.822   6.554  0.4511  0.7022  2.1395
14482TIP3   OH264936   4.847   1.538   2.198  0.0718  0.6333  0.4819
14482TIP3    H164937   4.836   1.446   2.175  0.1050  0.7895 -0.1962
14482TIP3    H264938   4.758   1.572   2.205 -0.0186  1.3163 -2.5752
14483TIP3   OH264939   1.952   5.567   1.469  0.3128 -0.4228 -0.6152
14483TIP3    H164940   1.947   5.471   1.477  0.0214 -0.3160  0.9443
14483TIP3    H264941   1.942   5.598   1.559 -0.0835  1.1031 -1.1610
14484TIP3   OH264942   0.505   4.607   2.896  0.3207  0.1657 -0.0849
14484TIP3    H164943   0.568   4.647   2.956 -1.0493  2.8442 -0.2741
14484TIP3    H264944   0.500   4.669   2.823 -1.6374 -0.5803 -0.6361
14485TIP3   OH264945   2.422   3.213  14.955  0.4795  0.5070 -0.2837
14485TIP3    H164946   2.493   3.270  14.984  0.0155  1.2247 -0.5137
14485TIP3    H264947   2.449   3.183  14.868 -0.5013  2.6645 -1.4234
14486TIP3   OH264948   2.432   1.401  14.977 -0.4344 -0.5899  0.2877
14486TIP3    H164949   2.474   1.328  14.933 -2.7154  0.2419 -3.7376
14486TIP3    H264950   2.341   1.372  14.990 -0.8086  0.7152  0.7494
14487TIP3   OH264951   1.636   2.118   1.351 -0.0747 -0.3130  0.5397
14487TIP3    H164952   1.711   2.147   1.299 -1.1811  0.6115 -0.5987
14487TIP3    H264953   1.645   2.165   1.434  0.5413 -0.1406  0.3806
14488TIP3   OH264954   6.487   1.866  12.716 -0.1929  0.1365 -0.3551
14488TIP3    H164955   6.446   1.951  12.697  0.6385  0.3052 -1.5543
14488TIP3    H264956   6.416   1.813  12.752 -1.4408  0.5049 -2.0859
14489TIP3   OH264957   2.849   5.561   0.936 -0.2294  0.3482  0.3756
14489TIP3    H164958   2.769   5.537   0.890  0.5411  1.1703 -1.4972
14489TIP3    H264959   2.837   5.527   1.025 -2.2542 -0.3205 -0.1055
14490TIP3   OH264960   3.597   6.258   1.181 -0.1188  0.0032 -0.4531
14490TIP3    H164961   3.550   6.176   1.196  0.7299 -0.6193 -1.0646
14490TIP3    H264962   3.622   6.288   1.269 -0.8470 -0.1411 -0.1943
14491TIP3   OH264963   1.405   1.638   0.989 -0.5352 -0.0816  0.4191
14491TIP3    H164964   1.405   1.550   0.951 -2.8489  0.1552 -0.3020
14491TIP3    H264965   1.370   1.625   1.078 -2.7605  0.2697 -0.3453
14492TIP3   OH264966   2.471   2.853   2.816 -0.6678  0.5106  0.0582
14492TIP3    H164967   2.384   2.885   2.793 -0.1043  1.0861 -1.3737
14492TIP3    H264968   2.457   2.762   2.841 -1.4463 -0.0556 -2.1885
14493TIP3   OH264969   4.438   3.733  16.486  0.1361  0.2133  0.2842
14493TIP3    H164970   4.343   3.722  16.494 -0.0208  1.9820  1.5359
14493TIP3    H264971   4.470   3.647  16.459 -1.8272 -0.3873 -0.3224
14494TIP3   OH264972   5.620   3.962  11.278  0.0824  0.3144 -0.3144
14494TIP3    H164973   5.547   3.989  11.333 -1.5983  0.2792 -2.4255
14494TIP3    H264974   5.652   4.043  11.240  1.4224  0.3710  0.8308
14495TIP3   OH264975   2.680   0.401  15.861  0.0938 -0.2151 -0.6738
14495TIP3    H164976   2.593   0.437  15.880 -0.1398 -1.5760  0.9828
14495TIP3    H264977   2.735   0.435  15.931  0.3346 -1.3616 -0.2977
14496TIP3   OH264978   5.084   5.648  12.633  0.1367 -0.3768  0.3238
14496TIP3    H164979   5.116   5.713  12.570  0.0102 -0.0598  0.5866
14496TIP3    H264980   4.992   5.635  12.609  0.8360 -2.5589 -1.5342
14497TIP3   OH264981   4.069   2.455  14.203  0.0585  0.0292  0.9762
14497TIP3    H164982   4.009   2.397  14.157  1.1147  0.1186 -0.6139
14497TIP3    H264983   4.083   2.413  14.288 -0.2426 -1.3425  0.3767
14498TIP3   OH264984   3.265   5.789   1.712 -0.5971  0.2616  0.0548
14498TIP3    H164985   3.238   5.846   1.784 -1.3188  1.1307 -0.8795
14498TIP3    H264986   3.234   5.702   1.738 -0.4476  0.4679  0.9947
14499TIP3   OH264987   5.991   3.906  11.047 -0.0906  0.4509 -0.6676
14499TIP3    H164988   6.033   3.898  11.133  0.1817 -0.2667 -0.8637
14499TIP3    H264989   6.059   3.878  10.985 -1.0420 -1.3354 -0.9557
14500TIP3   OH264990   5.224   3.382   0.183 -0.0130  0.0113 -1.1065
14500TIP3    H164991   5.153   3.440   0.211  0.1106 -0.0194 -0.7189
14500TIP3    H264992   5.191   3.340   0.103 -0.1090  0.6007 -1.3822
14501TIP3   OH264993   5.463   3.178   6.606  0.0415 -0.0156 -0.5105
14501TIP3    H164994   5.392   3.223   6.560 -0.5785  0.3485  0.7483
14501TIP3    H264995   5.418   3.123   6.670  0.8887  1.6340  1.6001
14502TIP3   OH264996   0.987   0.131   1.400  0.1672  0.2826 -0.8331
14502TIP3    H164997   1.032   0.184   1.465  0.4573 -0.4757 -0.4103
14502TIP3    H264998   1.003   0.041   1.426 -0.8245 -0.0164 -1.1973
14503TIP3   OH264999   0.563   4.437   3.885 -0.2173 -0.2699 -0.2707
14503TIP3    H165000   0.532   4.379   3.815 -0.4615 -1.1593  0.5528
14503TIP3    H265001   0.577   4.379   3.960  2.2635  0.2861 -0.2177
14504TIP3   OH265002   3.630   4.146  11.976  0.3627 -0.1611  0.1647
14504TIP3    H165003   3.554   4.090  11.991 -0.6929  1.4467  1.2191
14504TIP3    H265004   3.657   4.174  12.063  1.4338  0.2293 -0.2719
14505TIP3   OH265005   3.934   0.098   2.205  0.7859  0.0944 -0.0728
14505TIP3    H165006   3.854   0.114   2.156  1.0698  2.6671  0.1888
14505TIP3    H265007   3.996   0.163   2.173  1.8125  0.1350  1.8363
14506TIP3   OH265008   4.881   4.901   0.956 -0.8224  0.2715  0.0172
14506TIP3    H165009   4.953   4.963   0.955  0.6203 -1.1983  2.8512
14506TIP3    H265010   4.803   4.955   0.971  0.1378  1.5633  0.5013
14507TIP3   OH265011   3.662   2.934   3.180 -0.1086 -0.5986  0.9666
14507TIP3    H165012   3.682   2.877   3.254 -0.6968 -1.1225  0.7328
14507TIP3    H265013   3.643   3.019   3.219 -1.2354 -1.0704  1.5054
14508TIP3   OH265014   5.499   2.176  14.500 -0.1228  0.2442 -0.2787
14508TIP3    H165015   5.534   2.209  14.582 -0.8964  0.5934 -0.0757
14508TIP3    H265016   5.571   2.128  14.460 -0.2580 -1.5562  1.4909
14509TIP3   OH265017   2.466   2.568   2.877  0.3115 -0.2068 -0.6430
14509TIP3    H165018   2.387   2.520   2.855 -0.5264  0.7998  0.0521
14509TIP3    H265019   2.500   2.524   2.955 -0.1961  0.0209 -0.2849
14510TIP3   OH265020   4.512   1.714  10.653 -0.8584  0.5022  0.1233
14510TIP3    H165021   4.482   1.792  10.699 -1.0364  0.0878  0.7248
14510TIP3    H265022   4.567   1.747  10.582  1.5289  1.1127  2.1263
14511TIP3   OH265023   3.064   6.464   4.347  0.1180 -0.0717  0.2362
14511TIP3    H165024   3.015   6.430   4.271 -0.0506  0.6076  0.0405
14511TIP3    H265025   3.102   6.385   4.387 -0.2798 -0.5004 -0.2074
14512TIP3   OH265026   0.534   3.939  14.524 -0.2377 -0.5986  0.5423
14512TIP3    H165027   0.510   4.020  14.479  0.5720 -1.3315 -1.3493
14512TIP3    H265028   0.622   3.955  14.559 -0.1801 -0.5674  0.3845
14513TIP3   OH265029   2.536   3.601   4.367  0.4985 -0.5592 -0.1100
14513TIP3    H165030   2.587   3.625   4.444  1.0116 -0.1186 -0.5718
14513TIP3    H265031   2.599   3.605   4.295 -0.3154  0.5943 -0.7917
14514TIP3   OH265032   2.865   5.866  10.491 -0.3047  0.1189 -0.2760
14514TIP3    H165033   2.889   5.796  10.431  1.5998 -1.4632  2.1599
14514TIP3    H265034   2.787   5.833  10.537 -0.1285  0.1008  0.0158
14515TIP3   OH265035   4.151   3.594   2.281  0.2549 -0.1045 -0.1777
14515TIP3    H165036   4.160   3.659   2.212  0.7018 -0.1482 -0.1666
14515TIP3    H265037   4.229   3.607   2.336  0.4071 -0.7154 -0.2367
14516TIP3   OH265038   1.466   2.839  15.269  0.0576  0.0831 -0.6310
14516TIP3    H165039   1.449   2.931  15.251 -2.6747 -0.5363 -1.8119
14516TIP3    H265040   1.553   2.822  15.233 -0.2988  1.7124 -2.3945
14517TIP3   OH265041   6.503   1.899  17.134  0.0856  0.1151 -0.0335
14517TIP3    H165042   6.570   1.834  17.109 -0.4583 -0.4789  0.0355
14517TIP3    H265043   6.432   1.884  17.072 -0.2857  0.2565  0.3626
14518TIP3   OH265044   5.713   4.131  10.618 -0.4221  0.4693  0.1436
14518TIP3    H165045   5.674   4.109  10.702 -1.5842 -0.6190 -0.6271
14518TIP3    H265046   5.805   4.147  10.637 -0.0176 -2.5600  1.2597
14519TIP3   OH265047   3.499   5.838   5.504  0.0795 -0.6411 -0.0833
14519TIP3    H165048   3.494   5.780   5.580  1.0794  0.6897  1.0483
14519TIP3    H265049   3.571   5.803   5.451  0.5909 -0.5227  0.5266
14520TIP3   OH265050   3.403   2.678   0.708 -0.6469 -0.1916 -0.1653
14520TIP3    H165051   3.412   2.770   0.731 -0.7456 -0.4129  0.7883
14520TIP3    H265052   3.309   2.661   0.715 -0.8520  0.0163 -1.8999
14521TIP3   OH265053   0.917   5.691   2.644  0.3409 -0.4477  0.5945
14521TIP3    H165054   0.980   5.763   2.643  2.8721 -2.4720 -1.7171
14521TIP3    H265055   0.848   5.718   2.584  1.4168  0.0006 -0.4766
14522TIP3   OH265056   1.082   4.086  15.637 -0.2420  0.6353  0.2668
14522TIP3    H165057   1.065   4.141  15.561  0.0419  0.1299 -0.1639
14522TIP3    H265058   0.999   4.040  15.652 -0.0284  0.0676 -0.2837
14523TIP3   OH265059   2.674   1.256   1.523 -0.1109  0.1849 -0.1955
14523TIP3    H165060   2.659   1.230   1.614  0.2691 -0.1421 -0.2209
14523TIP3    H265061   2.686   1.351   1.527 -1.6017  0.3990 -0.1095
14524TIP3   OH265062   6.210   6.503  16.227  0.0040  0.3131 -0.0148
14524TIP3    H165063   6.291   6.513  16.177  0.5220  0.7758  0.8833
14524TIP3    H265064   6.238   6.469  16.311 -0.7678  0.2593  0.2289
14525TIP3   OH265065   2.100   6.706  16.404  0.0087  0.1432 -0.0948
14525TIP3    H165066   2.133   6.794  16.420  0.2861 -0.1855  1.3355
14525TIP3    H265067   2.178   6.652  16.397 -0.1686 -0.0986 -0.2216
14526TIP3   OH265068   5.596   5.423   5.827  0.1603 -0.4146 -0.5101
14526TIP3    H165069   5.536   5.370   5.776  0.5037  0.7363 -2.1952
14526TIP3    H265070   5.620   5.495   5.769 -1.1141  2.2231  1.9711
14527TIP3   OH265071   2.369   4.261   5.320  0.2613  0.8258 -0.2560
14527TIP3    H165072   2.291   4.205   5.321 -0.9297  2.4198  1.8920
14527TIP3    H265073   2.439   4.205   5.356 -0.3418  0.0385 -0.2763
14528TIP3   OH265074   1.908   3.782  15.991  0.0357 -0.7444  0.3270
14528TIP3    H165075   1.879   3.802  16.080  0.4645  2.5635 -0.1267
14528TIP3    H265076   1.827   3.774  15.941 -0.2483  1.2870  0.3753
14529TIP3   OH265077   1.509   1.490   3.457 -0.0548  0.2083  0.5947
14529TIP3    H165078   1.478   1.554   3.393 -1.2671  0.4993  1.4410
14529TIP3    H265079   1.481   1.405   3.424  2.2250 -0.0421 -0.9331
14530TIP3   OH265080   2.281   1.660   2.676 -0.0889 -0.3079 -0.1284
14530TIP3    H165081   2.244   1.614   2.601  1.4564 -1.3915 -0.2906
14530TIP3    H265082   2.271   1.753   2.655 -2.5491 -0.5308 -0.1733
14531TIP3   OH265083   6.459   3.534  15.461  0.4083 -0.1892 -0.0578
14531TIP3    H165084   6.426   3.467  15.521 -0.7160 -0.8891 -1.3939
14531TIP3    H265085   6.534   3.493  15.418 -0.4073 -0.7075 -1.0283
14532TIP3   OH265086   0.818   2.823   0.786 -0.1609 -0.4000  0.7007
14532TIP3    H165087   0.874   2.817   0.708 -0.7439 -0.4826  0.2801
14532TIP3    H265088   0.831   2.913   0.817 -0.4146 -0.1639  0.1315
14533TIP3   OH265089   4.014   4.374  16.051 -0.3758 -0.8105 -0.2128
14533TIP3    H165090   4.092   4.391  15.998 -0.6405  0.3498 -0.2606
14533TIP3    H265091   4.041   4.306  16.113  0.6130 -0.5707 -0.3668
14534TIP3   OH265092   1.096   1.720  14.591  0.6908 -0.1934  0.4955
14534TIP3    H165093   1.190   1.714  14.611  0.7910 -1.2754 -0.1821
14534TIP3    H265094   1.054   1.674  14.663  0.6652  0.3732  0.8487
14535TIP3   OH265095   0.486   1.167   2.637 -0.2050 -0.4481 -0.0221
14535TIP3    H165096   0.510   1.150   2.546 -0.6672 -1.4811  0.0452
14535TIP3    H265097   0.418   1.234   2.631  0.3446  0.0934 -0.3832
14536TIP3   OH265098   2.041   6.718  13.751 -0.0515  0.4677  0.0690
14536TIP3    H165099   1.981   6.720  13.677  0.4950  0.2333 -0.3823
14536TIP3    H265100   2.094   6.640  13.737  0.8373  1.0657  0.0844
14537TIP3   OH265101   1.036   4.094   2.271  0.2898  0.1809 -0.2540
14537TIP3    H165102   1.094   4.092   2.347 -1.2489 -3.7302  1.0584
14537TIP3    H265103   0.957   4.137   2.302 -0.4763 -1.7286  0.6237
14538TIP3   OH265104   5.966   4.411  15.866  0.5178 -0.2858 -0.2681
14538TIP3    H165105   6.030   4.379  15.929  0.3447 -0.3001 -0.0952
14538TIP3    H265106   6.010   4.482  15.820  1.4224 -1.7062 -1.6804
14539TIP3   OH265107   1.671   2.054  14.953 -0.2479 -0.4750  0.5066
14539TIP3    H165108   1.718   2.104  15.020 -1.9412 -0.1394  1.5014
14539TIP3    H265109   1.579   2.069  14.973 -0.7989 -2.5779 -0.2677
14540TIP3   OH265110   5.534   0.647  16.954  0.2069 -0.2962  0.1024
14540TIP3    H165111   5.449   0.637  16.911  0.8732 -1.4753 -1.0302
14540TIP3    H265112   5.513   0.680  17.041 -1.3099  0.7537 -0.5978
14541TIP3   OH265113   3.621   3.736   1.052 -0.2646 -0.5218  0.7593
14541TIP3    H165114   3.654   3.825   1.034 -0.4787 -0.2064  1.8726
14541TIP3    H265115   3.700   3.683   1.061 -0.1271 -0.3421  0.6379
14542TIP3   OH265116   3.484   0.019   4.556  0.2702 -0.5629  0.4440
14542TIP3    H165117   3.453   0.072   4.483  3.2961 -0.9903 -1.2884
14542TIP3    H265118   3.482  -0.071   4.524  3.2438 -0.6114  0.1373
14543TIP3   OH265119   1.964   6.351   6.381 -0.2676 -0.6134  0.2436
14543TIP3    H165120   1.980   6.440   6.413  1.6640 -0.5764 -0.7068
14543TIP3    H265121   2.030   6.298   6.425  2.3037 -0.6185 -3.2123
14544TIP3   OH265122   2.245   1.095   1.833  0.5654 -0.0709 -0.0715
14544TIP3    H165123   2.274   1.185   1.815  0.2116  0.4132  1.6436
14544TIP3    H265124   2.155   1.092   1.802  0.9757 -0.2541 -1.3239
14545TIP3   OH265125   0.181   4.910  15.195  0.2504 -0.5852  0.0350
14545TIP3    H165126   0.132   4.912  15.278 -3.7266 -0.2757 -2.0421
14545TIP3    H265127   0.167   4.997  15.158  1.0861 -1.0264 -1.3820
14546TIP3   OH265128   2.524   6.722   5.483 -0.3754  0.0173  0.0007
14546TIP3    H165129   2.575   6.801   5.496  1.8686 -1.2508 -0.5186
14546TIP3    H265130   2.534   6.673   5.565 -0.8433 -0.1947 -0.0648
14547TIP3   OH265131   6.622   3.999   5.851 -0.5365 -0.1273  0.1922
14547TIP3    H165132   6.642   3.984   5.943 -0.3464 -1.6032 -0.0578
14547TIP3    H265133   6.660   3.923   5.806 -1.4209  0.1053 -0.9935
14548TIP3   OH265134   1.804   4.678  15.661 -0.2544 -0.0485  0.0405
14548TIP3    H165135   1.896   4.703  15.658 -0.1738 -0.0605  1.4768
14548TIP3    H265136   1.797   4.606  15.599  0.5219  0.4564 -0.6678
14549TIP3   OH265137   1.755   0.291   2.141 -0.2418  0.4020  0.7151
14549TIP3    H165138   1.706   0.279   2.222 -0.5206  0.1196  0.5069
14549TIP3    H265139   1.760   0.204   2.102 -1.8712  0.8341 -0.5811
14550TIP3   OH265140   4.160   1.509  14.137  0.0473  0.0817  0.5558
14550TIP3    H165141   4.198   1.580  14.086 -0.6190  0.7193  0.9316
14550TIP3    H265142   4.066   1.511  14.115  0.1392 -1.2206 -0.0685
14551TIP3   OH265143   4.200   0.368  11.205  0.8935 -0.1213 -0.0343
14551TIP3    H165144   4.161   0.432  11.146  0.6026 -0.2182  0.0535
14551TIP3    H265145   4.295   0.384  11.198  0.7712  1.4551  1.2417
14552TIP3   OH265146   3.699   3.411   0.424  0.1399  0.0917 -0.1701
14552TIP3    H165147   3.789   3.406   0.390  0.9897  1.5807  1.7038
14552TIP3    H265148   3.688   3.330   0.474  0.7084  0.2382  0.1974
14553TIP3   OH265149   3.080   3.480  13.485 -0.4182 -0.0751 -0.2409
14553TIP3    H165150   3.062   3.547  13.551 -1.5118  0.4925 -1.0782
14553TIP3    H265151   3.009   3.490  13.421  0.5065 -0.7242 -1.4037
14554TIP3   OH265152   4.263   5.743  13.492 -0.0366  0.3095 -0.7340
14554TIP3    H165153   4.178   5.771  13.458 -1.1490 -2.6858 -0.7269
14554TIP3    H265154   4.249   5.653  13.523  2.8563  0.1086  0.3838
14555TIP3   OH265155   5.961   3.264   0.865 -0.2586  0.3815 -0.3064
14555TIP3    H165156   5.912   3.271   0.947  0.8484 -0.0360  0.4220
14555TIP3    H265157   5.905   3.307   0.800 -0.9514  1.1621  0.7554
14556TIP3   OH265158   1.288   4.017  15.371  0.0268  1.2081  0.2144
14556TIP3    H165159   1.210   4.072  15.373  0.4963  1.8991  0.0587
14556TIP3    H265160   1.255   3.929  15.357 -0.6808  1.6029 -0.7084
14557TIP3   OH265161   0.979   2.207  11.029  0.2033  0.2358  0.6726
14557TIP3    H165162   1.049   2.225  11.091 -0.4857  1.9767  1.0087
14557TIP3    H265163   1.019   2.217  10.943  0.4646  0.9006  0.8619
14558TIP3   OH265164   1.231   1.684   3.054  0.1886 -0.2669  0.1165
14558TIP3    H165165   1.177   1.677   3.132  0.5782 -0.4544  0.3751
14558TIP3    H265166   1.255   1.594   3.033  1.5242 -0.0969  0.8142
14559TIP3   OH265167   2.331   0.369  14.641 -0.3242 -0.3152 -1.1179
14559TIP3    H165168   2.285   0.378  14.558 -0.1926 -2.2432 -1.4682
14559TIP3    H265169   2.410   0.319  14.618 -0.2939 -0.8873  0.1464
14560TIP3   OH265170   1.830   0.070   5.118  0.6245 -0.2822 -0.3568
14560TIP3    H165171   1.744   0.074   5.160  1.3652  1.4148  1.1005
14560TIP3    H265172   1.815   0.102   5.029 -0.1337  0.8384  0.1487
14561TIP3   OH265173   0.328   4.583  12.618  0.0122  0.2123  0.6071
14561TIP3    H165174   0.311   4.671  12.582 -1.2515 -0.2781 -0.0667
14561TIP3    H265175   0.314   4.525  12.544 -1.3221 -0.7263  1.5387
14562TIP3   OH265176   2.540   5.331  11.262  0.3258 -0.8425 -0.1884
14562TIP3    H165177   2.609   5.390  11.289 -1.1961  0.7522  0.4031
14562TIP3    H265178   2.524   5.276  11.339  1.0667 -1.3946 -0.4125
14563TIP3   OH265179   0.840   2.819  14.067  0.1382 -0.1641  0.6239
14563TIP3    H165180   0.878   2.734  14.046  0.0305  0.3527 -1.9650
14563TIP3    H265181   0.915   2.871  14.099  0.6569 -0.5653  0.0780
14564TIP3   OH265182   5.844   3.347  13.261  0.0178 -0.5863 -0.6909
14564TIP3    H165183   5.769   3.294  13.237 -0.9285  1.1302 -1.6780
14564TIP3    H265184   5.916   3.313  13.207 -0.5982 -0.7642 -1.4104
14565TIP3   OH265185   2.832   4.485   1.631 -0.3717 -0.2898  0.0378
14565TIP3    H165186   2.906   4.546   1.641 -1.8775  1.5741  0.3292
14565TIP3    H265187   2.793   4.481   1.718 -0.8811 -0.9284 -0.2142
14566TIP3   OH265188   3.762   4.799  14.531 -0.0946 -0.3433 -0.2926
14566TIP3    H165189   3.706   4.722  14.536 -0.4418 -0.2588 -2.2076
14566TIP3    H265190   3.710   4.864  14.485  0.9074  0.3756 -0.4420
14567TIP3   OH265191   0.961   2.626  14.622  0.8123  0.5372  0.2500
14567TIP3    H165192   1.007   2.552  14.661 -0.0145  0.5987  1.3881
14567TIP3    H265193   0.992   2.702  14.671  1.1303  0.8625 -0.4432
14568TIP3   OH265194   5.328   1.468  15.688  0.4988 -0.0059  0.1731
14568TIP3    H165195   5.291   1.422  15.613  0.5114 -0.3889  0.4022
14568TIP3    H265196   5.291   1.556  15.682 -1.2572 -0.6480  0.9448
14569TIP3   OH265197   1.533   2.966  12.777 -0.1322 -0.2166  0.0787
14569TIP3    H165198   1.493   2.918  12.705 -0.4494 -0.5632  0.4798
14569TIP3    H265199   1.528   3.058  12.751 -1.0497 -0.2675  0.0463
14570TIP3   OH265200   5.627   6.363   5.235  0.2012 -0.1473  0.0237
14570TIP3    H165201   5.550   6.320   5.271  1.8302 -3.3204  0.0793
14570TIP3    H265202   5.676   6.393   5.312 -0.3607  0.8094  0.0275
14571TIP3   OH265203   5.921   5.425  16.302 -0.2125 -0.1498  0.3441
14571TIP3    H165204   5.918   5.399  16.210  0.9066  0.3201  0.1598
14571TIP3    H265205   6.012   5.450  16.317 -0.5244  0.4001  1.4112
14572TIP3   OH265206   0.788   3.800  13.700 -0.1895 -0.1155 -0.3441
14572TIP3    H165207   0.703   3.760  13.713  0.6453 -1.6872  0.6284
14572TIP3    H265208   0.827   3.752  13.626  0.9357 -1.4016  1.0149
14573TIP3   OH265209   5.768   3.551   3.222 -0.0892  0.8206  0.4723
14573TIP3    H165210   5.774   3.547   3.317 -2.6824  2.4246  0.7804
14573TIP3    H265211   5.675   3.563   3.203  0.4748  1.7461 -2.2110
14574TIP3   OH265212   4.604   6.305  15.307  0.2164  0.6271 -0.2061
14574TIP3    H165213   4.509   6.322  15.307 -0.3815 -2.0266  1.6451
14574TIP3    H265214   4.612   6.218  15.269  2.0328  1.0691 -0.9255
14575TIP3   OH265215   3.221   2.385   0.919  0.2029 -0.3526  0.3304
14575TIP3    H165216   3.177   2.411   0.838  4.0716  0.3287 -1.7780
14575TIP3    H265217   3.173   2.308   0.949 -1.7050 -0.3185 -2.3084
14576TIP3   OH265218   0.414   6.584   5.456  0.2524  0.0637 -0.1079
14576TIP3    H165219   0.490   6.603   5.401 -0.0658  1.0537 -0.2127
14576TIP3    H265220   0.425   6.641   5.532  0.6755 -1.2713  0.8704
14577TIP3   OH265221   0.003   5.865   1.089 -0.1997  0.3044 -0.0535
14577TIP3    H165222   0.044   5.887   1.172 -0.3342  2.6062 -0.5225
14577TIP3    H265223   0.075   5.841   1.031  0.0728  0.3840  0.2528
14578TIP3   OH265224   0.563   4.784  16.553  0.0242 -0.3288  0.6928
14578TIP3    H165225   0.502   4.750  16.487 -0.3358  0.2233  0.7345
14578TIP3    H265226   0.630   4.830  16.502 -0.0304 -0.2488  0.6939
14579TIP3   OH265227   5.148   0.044   0.657 -0.6941  0.8654  0.2937
14579TIP3    H165228   5.191  -0.021   0.714  3.1814  1.4991 -1.5481
14579TIP3    H265229   5.138  -0.001   0.573 -1.5127  1.5091  0.0403
14580TIP3   OH265230   6.220   2.465  15.990 -0.3653 -0.1999  0.3393
14580TIP3    H165231   6.195   2.512  15.911  1.7644  0.8865  0.2420
14580TIP3    H265232   6.167   2.503  16.060 -0.2926  0.7454 -0.1189
14581TIP3   OH265233   1.638   6.042  13.281 -0.3726 -0.2225 -0.1467
14581TIP3    H165234   1.683   6.039  13.196  0.1067 -0.5752  0.1174
14581TIP3    H265235   1.607   5.953  13.295 -1.2291  0.0306 -0.3570
14582TIP3   OH265236   6.397   1.875   5.768 -0.4642  0.2799 -0.2375
14582TIP3    H165237   6.387   1.783   5.792  0.0482  0.3627  0.3076
14582TIP3    H265238   6.319   1.895   5.716 -1.1715 -0.1338  0.6449
14583TIP3   OH265239   5.999   6.710   0.964  0.6868 -0.3356  0.4756
14583TIP3    H165240   5.932   6.697   0.898  0.6402  2.0294 -0.0266
14583TIP3    H265241   5.951   6.725   1.045  0.6890 -0.8819  0.5834
14584TIP3   OH265242   3.588   3.470  11.615  0.3252  0.4916  0.5483
14584TIP3    H165243   3.651   3.537  11.640  0.1919  0.6666  0.4172
14584TIP3    H265244   3.576   3.482  11.521  0.9851 -0.3000  0.3529
14585TIP3   OH265245   3.153   4.587  12.857 -0.1819 -0.2232  0.1531
14585TIP3    H165246   3.150   4.630  12.943  0.7042  1.7595 -0.7458
14585TIP3    H265247   3.144   4.658  12.794  0.6071 -1.4592 -1.4264
14586TIP3   OH265248   3.950   6.179  15.556 -0.0937  0.0823 -0.4270
14586TIP3    H165249   3.875   6.237  15.546 -1.0521 -1.2338 -1.2773
14586TIP3    H265250   3.959   6.166  15.650 -1.3712 -0.2724 -0.3393
14587TIP3   OH265251   0.054   0.720  16.532  0.2540 -0.6226 -0.0656
14587TIP3    H165252   0.122   0.696  16.469  0.7067 -0.6462  0.4283
14587TIP3    H265253   0.101   0.739  16.613 -0.3517 -0.9605  0.3773
14588TIP3   OH265254   6.698   2.180  13.689 -0.0188  0.1080  0.3629
14588TIP3    H165255   6.628   2.228  13.644  1.0093 -0.1758 -1.6479
14588TIP3    H265256   6.687   2.203  13.781 -2.0493  0.9622 -0.0392
14589TIP3   OH265257   6.472   1.475  17.090  0.1142  0.8907 -0.1923
14589TIP3    H165258   6.502   1.488  17.180  1.2173  1.0045 -0.5648
14589TIP3    H265259   6.377   1.476  17.097  0.1788  1.1549  0.9354
14590TIP3   OH265260   3.184   1.921   4.515 -0.3239  0.1639  0.4574
14590TIP3    H165261   3.222   1.940   4.600  0.3529 -4.6003  1.5168
14590TIP3    H265262   3.090   1.936   4.526 -0.3219 -0.9569  2.2879
14591TIP3   OH265263   6.480   2.497   3.308  0.3556 -0.2302 -0.0114
14591TIP3    H165264   6.420   2.526   3.239  1.0295  0.0820 -0.4682
14591TIP3    H265265   6.437   2.420   3.345 -1.4527  1.2640  1.2049
14592TIP3   OH265266   6.227   6.271   6.407  0.2721 -0.5247  0.8018
14592TIP3    H165267   6.245   6.180   6.385  4.1291  0.4534 -0.8743
14592TIP3    H265268   6.142   6.289   6.367 -0.2664 -3.1613  0.6160
14593TIP3   OH265269   1.343   2.614   1.511  0.2502  0.1826 -0.1445
14593TIP3    H165270   1.437   2.618   1.492 -0.1317  0.3591 -2.2334
14593TIP3    H265271   1.313   2.704   1.503 -0.3845 -0.1145 -1.2357
14594TIP3   OH265272   3.036   1.797   2.611  0.1202 -0.3552 -0.5809
14594TIP3    H165273   2.962   1.744   2.581 -0.0177 -0.1894 -0.5332
14594TIP3    H265274   3.113   1.757   2.569  0.1715 -1.3350  0.4087
14595TIP3   OH265275   1.772   4.606  14.901  0.1582 -0.2271  0.0126
14595TIP3    H165276   1.810   4.686  14.938 -2.6548  1.3822 -0.3211
14595TIP3    H265277   1.793   4.611  14.807 -1.0572  0.8234 -0.2287
14596TIP3   OH265278   2.595   2.917   5.759  0.0568 -0.0070 -0.2027
14596TIP3    H165279   2.634   2.846   5.707 -0.5620 -0.0120 -0.6726
14596TIP3    H265280   2.596   2.992   5.701  2.3858  0.9066  0.8912
14597TIP3   OH265281   3.565   3.200   4.123  0.0824 -0.3718  0.0112
14597TIP3    H165282   3.515   3.229   4.200  0.2749 -1.0659  0.4100
14597TIP3    H265283   3.656   3.210   4.149  0.1543  0.0712 -0.3978
14598TIP3   OH265284   0.062   6.674  13.741  0.3846  0.1376 -0.8049
14598TIP3    H165285   0.128   6.686  13.672  2.2537 -0.4760  0.7672
14598TIP3    H265286   0.097   6.603  13.794 -1.5196 -0.0972  0.2085
14599TIP3   OH265287   1.070   4.860   3.879 -0.1173 -0.1423 -0.4145
14599TIP3    H165288   0.985   4.835   3.843 -0.7744  0.5170  0.6136
14599TIP3    H265289   1.049   4.924   3.948  1.2237  0.1748 -0.2686
14600TIP3   OH265290   1.165   6.251  16.902  0.2305  0.0115  0.0840
14600TIP3    H165291   1.152   6.159  16.878  0.9285 -0.0280 -0.1855
14600TIP3    H265292   1.138   6.256  16.994 -0.0932 -0.3954  0.0157
14601TIP3   OH265293   3.426   0.395   0.905 -0.1676 -0.1393 -0.7456
14601TIP3    H165294   3.398   0.477   0.865  1.7873  1.9536  1.8595
14601TIP3    H265295   3.348   0.360   0.947 -1.0750  0.1648 -2.1025
14602TIP3   OH265296   5.773   3.070   5.752 -0.1424  0.0628 -0.2215
14602TIP3    H165297   5.867   3.067   5.736 -0.4048  0.6108 -2.1625
14602TIP3    H265298   5.734   3.035   5.672 -1.6226  2.3610 -0.6171
14603TIP3   OH265299   1.360   3.352  13.747  1.0668  0.5255 -0.4114
14603TIP3    H165300   1.368   3.294  13.822  1.0688 -0.1762 -0.9378
14603TIP3    H265301   1.277   3.327  13.707  0.6082  1.5445 -0.1082
14604TIP3   OH265302   1.589   3.523   1.725  0.2294 -0.1848 -0.1262
14604TIP3    H165303   1.671   3.558   1.690  0.4253  0.1965  0.6934
14604TIP3    H265304   1.545   3.598   1.765 -0.2644 -0.4910 -0.0816
14605TIP3   OH265305   6.132   0.824   4.742 -0.0914  0.0162 -0.2891
14605TIP3    H165306   6.187   0.775   4.681  1.3073  0.4535  0.5906
14605TIP3    H265307   6.094   0.756   4.799  0.0787 -0.2324 -0.4709
14606TIP3   OH265308   1.341   6.293   4.934  0.0856  0.0232  0.4055
14606TIP3    H165309   1.368   6.229   5.000 -0.9641 -0.0888  0.7458
14606TIP3    H265310   1.338   6.377   4.981 -0.1973  0.0248  0.3882
14607TIP3   OH265311   4.159   6.704  14.116  0.6318  0.4473 -0.2217
14607TIP3    H165312   4.117   6.722  14.200  0.4733 -1.1650  0.0588
14607TIP3    H265313   4.171   6.791  14.077 -2.1950  1.0350  0.0382
14608TIP3   OH265314   1.396   5.333  11.003 -0.3277  0.3003  0.0653
14608TIP3    H165315   1.425   5.404  10.945  2.6445  0.0946  1.1166
14608TIP3    H265316   1.383   5.258  10.945 -2.1823  1.2816 -0.8811
14609TIP3   OH265317   4.647   1.428   1.892  0.1838  0.0493 -0.1069
14609TIP3    H165318   4.732   1.468   1.876 -0.4705  1.6863  0.3651
14609TIP3    H265319   4.665   1.334   1.893  1.7750  0.3068 -1.1666
14610TIP3   OH265320   3.499   5.166   3.547  0.0775 -0.4474 -0.0427
14610TIP3    H165321   3.503   5.140   3.455 -0.6037 -1.7622  0.2740
14610TIP3    H265322   3.516   5.260   3.546 -1.6809 -0.0827 -1.6890
14611TIP3   OH265323   6.640   0.077  14.768  0.2618  0.3647 -0.7888
14611TIP3    H165324   6.686  -0.006  14.757 -0.6584 -0.5623  1.6517
14611TIP3    H265325   6.568   0.056  14.827 -0.6775  2.6898 -1.0194
14612TIP3   OH265326   1.645   4.443   5.928  0.2968  0.3416  0.3333
14612TIP3    H165327   1.606   4.487   6.003  0.0832 -0.6760  0.8320
14612TIP3    H265328   1.599   4.359   5.923  1.2910 -0.1876 -0.0663
14613TIP3   OH265329   0.871   2.017  12.765 -0.2681 -0.4343  0.2400
14613TIP3    H165330   0.887   1.937  12.714  0.7747  0.9146 -1.6937
14613TIP3    H265331   0.949   2.026  12.819  0.1112 -0.1763 -0.3395
14614TIP3   OH265332   1.522   3.321  15.727  0.4297  0.0148  0.3049
14614TIP3    H165333   1.597   3.340  15.671 -0.0332 -1.2249 -0.8156
14614TIP3    H265334   1.555   3.257  15.791  0.4062 -0.3265 -0.0200
14615TIP3   OH265335   1.261   4.940  15.141  1.1045 -0.5321 -0.0202
14615TIP3    H165336   1.166   4.938  15.145  0.9627  2.7247  0.5465
14615TIP3    H265337   1.283   4.882  15.067 -1.5124  0.9501 -2.1439
14616TIP3   OH265338   2.377   5.773  14.040 -0.3711  0.2864  0.4692
14616TIP3    H165339   2.420   5.858  14.044  0.1892  0.0042  0.4318
14616TIP3    H265340   2.300   5.783  14.096 -0.4173  0.8785  0.3134
14617TIP3   OH265341   6.173   0.239  12.530 -0.2993  0.4382 -0.3711
14617TIP3    H165342   6.206   0.324  12.503 -1.1409  0.4712 -1.3974
14617TIP3    H265343   6.082   0.239  12.500 -0.2370 -0.9096 -0.6155
14618TIP3   OH265344   0.729   5.491  12.573  0.2269  0.4751  0.5526
14618TIP3    H165345   0.786   5.455  12.641  0.1398  0.9272  0.8754
14618TIP3    H265346   0.752   5.584  12.570 -0.4221  0.6420  0.6087
14619TIP3   OH265347   0.285   6.583   1.063 -0.0144  0.0290  0.6491
14619TIP3    H165348   0.354   6.546   1.118  0.2259 -2.8767 -1.4162
14619TIP3    H265349   0.204   6.545   1.097  0.1661 -2.0419 -1.0590
14620TIP3   OH265350   4.647   5.613   3.343 -0.1004  0.2101 -0.7106
14620TIP3    H165351   4.724   5.584   3.294  0.6544  0.6212  0.1761
14620TIP3    H265352   4.623   5.537   3.397 -1.3993 -0.5007 -2.2248
14621TIP3   OH265353   3.472   6.537  12.285 -0.3685  0.3335 -0.1609
14621TIP3    H165354   3.531   6.596  12.239  0.8680  0.8014  1.8911
14621TIP3    H265355   3.503   6.449  12.262  0.7430  0.5685  0.3474
14622TIP3   OH265356   0.205   4.766   5.985  0.3396 -0.3495 -0.2984
14622TIP3    H165357   0.230   4.816   6.062  0.5250 -0.7839 -0.0732
14622TIP3    H265358   0.188   4.678   6.018 -0.1502 -0.3950 -0.6623
14623TIP3   OH265359   6.531   0.572  13.096 -0.5419 -0.0056 -0.0475
14623TIP3    H165360   6.592   0.505  13.065 -2.0348 -0.6209 -1.9125
14623TIP3    H265361   6.548   0.579  13.189  2.8049  0.3609 -0.5713
14624TIP3   OH265362   1.436   6.595   3.813  0.2419 -0.6929  0.3858
14624TIP3    H165363   1.412   6.626   3.900  1.6729 -0.9123  0.8761
14624TIP3    H265364   1.358   6.612   3.760 -0.8588 -1.0794  1.8227
14625TIP3   OH265365   0.099   0.046   2.800  0.0616 -0.1364  0.1910
14625TIP3    H165366   0.052  -0.030   2.834  0.6566 -0.3401  0.5770
14625TIP3    H265367   0.054   0.068   2.719 -3.2982  2.1541  2.4146
14626TIP3   OH265368   6.610   5.257  16.532 -0.0825  0.0915  0.1321
14626TIP3    H165369   6.692   5.229  16.492 -0.7722 -1.1713 -0.4703
14626TIP3    H265370   6.597   5.197  16.605 -0.5546  0.1670  0.1149
14627TIP3   OH265371   4.904   1.819  14.619 -0.0221 -0.2755  0.1910
14627TIP3    H165372   4.978   1.865  14.578  0.4567 -1.5070 -0.3686
14627TIP3    H265373   4.841   1.888  14.638  0.7064  0.6266 -0.5603
14628TIP3   OH265374   3.028   3.350  12.772 -0.0371 -0.0745 -0.2447
14628TIP3    H165375   3.073   3.300  12.840  1.3924 -1.2818 -1.9736
14628TIP3    H265376   3.012   3.436  12.811 -0.2123 -1.0426  1.9281
14629TIP3   OH265377   6.587   5.975  15.287  0.2877 -0.3950  0.2727
14629TIP3    H165378   6.605   5.883  15.303  1.2151 -0.2213  0.2902
14629TIP3    H265379   6.642   5.997  15.211 -1.1757 -0.2661 -0.7893
14630TIP3   OH265380   4.880   1.685  12.685 -0.0219 -0.2942  0.1418
14630TIP3    H165381   4.848   1.735  12.761 -1.8395  0.8378 -1.3043
14630TIP3    H265382   4.828   1.606  12.685 -0.2081 -0.1722 -0.0734
14631TIP3   OH265383   1.603   6.687  14.789 -0.2722 -0.0744  0.1650
14631TIP3    H165384   1.579   6.776  14.815 -0.5126 -0.5626  1.6770
14631TIP3    H265385   1.684   6.698  14.739 -0.6196  1.0457 -0.1787
14632TIP3   OH265386   0.306   5.466   2.355  0.2530  0.2314  0.0212
14632TIP3    H165387   0.399   5.468   2.334 -0.2013  0.0662 -2.3180
14632TIP3    H265388   0.276   5.380   2.327 -1.0625  1.1880 -1.7211
14633TIP3   OH265389   0.404   4.331  14.918  0.2462  0.2850  0.1614
14633TIP3    H165390   0.441   4.355  15.003 -0.1187  0.0353  0.3910
14633TIP3    H265391   0.358   4.249  14.934 -1.7823  1.3856  0.2587
14634TIP3   OH265392   1.443   3.591  14.709  0.0028 -0.0367  0.3003
14634TIP3    H165393   1.358   3.552  14.691  1.2548 -2.6527 -0.3873
14634TIP3    H265394   1.459   3.650  14.634 -0.8483 -0.1416  0.0334
14635TIP3   OH265395   2.824   2.263  16.545  0.3940  0.2145  0.0925
14635TIP3    H165396   2.831   2.303  16.458 -0.1231 -0.8146 -0.4310
14635TIP3    H265397   2.875   2.322  16.602  1.6690  0.3144 -1.0909
14636TIP3   OH265398   2.042   5.157  16.549  0.4485 -0.0487  0.0055
14636TIP3    H165399   2.114   5.192  16.602  0.8607 -2.2321  1.0002
14636TIP3    H265400   2.000   5.093  16.605 -2.5945  1.3965 -0.4092
14637TIP3   OH265401   2.053   0.018  13.029 -0.5779  0.2029 -0.6465
14637TIP3    H165402   2.023   0.057  12.947 -1.3774 -1.0905 -1.0024
14637TIP3    H265403   2.043   0.088  13.094  2.1900  1.9950 -1.9894
14638TIP3   OH265404   4.224   6.389  14.759  0.0763 -0.4645 -0.4891
14638TIP3    H165405   4.258   6.387  14.670  1.1162 -2.2161 -0.1050
14638TIP3    H265406   4.292   6.348  14.812 -0.3540  0.8387  1.1967
14639TIP3   OH265407   4.251   1.727   0.506 -0.1374  0.2647  0.1091
14639TIP3    H165408   4.219   1.672   0.434  1.7064 -0.1920 -0.4124
14639TIP3    H265409   4.187   1.715   0.576 -1.0852 -0.5971 -0.8727
14640TIP3   OH265410   3.590   4.451  13.622 -0.0074  0.1153  0.0787
14640TIP3    H165411   3.659   4.495  13.672 -0.3036 -1.3188  1.8469
14640TIP3    H265412   3.588   4.362  13.657 -0.8372 -0.7206 -1.9332
14641TIP3   OH265413   1.932   0.538  15.385 -0.4373  0.0081 -0.5588
14641TIP3    H165414   1.943   0.442  15.387 -1.5871 -0.1713 -1.6223
14641TIP3    H265415   1.964   0.563  15.298 -2.6763  0.2148 -1.3647
14642TIP3   OH265416   6.740   0.410   2.262  0.4520 -0.4508  0.0880
14642TIP3    H165417   6.744   0.356   2.183 -0.3020  0.0142 -0.2817
14642TIP3    H265418   6.739   0.500   2.230 -2.8440 -0.2595  0.4104
14643TIP3   OH265419   5.654   1.898  15.162  0.8653 -0.0053  0.5901
14643TIP3    H165420   5.731   1.927  15.112  0.0854  2.2061  0.5778
14643TIP3    H265421   5.585   1.959  15.138 -0.7268 -1.4942  1.1722
14644TIP3   OH265422   5.755   3.949   1.412 -0.1919  0.3198  0.2043
14644TIP3    H165423   5.774   4.038   1.441 -0.9581  0.1472  1.2800
14644TIP3    H265424   5.836   3.900   1.429 -1.3049 -0.3636  4.5354
14645TIP3   OH265425   0.406   6.001   4.476  0.0645  0.1021 -0.3511
14645TIP3    H165426   0.365   6.006   4.389  0.7805 -0.4511 -0.7350
14645TIP3    H265427   0.363   6.069   4.527 -2.0620 -1.0979 -0.4133
14646TIP3   OH265428   3.652   4.952   1.212 -0.1308 -0.3319  0.3159
14646TIP3    H165429   3.645   5.044   1.236  0.9199  0.1063 -0.9044
14646TIP3    H265430   3.562   4.919   1.212 -0.8809  1.4618 -2.0380
14647TIP3   OH265431   2.072   0.860  16.506  0.0463 -0.2329  0.4586
14647TIP3    H165432   2.029   0.833  16.587 -0.2761 -0.4442  0.2213
14647TIP3    H265433   2.090   0.953  16.518  0.7697 -0.4496  1.1053
14648TIP3   OH265434   2.865   4.712  12.931  0.0549  0.1667 -0.2752
14648TIP3    H165435   2.865   4.778  12.861  0.9102  0.5413  0.0600
14648TIP3    H265436   2.811   4.751  12.999 -1.8492 -0.7465 -1.1873
14649TIP3   OH265437   1.631   1.597  13.971 -0.5066  0.3905  0.0001
14649TIP3    H165438   1.639   1.659  14.044 -1.3816 -0.6463  1.0230
14649TIP3    H265439   1.721   1.579  13.944  0.0422 -0.9315  2.3907
14650TIP3   OH265440   2.297   6.008  14.301  0.1708  0.1095  0.1739
14650TIP3    H165441   2.325   5.925  14.339 -1.8837 -1.1583 -0.8884
14650TIP3    H265442   2.362   6.029  14.235 -0.2525 -1.7033 -0.8754
14651TIP3   OH265443   3.150   1.484  12.884  0.3050 -0.2884 -0.4147
14651TIP3    H165444   3.212   1.486  12.957 -0.3818  1.7871  0.1927
14651TIP3    H265445   3.197   1.524  12.811 -0.2705  1.3508  0.0658
14652TIP3   OH265446   2.567   4.664  15.629 -0.4615 -0.3624  0.0351
14652TIP3    H165447   2.475   4.653  15.605 -0.4922  1.4472 -0.8407
14652TIP3    H265448   2.589   4.751  15.598  1.4318 -0.5792  0.6744
14653TIP3   OH265449   0.632   0.783   5.657  0.9783 -0.5396 -0.6051
14653TIP3    H165450   0.673   0.783   5.743  2.4003 -2.8619 -1.2076
14653TIP3    H265451   0.592   0.869   5.649  2.5715  0.4635  1.5350
14654TIP3   OH265452   2.911   3.169   2.296 -0.1933  0.1147  0.2944
14654TIP3    H165453   2.897   3.090   2.347 -0.1013 -1.2829 -1.7369
14654TIP3    H265454   2.849   3.163   2.223  0.4375  1.4547 -0.4098
14655TIP3   OH265455   6.749   6.328   1.628 -0.4987 -0.1459  0.2069
14655TIP3    H165456   6.753   6.400   1.565  0.1480 -0.3326  0.0224
14655TIP3    H265457   6.806   6.355   1.700  1.2367 -1.2232 -0.6867
14656TIP3   OH265458   0.838   6.116  14.678 -0.3524 -0.3232 -0.2009
14656TIP3    H165459   0.863   6.027  14.703  3.2444  0.3915 -0.7067
14656TIP3    H265460   0.789   6.150  14.753  1.9930 -1.3469  1.9098
14657TIP3   OH265461   6.593   2.403  16.940 -0.8832 -0.3113  0.4456
14657TIP3    H165462   6.625   2.314  16.921  1.3304  0.1530  1.6826
14657TIP3    H265463   6.585   2.405  17.036  0.0048  1.1051  0.5058
14658TIP3   OH265464   5.031   1.829  15.941 -0.1404 -0.0527  0.5210
14658TIP3    H165465   4.988   1.751  15.904  1.2908 -0.3654 -0.5782
14658TIP3    H265466   5.119   1.799  15.964  0.2344  1.1064  0.6397
14659TIP3   OH265467   0.325   0.873  11.315  1.1681  0.2262 -0.6370
14659TIP3    H165468   0.395   0.850  11.377  1.8598  1.9657 -0.7093
14659TIP3    H265469   0.349   0.828  11.234 -0.2186 -2.8275  0.4696
14660TIP3   OH265470   3.656   0.721   4.916 -0.2244 -0.3056 -0.8005
14660TIP3    H165471   3.711   0.750   4.843 -0.5180 -0.8971 -1.2737
14660TIP3    H265472   3.583   0.783   4.917  0.2739  0.2890 -0.3748
14661TIP3   OH265473   3.906   1.975  16.067 -0.6137 -0.3064  0.6134
14661TIP3    H165474   3.990   1.948  16.104 -1.3242 -2.9694  0.5434
14661TIP3    H265475   3.851   1.897  16.075 -3.3892  1.5894  1.4553
14662TIP3   OH265476   5.049   5.091  10.954  0.2202  0.2090 -0.3224
14662TIP3    H165477   5.016   5.059  11.037  2.6922  2.9165  1.9694
14662TIP3    H265478   5.132   5.134  10.977  0.9553  1.2288 -4.1768
14663TIP3   OH265479   3.176   6.000  11.532  0.5202  0.2456  0.2072
14663TIP3    H165480   3.125   5.970  11.457  0.1466  2.9590 -0.7493
14663TIP3    H265481   3.267   5.986  11.507  0.4023 -3.1584  1.2674
14664TIP3   OH265482   6.677   6.255  15.694  0.7149 -0.2849 -0.0417
14664TIP3    H165483   6.748   6.298  15.742  0.6871  0.3660 -0.5696
14664TIP3    H265484   6.695   6.274  15.602  0.1761 -0.6155 -0.2211
14665TIP3   OH265485   0.546   3.659  13.361 -0.3837 -0.0373  0.0774
14665TIP3    H165486   0.515   3.748  13.346  0.4533  0.3401  0.5112
14665TIP3    H265487   0.571   3.628  13.274  3.2230  1.6642  0.3352
14666TIP3   OH265488   1.170   2.369  11.775  0.2836 -0.1995  0.5205
14666TIP3    H165489   1.114   2.364  11.698 -0.2089 -1.4558  0.9198
14666TIP3    H265490   1.133   2.440  11.828 -0.9873 -1.0161  0.7829
14667TIP3   OH265491   2.572   2.284  15.201  0.2755  0.1617 -0.0565
14667TIP3    H165492   2.605   2.353  15.258  0.0385  0.4450 -0.2633
14667TIP3    H265493   2.500   2.324  15.154  0.3564 -0.1264 -0.4264
14668TIP3   OH265494   4.947   3.785   0.196 -0.2202  0.4505 -0.1428
14668TIP3    H165495   4.981   3.873   0.177 -0.4122  0.4363 -0.5726
14668TIP3    H265496   4.853   3.797   0.202 -0.0695  0.7307  2.4240
14669TIP3   OH265497   2.753   3.950   0.740  0.5977 -0.3554  0.0149
14669TIP3    H165498   2.721   3.860   0.749  1.2850 -0.5701  0.2969
14669TIP3    H265499   2.841   3.949   0.777 -0.0075  0.8214  1.5766
14670TIP3   OH265500   1.892   1.274   2.269  0.7057 -0.2511  0.1533
14670TIP3    H165501   1.932   1.296   2.353  0.0799 -1.8487  0.9054
14670TIP3    H265502   1.950   1.315   2.204  1.6632  0.3125  1.3183
14671TIP3   OH265503   2.741   3.313   3.010 -0.2378  0.0367 -1.1201
14671TIP3    H165504   2.677   3.294   2.942  0.0928  0.5401 -1.5749
14671TIP3    H265505   2.689   3.327   3.089 -0.6372 -0.3182 -1.3177
14672TIP3   OH265506   3.351   5.358  14.734 -0.2103  0.5460  0.4305
14672TIP3    H165507   3.442   5.388  14.736 -0.3862  1.0709  0.7441
14672TIP3    H265508   3.328   5.344  14.826  0.0602 -1.1940  0.2750
14673TIP3   OH265509   1.429   3.822  16.809 -0.1096 -0.5980  0.0681
14673TIP3    H165510   1.435   3.802  16.716  2.7998  0.7725 -0.1599
14673TIP3    H265511   1.402   3.739  16.849 -0.6500 -1.4323 -1.8866
14674TIP3   OH265512   4.659   6.794  14.259 -0.3788 -0.6827  0.3529
14674TIP3    H165513   4.589   6.735  14.232  0.4509 -1.7535  0.5110
14674TIP3    H265514   4.694   6.756  14.339  0.9168 -0.5961 -0.1542
14675TIP3   OH265515   2.845   6.142  12.531 -0.0439  0.0517 -0.4231
14675TIP3    H165516   2.899   6.186  12.465 -1.1969  0.7365 -0.9396
14675TIP3    H265517   2.900   6.141  12.610  1.1719 -0.3720 -1.2544
14676TIP3   OH265518   3.477   3.890   4.827 -0.0716 -0.0201 -0.7390
14676TIP3    H165519   3.446   3.830   4.896  0.9209 -0.1959 -0.4272
14676TIP3    H265520   3.568   3.864   4.812 -0.0034  0.6186 -1.4709
14677TIP3   OH265521   5.549   0.445   5.712  0.0320 -0.5661 -0.1289
14677TIP3    H165522   5.514   0.382   5.649  1.5590  0.0850 -1.6734
14677TIP3    H265523   5.618   0.397   5.758 -0.8728 -0.9426  0.8874
14678TIP3   OH265524   4.619   5.102  10.481 -0.2069  0.2982  0.2004
14678TIP3    H165525   4.540   5.153  10.499  0.0597  0.7927 -0.0321
14678TIP3    H265526   4.676   5.118  10.557  0.9311  2.4086 -1.0023
14679TIP3   OH265527   1.200   2.585   4.637 -0.1064 -0.2165 -0.5448
14679TIP3    H165528   1.126   2.548   4.589 -1.4108 -0.9436  1.8649
14679TIP3    H265529   1.269   2.521   4.627 -0.5421 -0.6376 -0.9385
14680TIP3   OH265530   6.651   1.304   3.468 -0.1005 -0.3432  0.5658
14680TIP3    H165531   6.598   1.384   3.474 -0.1755 -0.3607  0.2039
14680TIP3    H265532   6.658   1.288   3.374  0.2213 -0.5612  0.6275
14681TIP3   OH265533   6.553   3.126   4.974  0.5322 -0.0811  0.7953
14681TIP3    H165534   6.612   3.070   4.923 -0.4542  0.0924 -0.5947
14681TIP3    H265535   6.474   3.072   4.987  1.0667 -0.4565  2.9628
14682TIP3   OH265536   3.302   4.672  12.089  0.1052 -0.5602  0.1612
14682TIP3    H165537   3.236   4.739  12.069  1.1254  0.5199  0.2695
14682TIP3    H265538   3.251   4.596  12.117 -1.1016  0.1278 -0.0814
14683TIP3   OH265539   4.289   2.107  15.222  0.3973 -0.3270  0.0472
14683TIP3    H165540   4.268   2.075  15.309  0.3997 -1.4361 -0.3464
14683TIP3    H265541   4.384   2.121  15.223  0.2659  0.6546  0.5207
14684TIP3   OH265542   2.449   0.741  14.562  0.9861 -0.3874  0.2155
14684TIP3    H165543   2.504   0.755  14.485  2.1432  0.5627  1.1820
14684TIP3    H265544   2.509   0.708  14.629  0.3032  0.2912  1.1793
14685TIP3   OH265545   0.062   2.540  15.217 -0.0202  0.2272 -0.2864
14685TIP3    H165546   0.113   2.491  15.152  0.6762  0.7980 -0.1789
14685TIP3    H265547   0.109   2.524  15.300 -0.2909  0.3713 -0.1076
14686TIP3   OH265548   0.332   3.107  11.282  0.5901 -0.0561 -0.0175
14686TIP3    H165549   0.269   3.035  11.292  1.7904 -1.0807  0.5361
14686TIP3    H265550   0.347   3.137  11.372  0.0150  0.9821 -0.2594
14687TIP3   OH265551   5.408   0.107  16.405  0.2128  0.4122  0.1147
14687TIP3    H165552   5.322   0.085  16.440 -1.0036  1.6141 -1.9344
14687TIP3    H265553   5.435   0.184  16.454 -1.1570  1.6659 -1.0093
14688TIP3   OH265554   2.501   1.152  15.730  0.1545 -0.0389  0.5184
14688TIP3    H165555   2.432   1.093  15.701 -0.1875  1.2761 -1.5785
14688TIP3    H265556   2.454   1.225  15.771  0.0577  1.4461 -1.9695
14689TIP3   OH265557   1.293   5.614  13.773  0.0575  0.4474 -0.5514
14689TIP3    H165558   1.300   5.709  13.767  2.5194  0.2724 -1.7779
14689TIP3    H265559   1.199   5.597  13.776 -0.4876  2.8429 -1.5711
14690TIP3   OH265560   2.269   3.376   2.594 -0.1123  0.5016  0.2653
14690TIP3    H165561   2.316   3.364   2.512  1.4498 -1.6962  1.3574
14690TIP3    H265562   2.337   3.376   2.661 -1.3717  1.7452  1.6296
14691TIP3   OH265563   6.247   2.099  12.219  0.1410  0.1074 -0.2457
14691TIP3    H165564   6.256   2.152  12.140  0.8538  1.2767  0.5921
14691TIP3    H265565   6.336   2.089  12.252  0.0800 -1.9576 -0.5624
14692TIP3   OH265566   5.558   0.828  12.239  0.2700  0.5912  0.0618
14692TIP3    H165567   5.544   0.919  12.213  0.7864  0.5029 -0.5802
14692TIP3    H265568   5.576   0.832  12.333 -1.7519  0.9130  0.4806
14693TIP3   OH265569   4.692   4.182   5.969 -0.3096  0.5508  0.1116
14693TIP3    H165570   4.611   4.222   6.002 -0.4446  1.1181 -0.8702
14693TIP3    H265571   4.672   4.088   5.965 -2.0680  0.9214 -3.0594
14694TIP3   OH265572   6.768   5.371   4.170  0.3981 -0.7161 -0.5333
14694TIP3    H165573   6.854   5.414   4.168  0.0318 -0.0038 -1.4990
14694TIP3    H265574   6.740   5.370   4.078 -0.2745 -1.6663 -0.3267
14695TIP3   OH265575   0.063   5.991  10.699  0.5267  0.1493 -0.1915
14695TIP3    H165576   0.090   5.912  10.652 -1.1919  0.8466 -2.5198
14695TIP3    H265577   0.101   5.981  10.786  2.2451 -2.1550 -1.1077
14696TIP3   OH265578   2.385   3.463  16.463 -0.2700  0.3027 -0.1970
14696TIP3    H165579   2.457   3.425  16.414  0.0977  1.5181 -0.6240
14696TIP3    H265580   2.312   3.464  16.401 -0.8126 -1.3074  0.3601
14697TIP3   OH265581   0.526   5.755   0.241  0.4001  0.4306 -0.6629
14697TIP3    H165582   0.619   5.768   0.261  0.6129 -0.1020 -1.2975
14697TIP3    H265583   0.480   5.808   0.307  1.1198 -0.3063  0.4633
14698TIP3   OH265584   2.640   3.912  11.630  0.3341  0.2786 -0.2782
14698TIP3    H165585   2.582   3.857  11.683 -0.6839  2.0273  0.5287
14698TIP3    H265586   2.614   3.895  11.540 -1.2823  0.8113  0.0569
14699TIP3   OH265587   4.745   1.058  13.051 -0.1956  0.0611  0.3679
14699TIP3    H165588   4.812   1.010  13.100  0.2882  0.6651  0.3106
14699TIP3    H265589   4.775   1.149  13.052 -0.6390  0.2214 -0.2925
14700TIP3   OH265590   6.264   0.763   4.158  0.2171 -0.6530  0.6849
14700TIP3    H165591   6.198   0.696   4.178  0.8687 -1.4992  0.0750
14700TIP3    H265592   6.232   0.842   4.202 -1.4144 -0.9211  0.0482
14701TIP3   OH265593   5.765   4.317  15.409  0.2644  0.4801  0.3068
14701TIP3    H165594   5.707   4.254  15.367  1.3639 -0.4582  0.1451
14701TIP3    H265595   5.780   4.282  15.497 -0.2466  1.2651  0.7130
14702TIP3   OH265596   6.678   2.129   2.223 -0.3926 -0.2354 -0.6917
14702TIP3    H165597   6.731   2.207   2.207 -0.3219 -0.0872  0.2050
14702TIP3    H265598   6.598   2.161   2.265 -0.0402 -0.6931  0.3839
14703TIP3   OH265599   6.152   1.321  13.754 -0.1418 -0.1087 -0.0879
14703TIP3    H165600   6.248   1.324  13.757  0.0082 -2.5277 -0.3901
14703TIP3    H265601   6.132   1.231  13.728 -2.5144  0.2532  0.2940
14704TIP3   OH265602   1.769   3.736   2.520  0.1286  0.3209  0.1686
14704TIP3    H165603   1.712   3.679   2.468 -0.6794  0.9435  0.3542
14704TIP3    H265604   1.838   3.763   2.459  1.0928 -1.6039  0.3291
14705TIP3   OH265605   1.259   0.595  10.884 -0.7699  0.0267 -0.1727
14705TIP3    H165606   1.298   0.641  10.809 -1.8740 -0.7598 -1.2731
14705TIP3    H265607   1.326   0.530  10.909 -0.8046 -0.4398 -1.1998
14706TIP3   OH265608   2.907   3.586   1.983  0.0707 -0.6716  0.4042
14706TIP3    H165609   2.963   3.658   1.957  1.8561 -2.1933 -0.1464
14706TIP3    H265610   2.856   3.620   2.057  0.9148  1.0995  0.2004
14707TIP3   OH265611   4.102   2.269  12.328 -0.2507 -0.2098 -0.1126
14707TIP3    H165612   4.183   2.234  12.367  0.2374  0.6456 -0.3350
14707TIP3    H265613   4.047   2.289  12.404 -0.4280 -1.1782  0.0270
14708TIP3   OH265614   0.007   4.654  15.562 -0.1104  0.0968  0.6253
14708TIP3    H165615  -0.069   4.623  15.514  1.1378  0.1462 -1.4822
14708TIP3    H265616   0.053   4.574  15.588  0.1436  0.0913  0.1644
14709TIP3   OH265617   1.636   6.314   1.440  0.1816 -0.4170 -0.3476
14709TIP3    H165618   1.579   6.330   1.515  1.5901 -2.2516  1.2301
14709TIP3    H265619   1.577   6.289   1.369 -1.1916  1.3714  0.0842
14710TIP3   OH265620   3.416   1.759  15.492 -0.5279  0.0391  0.1117
14710TIP3    H165621   3.461   1.843  15.504  0.0364 -0.1441 -0.6699
14710TIP3    H265622   3.413   1.746  15.397 -0.1978 -1.0548  0.2376
14711TIP3   OH265623   4.076   1.048  13.721  0.5171 -0.3967 -0.5663
14711TIP3    H165624   4.115   0.961  13.731  0.4548 -0.4840 -1.1047
14711TIP3    H265625   4.072   1.082  13.811  0.8231 -0.8239 -0.3868
14712TIP3   OH265626   3.477   0.903  12.483  0.0113  0.2566 -0.0191
14712TIP3    H165627   3.411   0.963  12.517 -0.1893 -0.2301  0.4507
14712TIP3    H265628   3.518   0.952  12.411 -0.8125  0.5828 -0.2825
14713TIP3   OH265629   1.818   4.443   5.573 -0.0828  0.0425 -0.0809
14713TIP3    H165630   1.735   4.396   5.572  1.3917 -2.8617 -3.1390
14713TIP3    H265631   1.851   4.432   5.662 -1.2348 -2.1459  0.1433
14714TIP3   OH265632   2.496   0.003   5.022  0.0907 -0.3628 -0.0934
14714TIP3    H165633   2.555  -0.035   4.958  0.3399 -0.4162  0.1648
14714TIP3    H265634   2.495  -0.060   5.094 -0.0920 -0.2467  0.0059
14715TIP3   OH265635   5.870   0.586  13.734  0.8363 -0.1121  0.5014
14715TIP3    H165636   5.837   0.643  13.803  1.7092 -0.9587  1.6566
14715TIP3    H265637   5.820   0.505  13.744  0.3232  0.0710 -0.4686
14716TIP3   OH265638   0.871   3.771   4.355 -0.2732 -0.0562  0.6406
14716TIP3    H165639   0.846   3.741   4.442  4.7041  1.4692  2.9658
14716TIP3    H265640   0.901   3.693   4.310  2.0664 -0.2927  2.4346
14717TIP3   OH265641   3.255   2.821  16.996  0.1090  0.2271 -0.1200
14717TIP3    H165642   3.318   2.754  17.021  0.2438  0.9336  1.5824
14717TIP3    H265643   3.270   2.836  16.903  2.5640  0.4683  0.2666
14718TIP3   OH265644   4.284   1.180   1.652 -0.9035 -0.0544  0.6227
14718TIP3    H165645   4.210   1.210   1.599  0.9171  1.6097 -1.1077
14718TIP3    H265646   4.338   1.257   1.665  1.2405 -1.4736  0.6499
14719TIP3   OH265647   1.997   6.520   3.942 -0.5249 -0.6980  0.5291
14719TIP3    H165648   2.071   6.547   3.888  1.2206 -1.1396  2.5333
14719TIP3    H265649   1.968   6.438   3.904  0.0492 -0.5358 -0.2804
14720TIP3   OH265650   5.283   2.091  11.056 -0.4606 -0.2439 -0.0667
14720TIP3    H165651   5.355   2.049  11.010 -0.4445 -0.4335  0.1325
14720TIP3    H265652   5.214   2.102  10.989 -1.0498 -1.9410  0.2185
14721TIP3   OH265653   6.778   6.779  15.580  0.1959 -0.5602 -0.0806
14721TIP3    H165654   6.705   6.717  15.583  0.3967 -0.8754 -1.2889
14721TIP3    H265655   6.739   6.862  15.553  0.1936 -0.5850 -0.1531
14722TIP3   OH265656   5.515   3.940  16.416  0.1746  0.1619 -0.1777
14722TIP3    H165657   5.606   3.961  16.395  0.2714  1.1323  1.0587
14722TIP3    H265658   5.498   3.990  16.496 -0.6937 -1.8859  0.9791
14723TIP3   OH265659   0.264   0.952   0.577 -0.0842  0.4669  0.1737
14723TIP3    H165660   0.183   0.974   0.532 -0.0008 -0.4787 -0.4617
14723TIP3    H265661   0.324   1.024   0.555 -0.6552  1.0154  0.4083
14724TIP3   OH265662   2.442   5.222   2.061  0.7314 -0.1600  0.1407
14724TIP3    H165663   2.447   5.266   1.976 -0.0508 -0.1313  0.0990
14724TIP3    H265664   2.355   5.244   2.094  0.5032 -1.2904  0.3341
14725TIP3   OH265665   5.317   0.025   2.910 -0.2747  0.2896 -0.4766
14725TIP3    H165666   5.230   0.059   2.930 -0.5813 -0.1805 -0.9748
14725TIP3    H265667   5.377   0.091   2.944 -0.7585 -0.3093  1.6933
14726TIP3   OH265668   5.194   0.016   5.355  0.3759 -0.7373  0.3608
14726TIP3    H165669   5.220  -0.026   5.437 -0.4322  1.1211  1.6321
14726TIP3    H265670   5.137   0.088   5.381  2.4846  1.8830 -1.5276
14727TIP3   OH265671   0.247   4.894  14.631 -0.0162 -0.0709  0.4302
14727TIP3    H165672   0.334   4.933  14.622 -0.2807  1.1224  2.3447
14727TIP3    H265673   0.263   4.800  14.636  1.0828  0.0784  0.0259
14728TIP3   OH265674   6.413   3.099  14.207  0.1522 -0.3080 -0.1176
14728TIP3    H165675   6.326   3.067  14.184 -0.5398  0.4504  1.3236
14728TIP3    H265676   6.470   3.022  14.200 -1.0088 -1.2943  0.8165
14729TIP3   OH265677   1.015   0.758   0.007  0.7021  0.9144  0.0092
14729TIP3    H165678   0.973   0.766  -0.078 -0.0244  0.1286  0.2718
14729TIP3    H265679   1.031   0.664   0.017  0.5556  0.9683  0.8367
14730TIP3   OH265680   3.785   3.667   1.688  0.1803  0.2396  0.0364
14730TIP3    H165681   3.823   3.660   1.600  1.1716 -2.9618  0.6245
14730TIP3    H265682   3.825   3.746   1.725 -0.3688  1.7409 -2.3667
14731TIP3   OH265683   4.509   0.535   5.875  0.0423 -0.5744 -0.1539
14731TIP3    H165684   4.540   0.626   5.871  1.2442 -0.9918 -0.6717
14731TIP3    H265685   4.417   0.543   5.899 -0.0323  0.8099 -0.7984
14732TIP3   OH265686   4.495   1.079   1.778  0.2139  0.2824  0.1118
14732TIP3    H165687   4.467   0.987   1.783  0.7642  0.1219  0.3402
14732TIP3    H265688   4.423   1.123   1.733  0.0480 -0.3053 -0.2129
14733TIP3   OH265689   0.180   2.021  14.208  0.1223  0.2177 -0.1239
14733TIP3    H165690   0.133   2.104  14.221 -0.9164 -0.3998  0.1442
14733TIP3    H265691   0.267   2.038  14.245 -0.1928  1.0749  0.2634
14734TIP3   OH265692   2.084   4.984   4.145  0.7542 -0.6580  0.6385
14734TIP3    H165693   2.090   4.970   4.051 -2.0978  0.1528  0.2335
14734TIP3    H265694   2.079   5.079   4.155 -0.8371 -0.7852  1.3876
14735TIP3   OH265695   2.841   1.142   6.368 -0.2137 -0.2716  0.0271
14735TIP3    H165696   2.875   1.214   6.315 -0.7451 -0.4935 -0.6185
14735TIP3    H265697   2.753   1.169   6.393 -0.5653 -0.8587 -0.5451
14736TIP3   OH265698   1.602   3.975   5.281  0.4975  0.1542 -0.2306
14736TIP3    H165699   1.512   3.981   5.314 -0.2547  1.1852 -2.3254
14736TIP3    H265700   1.608   3.887   5.244  0.4820 -0.0426  0.2237
14737TIP3   OH265701   1.614   4.225   0.591 -0.2442  0.4674 -0.4568
14737TIP3    H165702   1.565   4.296   0.550 -1.8850 -0.5335 -0.2995
14737TIP3    H265703   1.557   4.148   0.583  0.3574 -0.2757  1.6660
14738TIP3   OH265704   4.083   0.633  14.713 -0.0918 -0.6560 -0.4606
14738TIP3    H165705   4.130   0.553  14.736  0.3366 -0.1652  0.4240
14738TIP3    H265706   4.150   0.702  14.715 -0.8164  0.0504  0.8132
14739TIP3   OH265707   6.227   4.516  12.381 -0.3551 -0.3564 -0.5761
14739TIP3    H165708   6.185   4.560  12.455 -1.2276 -0.8943 -0.7267
14739TIP3    H265709   6.297   4.575  12.354  1.0698 -0.8573  1.6999
14740TIP3   OH265710   6.804   6.636   2.958  0.7153  0.4135 -0.2716
14740TIP3    H165711   6.889   6.600   2.984 -0.0827 -1.0534  0.3719
14740TIP3    H265712   6.750   6.560   2.938 -0.9933  1.2266  0.9922
14741TIP3   OH265713   6.552   2.815   0.917  0.1944 -0.0272 -0.4079
14741TIP3    H165714   6.579   2.727   0.889 -0.3301  0.0684 -1.2317
14741TIP3    H265715   6.624   2.871   0.889  0.0588 -0.0540 -0.8235
14742TIP3   OH265716   5.742   3.173  15.434 -0.1982 -0.2159  0.2655
14742TIP3    H165717   5.787   3.253  15.463  2.0282 -1.2203 -0.2268
14742TIP3    H265718   5.697   3.142  15.513  0.5026  0.4968  0.9712
14743TIP3   OH265719   4.371   6.464  13.225  0.3710  0.2012  0.1546
14743TIP3    H165720   4.449   6.518  13.238  0.1369  1.0924 -1.7754
14743TIP3    H265721   4.317   6.479  13.302  1.9158 -0.1313  1.3344
14744TIP3   OH265722   3.536   1.508   3.915  0.2261 -0.5124 -0.2156
14744TIP3    H165723   3.523   1.438   3.852  1.1732 -1.7012  0.8610
14744TIP3    H265724   3.626   1.497   3.946  0.2556  0.9153  0.3080
14745TIP3   OH265725   1.885   5.945   4.132 -0.2015 -0.1648  0.3375
14745TIP3    H165726   1.883   5.850   4.116  0.1912 -0.4364  1.7579
14745TIP3    H265727   1.794   5.973   4.124 -0.4130 -0.7854  0.5212
14746TIP3   OH265728   4.307   5.129  13.457  0.7539  0.0546  0.2317
14746TIP3    H165729   4.386   5.090  13.495  0.5117 -1.0778 -0.3922
14746TIP3    H265730   4.339   5.201  13.403  1.4650 -1.0782 -0.8906
14747TIP3   OH265731   3.724   2.004  12.700 -0.3313  0.1625  0.2531
14747TIP3    H165732   3.737   2.072  12.766 -0.9034  1.0588 -0.5389
14747TIP3    H265733   3.801   2.011  12.643  0.6461 -1.2448  1.3308
14748TIP3   OH265734   5.288   6.778   5.620 -0.1933  0.8734  0.5344
14748TIP3    H165735   5.250   6.851   5.668 -0.9990 -0.5388  2.1893
14748TIP3    H265736   5.378   6.772   5.651 -0.6585  0.0801  1.8138
14749TIP3   OH265737   2.574   0.212   2.291  0.2017  0.0848  0.6239
14749TIP3    H165738   2.502   0.149   2.285 -0.5895  0.9277  1.1292
14749TIP3    H265739   2.561   0.256   2.375 -0.2131  2.0289 -0.3927
14750TIP3   OH265740   0.172   6.111   2.707 -0.1522 -0.2754 -0.1228
14750TIP3    H165741   0.164   6.016   2.705  2.7070 -0.6091 -2.6397
14750TIP3    H265742   0.104   6.142   2.646  0.2214 -0.8729 -0.8568
14751TIP3   OH265743   3.167   0.232  15.277  0.4881  0.2016  0.2090
14751TIP3    H165744   3.154   0.137  15.276 -0.8441  0.3442  1.1485
14751TIP3    H265745   3.188   0.253  15.368  1.5892  0.7391 -0.1397
14752TIP3   OH265746   6.700   2.111  12.595 -0.2605  0.0178 -0.0730
14752TIP3    H165747   6.764   2.043  12.576 -1.4063 -1.4050  0.9860
14752TIP3    H265748   6.621   2.084  12.548 -0.2680  1.4821 -0.9543
14753TIP3   OH265749   0.932   4.730   2.469  0.1573  0.4790  0.1409
14753TIP3    H165750   0.868   4.666   2.500  0.2473  0.1590 -0.3236
14753TIP3    H265751   0.910   4.810   2.515 -2.4464  1.2103 -2.1286
14754TIP3   OH265752   3.999   1.645   4.656 -0.2776  0.4169 -0.4765
14754TIP3    H165753   3.956   1.580   4.713  1.7832 -1.0874 -0.5217
14754TIP3    H265754   3.982   1.729   4.699 -3.7128  0.0454 -0.8349
14755TIP3   OH265755   1.886   2.695   1.303  0.1905 -0.2642 -1.4523
14755TIP3    H165756   1.804   2.738   1.283 -0.0049 -0.4733 -1.1241
14755TIP3    H265757   1.870   2.602   1.286  0.1038 -0.4087 -0.6203
14756TIP3   OH265758   0.627   6.068  13.913  0.2836 -0.0643 -0.5804
14756TIP3    H165759   0.600   6.133  13.848  0.8171 -0.9295 -1.7053
14756TIP3    H265760   0.588   6.098  13.995  0.3033  1.5177 -1.1220
14757TIP3   OH265761   3.572   0.691  11.553 -0.6379 -0.4246  0.1543
14757TIP3    H165762   3.621   0.672  11.473 -1.0080  1.2841 -0.5241
14757TIP3    H265763   3.480   0.684  11.528 -0.7717  0.9052  0.1680
14758TIP3   OH265764   5.604   1.347  12.480 -0.0768  0.2620 -0.2900
14758TIP3    H165765   5.610   1.427  12.428 -0.4257 -1.0534 -2.4654
14758TIP3    H265766   5.676   1.354  12.543  0.4987  1.8379 -1.0800
14759TIP3   OH265767   3.515   5.727  17.208  0.4905 -0.7609  0.6355
14759TIP3    H165768   3.567   5.694  17.135 -2.2420 -0.3193 -1.6900
14759TIP3    H265769   3.458   5.794  17.169  0.4643  1.1802  3.6541
14760TIP3   OH265770   3.728   3.591  10.693 -0.2329 -0.2019  0.0680
14760TIP3    H165771   3.664   3.536  10.647 -1.1504 -0.4214  1.5249
14760TIP3    H265772   3.698   3.680  10.679 -0.3707 -0.2536  0.0299
14761TIP3   OH265773   1.082   5.696   0.426  0.0126 -0.2936 -0.3259
14761TIP3    H165774   1.066   5.790   0.421  1.8773  0.1748  1.4597
14761TIP3    H265775   1.175   5.687   0.408 -0.3008 -1.9295 -1.3389
14762TIP3   OH265776   6.043   5.596   4.505  0.3096  0.0104  0.3020
14762TIP3    H165777   5.978   5.531   4.480  0.1969  0.4904 -0.6983
14762TIP3    H265778   5.994   5.661   4.555  0.6002 -1.1264  2.1519
14763TIP3   OH265779   2.252   4.863  11.473  0.4039 -0.7379  0.0943
14763TIP3    H165780   2.248   4.891  11.565 -1.1995  0.2180 -0.2362
14763TIP3    H265781   2.161   4.864  11.443  0.7090 -2.6493 -1.0632
14764TIP3   OH265782   4.390   6.646  11.721  0.2927 -0.9302  0.1365
14764TIP3    H165783   4.296   6.648  11.702  0.1852 -2.6990  0.3113
14764TIP3    H265784   4.397   6.597  11.803  1.3035  0.2051  0.7547
14765TIP3   OH265785   5.362   4.976  15.640  0.8338  0.3531  0.1852
14765TIP3    H165786   5.283   4.922  15.647 -0.0140  1.5583  0.2963
14765TIP3    H265787   5.331   5.059  15.602  2.3412  0.2601 -1.3636
14766TIP3   OH265788   6.788   1.398   5.373  0.2213 -1.0432  0.3724
14766TIP3    H165789   6.745   1.355   5.299 -0.6083 -1.1143  0.8832
14766TIP3    H265790   6.881   1.381   5.360  0.0950 -0.9678 -0.7039
14767TIP3   OH265791   4.237   0.245  13.796 -0.2726 -0.4660 -0.5015
14767TIP3    H165792   4.238   0.255  13.892  1.2038 -0.7899 -0.4651
14767TIP3    H265793   4.240   0.335  13.763 -1.9326 -0.2916 -0.2817
14768TIP3   OH265794   3.427   3.525  17.039  0.1632  0.1639  0.2065
14768TIP3    H165795   3.469   3.599  17.083  1.2176 -0.1614 -0.2386
14768TIP3    H265796   3.494   3.457  17.037 -0.4073 -0.3902 -0.4643
14769TIP3   OH265797   1.613   0.547  12.171  0.0237  0.4216 -0.9567
14769TIP3    H165798   1.655   0.586  12.095 -1.3197  1.2692 -1.2955
14769TIP3    H265799   1.666   0.469  12.191  1.5980  1.3104 -1.4790
14770TIP3   OH265800   0.087   5.288   2.697  0.6375  0.5681  0.1122
14770TIP3    H165801   0.135   5.353   2.646 -0.6493  0.1235 -1.7555
14770TIP3    H265802   0.067   5.218   2.635 -2.0898  0.5568  0.8481
14771TIP3   OH265803   6.257   0.203  13.651 -0.6207 -0.1769  0.2032
14771TIP3    H165804   6.188   0.264  13.675 -0.8959 -1.1278  1.9013
14771TIP3    H265805   6.225   0.161  13.571 -1.8808 -0.4225  0.8248
14772TIP3   OH265806   1.016   1.226  11.358 -0.8809 -0.3444  1.1628
14772TIP3    H165807   0.969   1.307  11.338  0.3960 -0.0599 -0.9636
14772TIP3    H265808   1.108   1.248  11.345 -0.5452 -2.3008 -0.1945
14773TIP3   OH265809   1.105   2.525   3.275 -0.3017 -0.2787  0.0555
14773TIP3    H165810   1.032   2.492   3.224  0.2549 -0.8172 -0.4117
14773TIP3    H265811   1.176   2.463   3.258  1.2987  1.9392 -2.1375
14774TIP3   OH265812   5.570   3.159  13.238  0.2154  0.2966  0.4500
14774TIP3    H165813   5.560   3.193  13.149  0.1976  1.7451  0.9771
14774TIP3    H265814   5.524   3.075  13.237  1.2388 -0.2751 -1.2065
14775TIP3   OH265815   4.963   5.273   5.858  0.2015  0.4195 -0.2841
14775TIP3    H165816   4.990   5.181   5.856 -0.0030  0.3647 -0.5530
14775TIP3    H265817   5.042   5.321   5.831  0.2279  0.3064 -0.4077
14776TIP3   OH265818   0.479   5.562  14.873 -0.2748  0.3854  0.1046
14776TIP3    H165819   0.452   5.478  14.911 -2.2692  0.7086 -0.4870
14776TIP3    H265820   0.398   5.600  14.839  0.5007  2.7646  0.7483
14777TIP3   OH265821   3.200   5.287   5.616 -0.3397 -0.0272  0.0497
14777TIP3    H165822   3.293   5.301   5.597 -0.6137  0.9359 -0.6982
14777TIP3    H265823   3.198   5.257   5.707  0.6828  0.2291  0.1704
14778TIP3   OH265824   3.268   6.351  13.947  0.1520  0.1693  0.1380
14778TIP3    H165825   3.237   6.367  14.036  1.0055  0.4077  0.4042
14778TIP3    H265826   3.270   6.437  13.906  0.4364  0.1534  0.1169
14779TIP3   OH265827   6.550   2.940  14.675 -0.1918 -0.3145  0.2469
14779TIP3    H165828   6.546   2.860  14.728 -0.0825  0.0280  0.7824
14779TIP3    H265829   6.505   2.918  14.593 -0.1644 -0.9203  0.3964
14780TIP3   OH265830   1.161   4.433  15.612  0.3801  0.1732  0.1254
14780TIP3    H165831   1.087   4.419  15.671  0.1475 -0.1727 -0.2353
14780TIP3    H265832   1.167   4.528  15.602  0.5549  0.2399  0.8684
14781TIP3   OH265833   6.386   3.260   5.579 -0.1329  0.1178  0.8405
14781TIP3    H165834   6.458   3.208   5.614  0.2101 -0.2638 -0.3827
14781TIP3    H265835   6.366   3.219   5.495 -0.6126  1.2917  0.3690
14782TIP3   OH265836   4.205   2.617  16.578  0.5556  0.2511  0.3117
14782TIP3    H165837   4.149   2.611  16.656 -0.3856  0.5317 -0.3181
14782TIP3    H265838   4.154   2.575  16.509  2.2977 -2.0235  0.2987
14783TIP3   OH265839   3.420   2.096   3.641  0.4625  0.6220  0.0083
14783TIP3    H165840   3.441   2.160   3.709  0.2295 -1.0535  1.7628
14783TIP3    H265841   3.327   2.110   3.622  0.5581  1.1768 -0.0638
14784TIP3   OH265842   2.291   3.828  14.257 -0.0026  0.0754  0.3958
14784TIP3    H165843   2.262   3.903  14.309  0.4415 -0.6770  1.7520
14784TIP3    H265844   2.211   3.797  14.214 -0.0121  1.9453 -1.0439
14785TIP3   OH265845   4.433   1.548  16.482 -0.1958  0.4107  0.2645
14785TIP3    H165846   4.507   1.506  16.438 -0.7188  0.1165 -0.3604
14785TIP3    H265847   4.375   1.476  16.505 -1.1576  0.7559 -0.9210
14786TIP3   OH265848   1.765   0.718  15.493  0.1389  0.0587 -0.8300
14786TIP3    H165849   1.815   0.656  15.440  1.6082  0.3006  0.2083
14786TIP3    H265850   1.796   0.703  15.583 -2.3190 -0.3840  0.0297
14787TIP3   OH265851   1.747   6.524  15.194  0.0519  0.0865 -0.0214
14787TIP3    H165852   1.773   6.467  15.121  0.3015 -0.0624  0.1833
14787TIP3    H265853   1.654   6.507  15.205 -0.0494  0.3058 -0.4796
14788TIP3   OH265854   2.096   5.426  11.486 -0.2426 -0.3664 -0.0372
14788TIP3    H165855   2.044   5.425  11.406 -2.0704 -2.6540  1.0396
14788TIP3    H265856   2.052   5.490  11.542 -0.8652 -0.9971  0.2148
14789TIP3   OH265857   3.974   0.895  12.011 -0.2116 -0.0812 -0.0578
14789TIP3    H165858   3.988   0.937  11.926 -0.3338 -2.7252 -1.4779
14789TIP3    H265859   3.985   0.966  12.074  1.9586  1.5806 -2.1212
14790TIP3   OH265860   1.709   2.481  10.960  0.7308 -0.2829 -0.4629
14790TIP3    H165861   1.623   2.456  10.993  1.3796 -0.1663  1.4607
14790TIP3    H265862   1.692   2.523  10.876 -0.7821 -3.0216 -1.6382
14791TIP3   OH265863   0.698   0.889   5.904  0.4290  0.3431 -0.3878
14791TIP3    H165864   0.732   0.956   5.964  1.5219 -0.5760  0.0416
14791TIP3    H265865   0.708   0.807   5.952  0.8669 -0.3577 -1.6513
14792TIP3   OH265866   4.010   6.799   0.695 -0.0612  0.0710  0.1964
14792TIP3    H165867   3.916   6.810   0.708 -0.1383  0.8125 -0.8231
14792TIP3    H265868   4.030   6.715   0.734 -1.2242 -0.2613  0.1184
14793TIP3   OH265869   0.097   5.109   1.839 -0.0818 -0.1825 -0.5931
14793TIP3    H165870   0.041   5.158   1.778  0.4089  0.3672 -0.6031
14793TIP3    H265871   0.161   5.173   1.870  0.5760 -0.8202 -0.6172
14794TIP3   OH265872   5.170   0.037   3.721  0.3599 -0.1886  0.0696
14794TIP3    H165873   5.095   0.068   3.771 -0.9814  0.6022 -2.2931
14794TIP3    H265874   5.158  -0.058   3.716 -0.8448  0.0001 -0.8191
14795TIP3   OH265875   2.162   3.050   4.274  0.2145  0.4018  0.3235
14795TIP3    H165876   2.203   3.003   4.201 -1.0110 -1.0102  0.4891
14795TIP3    H265877   2.144   2.982   4.339  1.1739  1.6141  1.9259
14796TIP3   OH265878   5.168   3.299   1.895 -0.7768 -0.9440  0.2507
14796TIP3    H165879   5.177   3.276   1.987  0.9148 -1.5393 -0.0134
14796TIP3    H265880   5.173   3.215   1.849  1.4879 -0.4683 -0.5132
14797TIP3   OH265881   6.530   3.612   0.642 -0.4867  0.5545  0.4173
14797TIP3    H165882   6.540   3.705   0.666  1.0189  0.7423 -0.7653
14797TIP3    H265883   6.610   3.592   0.593 -1.9595 -0.6357 -1.6501
14798TIP3   OH265884   2.072   6.225   1.695 -0.4522  0.5791  0.2013
14798TIP3    H165885   2.093   6.314   1.665  0.2980  0.5479  0.6210
14798TIP3    H265886   2.028   6.238   1.780 -0.0581  0.5369  0.4132
14799TIP3   OH265887   6.654   1.017   4.847 -0.0504  0.1632  0.5022
14799TIP3    H165888   6.666   1.005   4.753  1.9383 -0.1038  0.7320
14799TIP3    H265889   6.627   1.108   4.857 -1.8415 -0.2353 -0.3954
14800TIP3   OH265890   3.566   2.036   1.216  0.0876  0.1784  0.3619
14800TIP3    H165891   3.581   1.941   1.214  0.8585  0.2852  0.6768
14800TIP3    H265892   3.477   2.045   1.248 -0.1883 -0.4573 -0.1892
14801TIP3   OH265893   2.759   6.386  11.484 -0.0338 -0.1472  0.5504
14801TIP3    H165894   2.759   6.454  11.552  0.0762  0.8246 -0.3895
14801TIP3    H265895   2.712   6.426  11.411  2.1700 -0.1122 -0.9383
14802TIP3   OH265896   4.636   5.598  13.522  0.1603  0.1045  0.1217
14802TIP3    H165897   4.585   5.523  13.553 -1.7614  0.6313 -1.5606
14802TIP3    H265898   4.574   5.670  13.521  0.9103  0.7741 -2.0378
14803TIP3   OH265899   4.325   2.385   2.858  0.0864  0.4301 -0.0060
14803TIP3    H165900   4.350   2.389   2.766  1.6398  1.1722  0.4153
14803TIP3    H265901   4.401   2.420   2.905 -0.0230 -1.4376  1.6773
14804TIP3   OH265902   1.866   3.590  13.377 -0.0164  0.2130 -0.5756
14804TIP3    H165903   1.835   3.577  13.467 -1.0319  2.0537 -0.6110
14804TIP3    H265904   1.961   3.598  13.386 -0.2038  1.6550  0.5497
14805TIP3   OH265905   6.794   2.329  11.508 -0.1953 -0.3755 -0.3829
14805TIP3    H165906   6.831   2.393  11.447 -0.8978 -0.8103 -1.3032
14805TIP3    H265907   6.778   2.378  11.588 -0.6726  0.6030 -1.0528
14806TIP3   OH265908   2.470   2.078  16.095  0.5270 -0.0811  0.3844
14806TIP3    H165909   2.547   2.042  16.051  1.9862  2.5594  0.5188
14806TIP3    H265910   2.443   2.151  16.039 -0.8049  0.1178  1.2431
14807TIP3   OH265911   6.010   6.042   3.927  0.2219 -0.3338  0.0846
14807TIP3    H165912   6.103   6.062   3.936  0.0019  0.7292  0.0995
14807TIP3    H265913   5.970   6.124   3.896 -0.5621 -1.0439 -0.8504
14808TIP3   OH265914   0.641   4.412  14.318 -0.4331 -0.3560 -0.0289
14808TIP3    H165915   0.568   4.470  14.297  0.1021  0.0195 -0.9198
14808TIP3    H265916   0.657   4.362  14.238  0.4158 -0.2845  0.0826
14809TIP3   OH265917   6.116   4.802   0.495  0.3768 -0.0631  0.1739
14809TIP3    H165918   6.153   4.890   0.501 -1.4985  0.8059 -0.2662
14809TIP3    H265919   6.127   4.778   0.403  0.6333 -0.1644  0.2318
14810TIP3   OH265920   5.706   1.146  11.125 -0.7025  0.3304 -0.1757
14810TIP3    H165921   5.657   1.064  11.119  0.8834 -0.5248 -2.3922
14810TIP3    H265922   5.781   1.125  11.180  0.3224 -0.0898 -1.6800
14811TIP3   OH265923   2.176   5.435   5.472 -0.1353 -0.4612 -0.2350
14811TIP3    H165924   2.119   5.495   5.522  0.4136  0.8246 -1.1080
14811TIP3    H265925   2.217   5.381   5.539  0.0630  0.7658  0.6819
14812TIP3   OH265926   0.511   3.777   4.441  0.0524 -0.0114 -0.2974
14812TIP3    H165927   0.576   3.785   4.511 -2.1186 -1.8960  2.1279
14812TIP3    H265928   0.533   3.695   4.397 -0.0272 -0.0545 -0.2550
14813TIP3   OH265929   1.185   2.495   5.369  0.5159 -0.8722  0.2839
14813TIP3    H165930   1.153   2.446   5.293  0.1150 -1.6285  0.9195
14813TIP3    H265931   1.119   2.480   5.436  0.4228  0.5115  0.5230
14814TIP3   OH265932   5.843   0.281  17.223  0.0300  0.0968  1.2083
14814TIP3    H165933   5.934   0.272  17.195 -0.1953  0.1501  0.4438
14814TIP3    H265934   5.824   0.375  17.214  0.1913  0.2431  2.2962
14815TIP3   OH265935   2.158   4.289   3.576  0.7154  0.1131  0.5617
14815TIP3    H165936   2.160   4.198   3.544  1.3441 -0.0602  1.0855
14815TIP3    H265937   2.069   4.299   3.612  0.5144 -0.1684  0.1573
14816TIP3   OH265938   5.811   3.618   6.353 -0.0069 -0.1747  0.5241
14816TIP3    H165939   5.740   3.683   6.352  0.4703  0.4024 -1.3772
14816TIP3    H265940   5.875   3.653   6.291  0.7709 -1.9395  0.2861
14817TIP3   OH265941   2.012   0.820   6.231 -0.3766  0.0554  0.2765
14817TIP3    H165942   2.011   0.909   6.196 -0.0950  0.8181  2.0852
14817TIP3    H265943   2.093   0.815   6.282 -1.1263 -0.7072  1.4603
14818TIP3   OH265944   5.748   4.889   3.221 -0.2859 -0.1539 -0.0669
14818TIP3    H165945   5.656   4.869   3.234 -0.5711  0.8586 -0.4457
14818TIP3    H265946   5.787   4.880   3.308 -0.5851 -1.2761 -0.0278
14819TIP3   OH265947   2.423   4.790  14.008 -0.0836 -0.1917  0.0742
14819TIP3    H165948   2.442   4.861  14.070  0.8997 -1.8201  1.7629
14819TIP3    H265949   2.466   4.816  13.927  1.8123  0.3586  1.1969
14820TIP3   OH265950   5.712   0.962  16.525  0.0648 -0.0181 -0.7468
14820TIP3    H165951   5.620   0.987  16.525  0.6081  2.4527  1.8960
14820TIP3    H265952   5.719   0.895  16.594  0.3778  0.5574 -0.2064
14821TIP3   OH265953   0.097   0.203   1.406  0.3205 -0.8305  0.5282
14821TIP3    H165954   0.026   0.139   1.393 -0.6943  0.1564  1.0099
14821TIP3    H265955   0.063   0.263   1.473  1.1261  0.3762 -0.1051
14822TIP3   OH265956   1.715   1.670   5.159 -0.0497  0.2494 -0.1227
14822TIP3    H165957   1.783   1.694   5.222 -1.0660 -1.3793  1.7098
14822TIP3    H265958   1.727   1.730   5.086  3.5338 -0.1605 -0.0322
14823TIP3   OH265959   6.726   4.082  15.511  0.5871 -0.0470 -0.2381
14823TIP3    H165960   6.766   3.996  15.517  1.8511  0.4204 -1.3555
14823TIP3    H265961   6.632   4.065  15.501  0.9473 -1.3635 -1.7507
14824TIP3   OH265962   4.388   1.001  12.754  0.0667  0.0046 -0.5162
14824TIP3    H165963   4.422   0.912  12.756 -1.6258 -0.6594  0.5303
14824TIP3    H265964   4.412   1.034  12.666  1.4741 -1.1200 -0.5970
14825TIP3   OH265965   1.018   5.775  14.467 -0.0268  0.2892  0.6108
14825TIP3    H165966   0.939   5.805  14.421  0.9156  0.7722 -0.7537
14825TIP3    H265967   1.003   5.799  14.558 -0.9502  1.4657  0.1759
14826TIP3   OH265968   2.134   2.291  15.707  1.1051 -0.7661  0.3588
14826TIP3    H165969   2.099   2.380  15.716  0.3063 -1.0244 -0.1179
14826TIP3    H265970   2.060   2.234  15.723  1.4400 -1.3403 -0.1042
14827TIP3   OH265971   5.985   4.662  13.093 -0.4925  0.1157 -0.3600
14827TIP3    H165972   5.912   4.682  13.033 -1.8109 -1.7000  0.5337
14827TIP3    H265973   6.054   4.628  13.036 -1.3516 -0.6356 -0.9897
14828TIP3   OH265974   2.715   5.961   1.685 -0.2402 -0.5358 -0.3977
14828TIP3    H165975   2.777   5.888   1.686 -2.5620 -2.6769  0.2973
14828TIP3    H265976   2.695   5.974   1.592 -1.7574 -2.7520 -0.4891
14829TIP3   OH265977   3.158   0.751  11.191 -0.0124 -0.0565  0.2841
14829TIP3    H165978   3.124   0.666  11.220  1.6811 -0.6863  0.5314
14829TIP3    H265979   3.247   0.732  11.160 -0.5018  1.1908 -2.1040
14830TIP3   OH265980   2.211   0.259   3.606 -0.5340  0.2834 -0.9245
14830TIP3    H165981   2.281   0.245   3.669  1.3650 -0.4988 -3.0521
14830TIP3    H265982   2.201   0.354   3.601  1.7561  0.5270 -1.9149
14831TIP3   OH265983   5.013   0.614   1.645  0.0779  0.2290 -0.2984
14831TIP3    H165984   4.961   0.534   1.651 -0.5870  0.4898 -2.1366
14831TIP3    H265985   5.088   0.599   1.703 -0.3028 -1.5077 -0.2247
14832TIP3   OH265986   1.795   6.782  13.219 -0.4810  0.4849  0.5177
14832TIP3    H165987   1.867   6.767  13.158 -0.6535  1.8134 -0.0654
14832TIP3    H265988   1.716   6.768  13.166 -0.6323  1.6649  0.4026
14833TIP3   OH265989   0.065   4.349  14.525  0.5790 -0.0212 -0.4591
14833TIP3    H165990   0.134   4.350  14.592  1.6601 -0.7034 -1.5128
14833TIP3    H265991   0.083   4.426  14.471  2.2424 -1.6094 -2.3378
14834TIP3   OH265992   4.697   1.760   0.203  0.0428  0.0329 -0.2090
14834TIP3    H165993   4.774   1.708   0.179  0.9562  0.6676  1.2015
14834TIP3    H265994   4.728   1.817   0.274 -1.4787  1.0028 -0.2866
14835TIP3   OH265995   3.413   6.400  15.311  0.8007  0.2497  0.8194
14835TIP3    H165996   3.478   6.422  15.244 -0.5291 -0.1038 -0.6619
14835TIP3    H265997   3.394   6.483  15.354 -0.1199  1.0194 -0.9494
14836TIP3   OH265998   3.659   4.886   3.630 -0.0786  0.5766  0.0797
14836TIP3    H165999   3.694   4.931   3.707 -0.4900 -0.3022  0.7921
14836TIP3    H266000   3.717   4.912   3.558  2.4871 -1.2706  1.3210
14837TIP3   OH266001   2.661   3.970   0.231 -0.0555  0.0050 -0.2622
14837TIP3    H166002   2.586   3.923   0.195 -0.5958  0.2722  0.4820
14837TIP3    H266003   2.691   3.916   0.304 -0.0443  0.2997 -0.0436
14838TIP3   OH266004   4.383   4.511  13.565  0.2692  0.4688 -0.5700
14838TIP3    H166005   4.447   4.475  13.504  0.3100  0.7523 -0.6999
14838TIP3    H266006   4.433   4.527  13.646  0.5255  1.2846 -0.8715
14839TIP3   OH266007   5.233   3.898  13.529 -0.4110 -0.1014  0.3219
14839TIP3    H166008   5.299   3.945  13.478 -0.5137  0.3130  0.5664
14839TIP3    H266009   5.235   3.809  13.494 -0.4755  0.1694 -0.4075
14840TIP3   OH266010   4.349   3.148  14.628  0.2277  0.0265 -0.0311
14840TIP3    H166011   4.263   3.190  14.628  0.6008  0.8077 -0.4195
14840TIP3    H266012   4.332   3.058  14.600 -0.4575  0.1837 -0.1254
14841TIP3   OH266013   3.500   5.552  11.447  0.5907 -0.3832 -0.5977
14841TIP3    H166014   3.509   5.459  11.430 -0.8335 -0.3869 -1.4637
14841TIP3    H266015   3.538   5.595  11.370  3.3362 -0.1239  0.7560
14842TIP3   OH266016   5.669   1.224   4.461  0.0438  0.2721 -0.4738
14842TIP3    H166017   5.676   1.162   4.389 -1.1785  0.4629 -0.7708
14842TIP3    H266018   5.664   1.310   4.419  0.5992  0.4903 -0.1070
14843TIP3   OH266019   4.013   6.188  11.317  0.1374 -0.0189 -0.3492
14843TIP3    H166020   3.960   6.267  11.329 -0.7873 -0.7137  0.3317
14843TIP3    H266021   4.089   6.200  11.374 -1.2233 -0.6554  1.6874
14844TIP3   OH266022   1.983   0.780   1.126 -0.1421  0.0571 -0.0560
14844TIP3    H166023   2.076   0.782   1.144 -0.5241  2.2310  2.2041
14844TIP3    H266024   1.954   0.693   1.152  1.3284 -0.9818 -1.6842
14845TIP3   OH266025   1.698   2.892  14.342 -0.1528  0.1383  0.3196
14845TIP3    H166026   1.754   2.881  14.418 -0.9235 -0.7673  0.7797
14845TIP3    H266027   1.686   2.803  14.308 -1.0229  0.3603  0.0232
14846TIP3   OH266028   5.655   2.206   5.274  0.3135 -0.4625  0.2200
14846TIP3    H166029   5.621   2.188   5.362 -0.2608 -0.4612 -0.0018
14846TIP3    H266030   5.670   2.119   5.236 -0.3234 -0.4730 -0.0205
14847TIP3   OH266031   5.265   1.380  16.229  0.5965 -0.2366  0.3361
14847TIP3    H166032   5.356   1.375  16.257  0.7471  1.0840  0.1248
14847TIP3    H266033   5.261   1.458  16.173 -0.7308 -0.0926  0.5985
14848TIP3   OH266034   1.320   4.901   0.852 -0.1120  0.5405  0.1206
14848TIP3    H166035   1.306   4.877   0.944 -0.9890  0.0490 -0.1281
14848TIP3    H266036   1.394   4.848   0.824 -0.0338  0.4701  0.4562
14849TIP3   OH266037   2.471   3.093   1.951  0.0362 -0.3402 -0.2420
14849TIP3    H166038   2.544   3.049   1.908  0.6731  0.5204 -0.0841
14849TIP3    H266039   2.495   3.096   2.043 -1.1178 -1.7787  0.1406
14850TIP3   OH266040   2.593   6.546   4.984  0.2028 -0.0597 -0.0982
14850TIP3    H166041   2.678   6.517   5.017  0.0349 -2.1489 -1.3294
14850TIP3    H266042   2.542   6.566   5.063  0.2557 -3.5254  0.9922
14851TIP3   OH266043   1.975   3.534  15.941 -0.2925  0.5300  0.3114
14851TIP3    H166044   2.069   3.552  15.935 -0.0200  0.5244  3.3600
14851TIP3    H266045   1.936   3.618  15.963 -1.2085  0.7406 -1.8409
14852TIP3   OH266046   6.022   6.088   2.324 -0.8558  0.0027  0.2775
14852TIP3    H166047   6.049   5.996   2.328  0.3991  0.3414  0.1755
14852TIP3    H266048   5.934   6.089   2.361 -0.4950 -1.0946  1.2392
14853TIP3   OH266049   3.206   1.305   3.841  0.3271 -0.2547  0.6563
14853TIP3    H166050   3.165   1.226   3.804  2.4492 -2.0466  1.8837
14853TIP3    H266051   3.250   1.347   3.767 -0.7296 -0.2598  0.0079
14854TIP3   OH266052   4.655   6.789   4.262 -0.0662 -0.1686 -0.3656
14854TIP3    H166053   4.611   6.848   4.323 -1.0029 -1.5049  0.3322
14854TIP3    H266054   4.748   6.798   4.281 -0.3069 -0.1406  0.9073
14855TIP3   OH266055   3.540   0.204  16.853  0.1686 -0.0750  0.2734
14855TIP3    H166056   3.531   0.283  16.907  0.5833  0.2207 -0.0786
14855TIP3    H266057   3.523   0.132  16.913  0.1641  0.2676  0.6921
14856TIP3   OH266058   3.164   1.791  15.335  0.3110 -0.3748 -0.8299
14856TIP3    H166059   3.239   1.733  15.347  1.0208  0.5185 -0.7776
14856TIP3    H266060   3.189   1.848  15.263  0.1570  0.6524 -0.1005
14857TIP3   OH266061   1.843   4.174  11.496  0.0591 -0.5934  0.1140
14857TIP3    H166062   1.812   4.112  11.430 -2.2285  0.3445  0.1882
14857TIP3    H266063   1.786   4.160  11.571 -0.3642  1.3517  0.2250
14858TIP3   OH266064   5.475   5.134  13.065  0.0322  0.5937  1.1301
14858TIP3    H166065   5.424   5.187  13.004 -1.4549 -0.7618  1.1607
14858TIP3    H266066   5.517   5.199  13.123  0.8515  1.8629 -0.7869
14859TIP3   OH266067   0.474   0.590  11.208  0.1135 -0.0596  0.1495
14859TIP3    H166068   0.557   0.571  11.251  0.3432  0.1315 -0.1976
14859TIP3    H266069   0.490   0.571  11.115  1.2720  4.3833 -0.7791
14860TIP3   OH266070   2.528   3.720  12.826  0.2579  0.1904 -0.4164
14860TIP3    H166071   2.434   3.717  12.839  0.3214 -0.9645 -0.2087
14860TIP3    H266072   2.566   3.693  12.909  0.7670  0.0770 -0.6791
14861TIP3   OH266073   5.494   3.412   1.057  0.1407 -0.4828  0.2091
14861TIP3    H166074   5.560   3.469   1.097 -0.3233 -0.5944  1.1656
14861TIP3    H266075   5.411   3.454   1.079 -0.1220 -0.3946 -0.9038
14862TIP3   OH266076   6.344   0.507   2.451  0.0211 -0.3812  0.0154
14862TIP3    H166077   6.386   0.461   2.378 -0.1865 -1.2952  0.4588
14862TIP3    H266078   6.255   0.524   2.421  0.9467  2.6367 -1.4069
14863TIP3   OH266079   0.747   0.474  15.548  0.1373  0.0773 -0.0661
14863TIP3    H166080   0.753   0.416  15.623 -0.8679  2.7615  2.2703
14863TIP3    H266081   0.837   0.483  15.517  0.9346  0.5353  2.2171
14864TIP3   OH266082   6.290   3.037  14.546  0.4861  0.1053 -0.2111
14864TIP3    H166083   6.333   2.965  14.500  0.1785  0.6634 -1.4291
14864TIP3    H266084   6.258   2.998  14.627 -0.6035 -1.4128 -1.3088
14865TIP3   OH266085   3.278   0.166   0.152 -0.1210 -0.0551  0.6162
14865TIP3    H166086   3.373   0.177   0.157  0.4622 -1.8952 -3.0587
14865TIP3    H266087   3.244   0.255   0.150  1.3827  0.6503  2.6183
14866TIP3   OH266088   2.149   3.093  10.676  0.2628 -0.0370 -0.2785
14866TIP3    H166089   2.209   3.140  10.733  0.9382  1.1709 -1.8999
14866TIP3    H266090   2.116   3.020  10.729  2.3594 -0.1303  0.9760
14867TIP3   OH266091   5.793   3.916   4.342 -0.4636 -0.4673 -0.4228
14867TIP3    H166092   5.873   3.960   4.369  0.1375 -1.0539 -1.2196
14867TIP3    H266093   5.820   3.827   4.320 -1.5487 -1.0518  0.4994
14868TIP3   OH266094   4.447   0.245  11.773  0.4778 -0.0416 -0.1590
14868TIP3    H166095   4.521   0.285  11.728 -1.2235  0.8062 -2.4081
14868TIP3    H266096   4.442   0.157  11.736  0.3112 -0.0605 -0.0892
14869TIP3   OH266097   2.173   0.793  17.116 -0.1609 -0.4003  0.0698
14869TIP3    H166098   2.188   0.859  17.184  0.3226 -0.8781  0.4350
14869TIP3    H266099   2.082   0.767  17.128 -0.4468  0.3956 -0.2602
14870TIP3   OH266100   6.760   4.493   1.106 -0.0487 -0.1895  0.7391
14870TIP3    H166101   6.774   4.587   1.123 -0.1707  0.1530 -0.9134
14870TIP3    H266102   6.667   4.486   1.087  0.3885 -0.1748 -1.7027
14871TIP3   OH266103   5.069   4.279   5.140 -0.1366  0.1046  0.0742
14871TIP3    H166104   5.037   4.189   5.133 -0.4898  0.0892  1.5780
14871TIP3    H266105   5.083   4.306   5.050  0.0993 -1.5013 -0.4090
14872TIP3   OH266106   0.875   4.924  15.289  0.1849 -0.4625  0.1306
14872TIP3    H166107   0.894   4.831  15.302 -0.5914 -0.3850  1.9465
14872TIP3    H266108   0.898   4.966  15.372  1.0534  1.0805 -0.8328
14873TIP3   OH266109   1.874   1.417  13.882  0.1820 -0.4766  0.2886
14873TIP3    H166110   1.920   1.391  13.961 -1.8377  1.0524  2.0953
14873TIP3    H266111   1.790   1.372  13.887 -0.5503  0.7821 -0.2040
14874TIP3   OH266112   6.146   6.770   5.028  0.1128  0.1305  0.3508
14874TIP3    H166113   6.099   6.853   5.015 -1.1952 -0.6897 -0.3556
14874TIP3    H266114   6.100   6.707   4.973  3.1184 -0.3776 -1.8224
14875TIP3   OH266115   0.271   6.421  12.401  0.9022  0.3460 -0.6949
14875TIP3    H166116   0.301   6.411  12.311 -0.3747 -2.6703 -0.9246
14875TIP3    H266117   0.327   6.362  12.451  0.3499  0.5415  0.1668
14876TIP3   OH266118   5.589   6.025   1.868 -0.4099  0.2866 -0.4727
14876TIP3    H166119   5.513   6.029   1.926  0.9390 -0.3302  1.4164
14876TIP3    H266120   5.612   5.932   1.864 -0.6230  0.2783 -2.2440
14877TIP3   OH266121   1.299   6.070   5.429 -0.4808 -0.4343  0.5213
14877TIP3    H166122   1.379   6.028   5.459  0.3608 -0.4752 -1.5826
14877TIP3    H266123   1.272   6.126   5.501  2.8582  1.5726  0.4188
14878TIP3   OH266124   6.334   3.850  15.521  0.3275  0.5812 -0.2771
14878TIP3    H166125   6.344   3.815  15.432 -1.7683 -0.1590 -0.2686
14878TIP3    H266126   6.423   3.849  15.557  0.7081 -2.6808 -1.0463
14879TIP3   OH266127   4.385   6.507   4.723 -0.1917 -0.0538 -0.5162
14879TIP3    H166128   4.333   6.561   4.782  0.4036 -0.1092  0.0640
14879TIP3    H266129   4.320   6.464   4.667 -0.7946 -0.4080  0.4395
14880TIP3   OH266130   3.983   2.677  11.235 -0.1434 -0.0404 -0.1862
14880TIP3    H166131   4.079   2.682  11.242 -0.0572  0.8906 -1.6603
14880TIP3    H266132   3.968   2.602  11.177 -0.2101  0.8638 -1.3672
14881TIP3   OH266133   6.146   0.650  11.879  0.5375  0.1670 -0.2365
14881TIP3    H166134   6.216   0.588  11.898  1.9450  1.5141 -0.7812
14881TIP3    H266135   6.079   0.632  11.945  2.7079  0.8285  2.3307
14882TIP3   OH266136   3.322   6.337  13.212  0.5067  0.1039 -0.4572
14882TIP3    H166137   3.227   6.324  13.217  0.4559  0.8732  1.4681
14882TIP3    H266138   3.334   6.409  13.151 -0.1772  0.2282 -0.4458
14883TIP3   OH266139   4.395   3.612   2.449 -0.3909 -0.4082 -0.2727
14883TIP3    H166140   4.468   3.627   2.510 -0.4884  1.8134 -0.6101
14883TIP3    H266141   4.408   3.523   2.418  3.2132  0.4065 -1.6227
14884TIP3   OH266142   1.679   1.573   1.521  0.5454  0.1629  0.2539
14884TIP3    H166143   1.658   1.588   1.429  0.4560  0.0879  0.2620
14884TIP3    H266144   1.599   1.594   1.568 -0.3165 -2.3598  0.0928
14885TIP3   OH266145   6.814   0.412   4.523 -0.2380  0.3201  0.3062
14885TIP3    H166146   6.823   0.317   4.517 -0.6539  0.3401 -1.0115
14885TIP3    H266147   6.757   0.426   4.599 -0.0851 -0.4729  0.5754
14886TIP3   OH266148   3.257   4.947  13.634  0.0590 -0.5650  0.0943
14886TIP3    H166149   3.218   4.875  13.583 -1.7119  0.6759 -0.3969
14886TIP3    H266150   3.343   4.913  13.660 -0.7770 -2.9396  0.0700
14887TIP3   OH266151   4.045   4.735  13.004 -0.2038  0.7168 -0.2039
14887TIP3    H166152   3.976   4.669  12.994  1.6171 -1.1755 -0.8877
14887TIP3    H266153   4.089   4.711  13.086  1.4784  0.0314 -1.2585
14888TIP3   OH266154   1.906   4.106   0.634  0.5920  0.0492 -0.2212
14888TIP3    H166155   1.967   4.130   0.564 -0.7139  1.4709 -0.9053
14888TIP3    H266156   1.820   4.106   0.592 -0.0503 -0.5860  1.0449
14889TIP3   OH266157   4.506   4.798  12.849  0.0843  0.8532 -0.2673
14889TIP3    H166158   4.463   4.810  12.934  0.1474  2.0215 -0.3831
14889TIP3    H266159   4.440   4.821  12.784  0.3301  0.9091 -0.5011
14890TIP3   OH266160   2.883   3.064  13.725 -0.2423  0.5214  0.3024
14890TIP3    H166161   2.825   3.124  13.774  0.5121  0.0038  1.9177
14890TIP3    H266162   2.947   3.122  13.684 -0.5110  0.9389  0.4553
14891TIP3   OH266163   1.031   4.344   1.278  0.2179 -0.1517 -0.0519
14891TIP3    H166164   1.094   4.367   1.210  1.1013 -0.3286  0.6804
14891TIP3    H266165   1.058   4.256   1.307 -1.4992 -1.0451 -0.9879
14892TIP3   OH266166   5.827   5.979   6.019 -0.1652  0.3991  0.3029
14892TIP3    H166167   5.762   6.048   6.017 -0.3688  0.2431  1.0139
14892TIP3    H266168   5.862   5.982   6.109  1.5601  1.1702 -0.3450
14893TIP3   OH266169   1.845   3.268  11.883 -0.3448  0.3412 -0.5131
14893TIP3    H166170   1.914   3.203  11.902 -0.7261  0.4620  1.5555
14893TIP3    H266171   1.793   3.228  11.813  0.7964 -0.5300 -0.8968
14894TIP3   OH266172   5.187   1.128  16.171 -0.4030 -0.1919  0.3747
14894TIP3    H166173   5.195   1.223  16.166 -1.1184 -0.1639 -0.2576
14894TIP3    H266174   5.247   1.095  16.105  0.2557 -0.2079  0.9644
14895TIP3   OH266175   1.795   1.119  14.258 -0.0681  0.3610  0.2304
14895TIP3    H166176   1.769   1.205  14.292  0.2873  0.6777 -0.2932
14895TIP3    H266177   1.729   1.059  14.294 -0.3892  0.8672  0.5048
14896TIP3   OH266178   0.762   5.902  15.824  0.0021 -0.5509  0.8410
14896TIP3    H166179   0.728   5.860  15.745  1.0301  2.0991 -1.1547
14896TIP3    H266180   0.684   5.932  15.870 -0.6416 -2.6428  1.2268
14897TIP3   OH266181   1.072   0.611   2.521 -0.4741  0.3873  0.0407
14897TIP3    H166182   1.109   0.584   2.605 -1.4719  2.5138  1.2642
14897TIP3    H266183   1.002   0.548   2.504  0.0852 -0.3782  0.5157
14898TIP3   OH266184   6.116   6.454  17.159  0.0575 -0.3567  0.0923
14898TIP3    H166185   6.095   6.546  17.177  0.8905  0.1024 -1.1367
14898TIP3    H266186   6.105   6.445  17.065  2.5134 -0.7898 -0.2362
14899TIP3   OH266187   0.254   3.672  15.116 -0.7615 -0.5916 -0.0277
14899TIP3    H166188   0.274   3.693  15.025 -1.3129  1.0376  0.2004
14899TIP3    H266189   0.159   3.680  15.122 -0.6943 -0.3366  0.7774
14900TIP3   OH266190   6.728   4.717  16.175 -0.1553 -0.1651 -0.2480
14900TIP3    H166191   6.775   4.672  16.246  0.0284 -1.5235 -1.1806
14900TIP3    H266192   6.714   4.806  16.207  1.6815 -0.1732  0.7002
14901TIP3   OH266193   2.959   5.653  17.090 -0.2384  0.3021  0.0730
14901TIP3    H166194   3.024   5.607  17.143 -1.4913 -2.8175 -0.8173
14901TIP3    H266195   2.893   5.682  17.153 -0.5570 -1.2913  0.5194
14902TIP3   OH266196   1.938   1.798  14.075  0.4926  0.8958 -0.2905
14902TIP3    H166197   1.951   1.891  14.058  2.7575  0.7236  0.1329
14902TIP3    H266198   1.966   1.755  13.994  1.7589  0.5205  0.3115
14903TIP3   OH266199   0.506   3.891   2.081  0.5373 -0.1327  0.0795
14903TIP3    H166200   0.501   3.819   2.144  0.3388  0.7324  1.0802
14903TIP3    H266201   0.423   3.937   2.090 -0.0990 -0.7754 -1.8344
14904TIP3   OH266202   3.460   2.004   0.891 -0.0782 -0.0770 -0.5186
14904TIP3    H166203   3.469   1.915   0.857 -2.3067  0.4361 -2.8023
14904TIP3    H266204   3.395   1.997   0.961 -3.0443  0.0553 -3.0163
14905TIP3   OH266205   1.172   1.630  15.889  0.4318  0.2472  0.8076
14905TIP3    H166206   1.241   1.696  15.894  2.9972 -2.0369 -1.4669
14905TIP3    H266207   1.197   1.564  15.954  0.5007 -0.6539 -0.1102
14906TIP3   OH266208   6.011   4.634   4.776  0.1244  0.4395 -0.0401
14906TIP3    H166209   6.085   4.611   4.831  1.1159  0.4784 -1.3061
14906TIP3    H266210   5.950   4.680   4.834  1.8849  2.0072  0.6489
14907TIP3   OH266211   3.948   5.468   1.845  0.1772  0.6895  0.0308
14907TIP3    H166212   3.921   5.376   1.851  0.0887  0.7106 -0.0454
14907TIP3    H266213   3.889   5.514   1.906 -1.3480  1.0508 -1.6304
14908TIP3   OH266214   2.380   2.178  16.974  0.1118 -0.0509 -0.5014
14908TIP3    H166215   2.320   2.144  17.041 -0.3361  0.8503 -0.4244
14908TIP3    H266216   2.429   2.247  17.019 -0.5614  0.9215 -1.2224
14909TIP3   OH266217   1.417   6.298  15.418  0.3797  0.5386 -0.3982
14909TIP3    H166218   1.398   6.335  15.505  0.6844  0.1768 -0.1748
14909TIP3    H266219   1.410   6.373  15.359 -1.6631  0.4543 -0.3311
14910TIP3   OH266220   2.310   5.865  13.387  0.2492  0.3214  0.1191
14910TIP3    H166221   2.403   5.862  13.363  0.1260 -1.3317 -0.2209
14910TIP3    H266222   2.310   5.898  13.478  1.0527  1.5763 -0.3001
14911TIP3   OH266223   3.457   4.654   1.943 -0.0857  0.1141  0.5448
14911TIP3    H166224   3.502   4.590   1.999 -1.0940 -0.5474  0.6133
14911TIP3    H266225   3.524   4.720   1.924  0.6462 -0.3565  1.4221
14912TIP3   OH266226   5.704   0.761  13.597  0.0346  0.3395 -0.4334
14912TIP3    H166227   5.790   0.724  13.576  0.5785  0.2858  1.6421
14912TIP3    H266228   5.720   0.817  13.674 -1.9264 -0.3992  0.5858
14913TIP3   OH266229   2.408   6.466   2.723  0.2446  0.4097  0.2094
14913TIP3    H166230   2.337   6.527   2.745  0.4784  1.1589 -1.0370
14913TIP3    H266231   2.385   6.386   2.770  0.0518  1.5045  2.0898
14914TIP3   OH266232   5.891   0.529   4.467 -0.0498  0.6222 -0.1696
14914TIP3    H166233   5.864   0.547   4.558  0.6819  3.0029 -0.3382
14914TIP3    H266234   5.808   0.527   4.418 -0.3840  0.4404  0.3965
14915TIP3   OH266235   2.625   5.692   3.654 -0.3932 -0.7104 -1.4457
14915TIP3    H166236   2.601   5.676   3.745  0.0626  1.6501 -0.8472
14915TIP3    H266237   2.702   5.638   3.639 -0.1097 -0.6664 -0.2256
14916TIP3   OH266238   2.172   0.829  15.991 -0.1234 -0.0147  0.1591
14916TIP3    H166239   2.122   0.753  15.961 -2.1778  0.8732  1.1818
14916TIP3    H266240   2.263   0.797  15.993 -0.5347 -1.6310 -1.9272
14917TIP3   OH266241   4.206   4.317   0.985  0.0981 -0.0765 -0.5483
14917TIP3    H166242   4.111   4.324   0.978  0.1334  0.2671 -0.7276
14917TIP3    H266243   4.235   4.407   1.004  0.2752 -0.4209  0.9398
14918TIP3   OH266244   2.682   3.062   5.547 -0.0478  0.0211 -0.2359
14918TIP3    H166245   2.760   3.008   5.560  0.9872  1.5548  0.2403
14918TIP3    H266246   2.675   3.070   5.452 -1.7449 -2.9855 -0.4797
14919TIP3   OH266247   3.777   2.347   0.201  0.2834  0.8400 -0.1815
14919TIP3    H166248   3.834   2.378   0.271 -0.4660  0.5762  0.5616
14919TIP3    H266249   3.722   2.422   0.180  1.1167  1.2014 -1.1392
14920TIP3   OH266250   0.312   0.021   0.943  0.1059  0.4018 -0.5654
14920TIP3    H166251   0.330  -0.053   1.001 -0.6203  0.4770 -0.2295
14920TIP3    H266252   0.309   0.097   1.002 -2.7445  0.2114 -0.3150
14921TIP3   OH266253   6.149   6.653   1.432  0.4250 -0.6158  0.3832
14921TIP3    H166254   6.142   6.698   1.348 -0.7352 -2.1627 -0.3906
14921TIP3    H266255   6.070   6.599   1.437  1.1688 -1.6372  1.8183
14922TIP3   OH266256   2.390   1.671  15.949 -0.5697 -0.6484 -0.2864
14922TIP3    H166257   2.413   1.696  15.860 -1.3621  0.6218 -0.1549
14922TIP3    H266258   2.295   1.663  15.947 -0.5418 -1.1765  0.3147
14923TIP3   OH266259   1.378   6.059   5.098 -0.0760  0.3510 -0.4337
14923TIP3    H166260   1.341   5.984   5.145  1.8098  0.0326  0.6342
14923TIP3    H266261   1.455   6.084   5.149  1.2097  0.9651 -2.5437
14924TIP3   OH266262   3.444   0.572  17.236 -0.0585  0.0186 -0.3696
14924TIP3    H166263   3.369   0.571  17.294  0.2964 -0.6273  0.0819
14924TIP3    H266264   3.469   0.665  17.231 -1.0030  0.2681 -0.7017
14925TIP3   OH266265   0.544   3.292  13.714  0.2827  0.3567 -0.2801
14925TIP3    H166266   0.534   3.362  13.650 -2.4426  1.3056  1.0294
14925TIP3    H266267   0.458   3.284  13.754  0.3394 -3.9740 -0.5464
14926TIP3   OH266268   5.279   1.805  15.760  0.0832  0.6212  0.0297
14926TIP3    H166269   5.313   1.885  15.720  1.1822  0.2388  0.1631
14926TIP3    H266270   5.193   1.793  15.720 -0.7818  2.6816  1.1090
14927TIP3   OH266271   1.833   4.889  15.076  0.3519  0.7439 -0.1267
14927TIP3    H166272   1.775   4.853  15.143 -0.5848 -0.3624 -1.4842
14927TIP3    H266273   1.919   4.890  15.118  0.0840 -1.3935  0.5907
14928TIP3   OH266274   1.161   6.307  12.855 -0.4535 -0.1249 -0.0745
14928TIP3    H166275   1.230   6.373  12.851 -0.9098  0.4212  0.8604
14928TIP3    H266276   1.080   6.357  12.860 -1.0689 -0.7287 -2.5053
14929TIP3   OH266277   5.697   5.835  14.306  0.0903 -0.3712 -0.2804
14929TIP3    H166278   5.698   5.919  14.351  0.9413 -0.2353 -0.5355
14929TIP3    H266279   5.632   5.783  14.354  0.2849  0.0911  0.5058
14930TIP3   OH266280   4.509   1.773  13.880 -0.2557 -0.0141  0.2034
14930TIP3    H166281   4.562   1.845  13.914  0.4458  1.7702 -4.0793
14930TIP3    H266282   4.573   1.710  13.846 -0.9187 -1.2564  1.1502
14931TIP3   OH266283   5.194   6.820  16.691 -0.2166  0.3265  0.0312
14931TIP3    H166284   5.161   6.744  16.738 -1.1432  0.4988 -0.3257
14931TIP3    H266285   5.277   6.840  16.734  1.5528 -2.6293 -1.6371
14932TIP3   OH266286   4.571   4.386   1.757 -0.4506  0.2244 -0.5631
14932TIP3    H166287   4.570   4.409   1.664 -0.3926 -0.1430 -0.6546
14932TIP3    H266288   4.488   4.340   1.771 -0.5649  0.4823 -0.3801
14933TIP3   OH266289   6.297   4.179   2.993  0.0384  0.3266  0.3016
14933TIP3    H166290   6.227   4.182   3.059 -1.2887 -1.1272 -0.9720
14933TIP3    H266291   6.277   4.102   2.940  0.2013  2.2193 -2.7186
14934TIP3   OH266292   1.051   2.494  15.478 -0.1997  0.2871  0.9688
14934TIP3    H166293   1.119   2.473  15.414  0.4434  1.3546  1.2741
14934TIP3    H266294   1.045   2.417  15.534  0.0738 -0.1891  0.3450
14935TIP3   OH266295   2.868   4.364  14.708 -0.1135 -0.0786 -0.2275
14935TIP3    H166296   2.837   4.286  14.662 -0.7151 -1.1170  1.8473
14935TIP3    H266297   2.790   4.416  14.725  0.0825  0.2159 -0.2038
14936TIP3   OH266298   4.135   4.120  15.048  0.0471 -0.4014 -0.9125
14936TIP3    H166299   4.120   4.059  15.120 -0.7489 -1.5932 -2.0467
14936TIP3    H266300   4.193   4.186  15.085 -2.9884  1.0198  1.9222
14937TIP3   OH266301   3.200   1.070   4.858  0.2942 -0.3764  0.0464
14937TIP3    H166302   3.245   1.083   4.774  0.0213  0.8887  0.0779
14937TIP3    H266303   3.228   1.144   4.912 -0.3448 -0.6096  0.7141
14938TIP3   OH266304   2.835   5.113   2.000 -0.4109 -0.3740 -0.4885
14938TIP3    H166305   2.780   5.161   1.938  0.8081 -0.6136 -1.8204
14938TIP3    H266306   2.841   5.170   2.076 -1.9972 -0.0953 -0.5334
14939TIP3   OH266307   1.640   3.571   2.312  0.1467  0.2042  0.2243
14939TIP3    H166308   1.606   3.585   2.224  1.0624 -1.3285 -0.4075
14939TIP3    H266309   1.734   3.559   2.300  0.1151 -1.3366  1.2296
14940TIP3   OH266310   4.588   5.323   1.173 -0.4701 -0.0695  0.3453
14940TIP3    H166311   4.546   5.402   1.139 -1.2218  0.2962  2.0057
14940TIP3    H266312   4.671   5.353   1.211 -1.6900  0.3685  2.8770
14941TIP3   OH266313   6.095   0.349   5.502  0.2688 -0.0398 -0.1867
14941TIP3    H166314   6.026   0.400   5.460  0.0288 -0.8142 -0.7730
14941TIP3    H266315   6.079   0.357   5.595 -0.1620  0.4008 -0.2974
14942TIP3   OH266316   5.874   6.233   5.859  0.1042 -0.7410 -0.5276
14942TIP3    H166317   5.802   6.215   5.799  0.5715 -0.7594 -1.0974
14942TIP3    H266318   5.834   6.234   5.946 -1.3891  3.1171 -1.0472
14943TIP3   OH266319   2.382   0.579  13.324 -0.1266 -0.1526 -0.2145
14943TIP3    H166320   2.373   0.485  13.343  0.5721 -0.4727 -1.3553
14943TIP3    H266321   2.293   0.607  13.301 -0.0611 -0.9625 -1.5884
14944TIP3   OH266322   6.435   2.076  16.462  0.3992 -0.3657 -0.3905
14944TIP3    H166323   6.530   2.080  16.466  0.4610 -1.4169 -0.5387
14944TIP3    H266324   6.409   2.159  16.423  1.4467 -1.1621 -3.0169
14945TIP3   OH266325   5.157   5.819   0.741  0.4226  0.1403  0.4445
14945TIP3    H166326   5.090   5.888   0.746  0.1835 -0.0387 -0.1424
14945TIP3    H266327   5.239   5.863   0.762 -0.0105  0.1135  2.4258
14946TIP3   OH266328   0.128   0.568  16.177  0.2522  0.1367  0.4608
14946TIP3    H166329   0.075   0.517  16.238  0.4345  0.1245  0.6119
14946TIP3    H266330   0.084   0.559  16.093  0.2084 -0.1550  0.5155
14947TIP3   OH266331   3.928   1.403  13.885  1.0367 -0.1474 -0.7782
14947TIP3    H166332   3.902   1.346  13.812 -0.0625 -1.8624  0.8700
14947TIP3    H266333   3.846   1.444  13.914  1.1694 -0.7651  0.5210
14948TIP3   OH266334   4.254   2.556   5.656  0.8761 -0.3346  0.0979
14948TIP3    H166335   4.223   2.548   5.746 -0.6344  0.6713 -0.2832
14948TIP3    H266336   4.240   2.469   5.617 -0.4107 -0.2237  0.2819
14949TIP3   OH266337   2.242   4.624   2.533  0.3561  0.1198  0.1279
14949TIP3    H166338   2.304   4.563   2.493  0.0833  1.2556 -2.2089
14949TIP3    H266339   2.292   4.704   2.547  0.1922  0.0448  1.2763
14950TIP3   OH266340   5.233   5.621   4.203 -0.6583 -0.0769  0.1100
14950TIP3    H166341   5.324   5.645   4.216 -0.6275  1.1137 -1.8640
14950TIP3    H266342   5.234   5.561   4.128 -1.4456 -0.5447  0.4568
14951TIP3   OH266343   5.940   4.198   1.941 -0.1533 -0.6241  0.4161
14951TIP3    H166344   5.929   4.284   1.980 -1.0660 -0.6330  0.1997
14951TIP3    H266345   5.997   4.212   1.865  1.0652 -0.4962  1.3239
14952TIP3   OH266346   2.008   1.673  11.548 -0.2363  0.6446  0.1786
14952TIP3    H166347   2.077   1.609  11.562 -0.5729  0.4630  1.1220
14952TIP3    H266348   2.052   1.758  11.551 -0.2181  0.6021  2.1557
14953TIP3   OH266349   3.757   5.217  16.369 -0.7685  0.8014 -0.4698
14953TIP3    H166350   3.748   5.173  16.285 -1.7224  0.3128 -0.1327
14953TIP3    H266351   3.717   5.156  16.432  1.0360  0.5793  0.5198
14954TIP3   OH266352   6.264   5.183   3.616 -0.0020 -0.3489  0.2376
14954TIP3    H166353   6.195   5.123   3.588  0.5693 -0.4892 -0.9355
14954TIP3    H266354   6.344   5.130   3.619  0.1931 -0.0358  0.9073
14955TIP3   OH266355   3.768   0.259  13.485 -0.4536 -0.4777  0.0396
14955TIP3    H166356   3.749   0.225  13.398 -0.1195 -0.7508  0.0717
14955TIP3    H266357   3.811   0.186  13.531 -0.7637 -0.3850  0.4798
14956TIP3   OH266358   0.471   2.185   0.810 -0.0259  0.0442 -0.7538
14956TIP3    H166359   0.396   2.198   0.867 -0.0845 -1.1235 -0.5411
14956TIP3    H266360   0.472   2.263   0.754 -1.7497 -0.1687 -1.1603
14957TIP3   OH266361   0.921   6.536  12.427  0.8685 -0.4843  0.1924
14957TIP3    H166362   0.876   6.607  12.381  0.7829 -0.1399  0.7981
14957TIP3    H266363   1.014   6.549  12.404  0.6954 -1.0467 -0.8546
14958TIP3   OH266364   2.378   2.641   1.173 -0.5064  0.0019 -0.5280
14958TIP3    H166365   2.395   2.733   1.194  3.7252 -0.8818  0.9074
14958TIP3    H266366   2.303   2.617   1.228 -1.1603  2.3441 -0.3028
14959TIP3   OH266367   2.388   5.489  16.764 -0.4980  0.3139  0.3350
14959TIP3    H166368   2.360   5.578  16.787  0.8697  1.3133 -1.6687
14959TIP3    H266369   2.470   5.477  16.811 -1.5983 -0.6922  2.1343
14960TIP3   OH266370   4.321   2.151   2.587 -0.1805 -0.1839  0.6356
14960TIP3    H166371   4.305   2.244   2.599  1.6822  0.0869  1.2375
14960TIP3    H266372   4.279   2.110   2.664 -1.1842  0.1087  0.2593
14961TIP3   OH266373   0.856   5.942   1.864  0.4837  0.0114 -0.2909
14961TIP3    H166374   0.909   5.924   1.786  2.9807  1.1070  1.0298
14961TIP3    H266375   0.834   6.035   1.858 -0.1956 -0.1390 -0.1889
14962TIP3   OH266376   4.319   4.053  14.014 -0.1396 -0.0926 -0.7073
14962TIP3    H166377   4.229   4.085  14.008 -0.5658 -1.2637 -0.7419
14962TIP3    H266378   4.363   4.118  14.070 -1.3182 -0.1747  0.3643
14963TIP3   OH266379   0.999   0.338   2.392 -0.0456  0.1198 -0.3783
14963TIP3    H166380   1.036   0.285   2.322 -3.7129 -1.3973 -1.4378
14963TIP3    H266381   0.995   0.279   2.468 -0.1865  0.2779 -0.2609
14964TIP3   OH266382   0.200   1.252   3.965  0.1274 -0.1570 -0.5598
14964TIP3    H166383   0.183   1.297   4.048 -1.7733  0.7491 -1.3726
14964TIP3    H266384   0.116   1.211   3.943  0.2201  0.6181 -2.6023
14965TIP3   OH266385   5.364   1.463  15.344  0.0769 -0.0005  0.2901
14965TIP3    H166386   5.319   1.482  15.261  0.1525  0.0165  0.2522
14965TIP3    H266387   5.451   1.503  15.333 -0.6939  2.0975  1.2813
14966TIP3   OH266388   0.532   5.736  12.137  0.3004 -0.0786 -0.1006
14966TIP3    H166389   0.447   5.749  12.179  1.6604 -1.0835  3.3021
14966TIP3    H266390   0.537   5.807  12.072 -2.9316  0.1819 -0.2531
14967TIP3   OH266391   5.545   6.758   2.653  0.4411 -0.1460  0.7553
14967TIP3    H166392   5.543   6.772   2.748  0.6662 -0.1907  0.7677
14967TIP3    H266393   5.623   6.705   2.639  0.3239 -0.2683  0.5613
14968TIP3   OH266394   2.187   6.215   6.497  0.4860 -0.1594 -0.3966
14968TIP3    H166395   2.262   6.213   6.438 -0.2278 -0.5888 -1.3133
14968TIP3    H266396   2.201   6.139   6.555  1.1310  0.2020 -0.0594
14969TIP3   OH266397   1.833   2.061  13.331 -0.5029  0.2374 -0.4534
14969TIP3    H166398   1.892   2.101  13.268 -0.7677 -1.2664 -1.7139
14969TIP3    H266399   1.764   2.126  13.345 -0.6614  0.4317 -2.0391
14970TIP3   OH266400   6.449   4.647  12.009  0.2869 -0.3225 -0.2584
14970TIP3    H166401   6.419   4.668  11.921  0.7828 -0.3649 -0.4425
14970TIP3    H266402   6.539   4.616  11.997  0.0153 -1.3299  0.1442
14971TIP3   OH266403   6.122   3.244   5.596  0.1796  0.4476 -0.1743
14971TIP3    H166404   6.084   3.232   5.508  0.0962 -1.4653  0.0777
14971TIP3    H266405   6.214   3.260   5.579 -0.2578  2.6453 -0.6906
14972TIP3   OH266406   1.062   2.427  10.563  0.9302  0.4682 -0.1941
14972TIP3    H166407   1.007   2.504  10.573  0.1323  0.1462 -1.7264
14972TIP3    H266408   1.150   2.462  10.549  0.5704  1.1156 -0.8914
14973TIP3   OH266409   2.458   1.243  14.656  0.2725 -0.2231  0.3690
14973TIP3    H166410   2.454   1.155  14.693  0.4257 -0.5173 -0.3128
14973TIP3    H266411   2.527   1.239  14.590 -0.5740  0.0693 -0.5607
14974TIP3   OH266412   1.416   5.312   4.273  0.0152  0.1193 -0.2618
14974TIP3    H166413   1.413   5.406   4.292  0.5056  0.2507 -0.7876
14974TIP3    H266414   1.376   5.271   4.349  1.1331  0.6685  0.6546
14975TIP3   OH266415   2.102   4.432  13.854 -0.0533  0.2672 -0.3228
14975TIP3    H166416   2.077   4.474  13.773  0.0071  2.0516  0.5435
14975TIP3    H266417   2.101   4.502  13.919  2.0153 -0.6546  0.7903
14976TIP3   OH266418   5.766   4.108  17.075 -0.1734  0.8560 -0.0068
14976TIP3    H166419   5.789   4.099  17.168 -0.0637  0.5685 -0.0636
14976TIP3    H266420   5.671   4.116  17.075 -0.2435  0.1082  0.0774
14977TIP3   OH266421   3.302   4.960   2.062  0.3063 -0.0703  0.5212
14977TIP3    H166422   3.337   4.927   1.979  1.8316  1.1867  0.6101
14977TIP3    H266423   3.215   4.993   2.039  0.7826  0.4522 -0.6465
14978TIP3   OH266424   1.137   0.156  14.886  0.6565  0.6452  0.0059
14978TIP3    H166425   1.201   0.174  14.817  2.4427  1.4109  1.7505
14978TIP3    H266426   1.066   0.218  14.868  1.9683  2.2155 -0.0932
14979TIP3   OH266427   5.347   3.101   2.724  0.3367  0.5603  0.3866
14979TIP3    H166428   5.426   3.146   2.694  0.9442 -1.2484 -0.8910
14979TIP3    H266429   5.334   3.030   2.662 -1.4313 -0.1361  1.4602
14980TIP3   OH266430   3.017   6.546   1.072  0.5026 -0.1075 -0.0441
14980TIP3    H166431   2.963   6.523   1.147  0.2374  0.6598  0.0070
14980TIP3    H266432   3.103   6.510   1.092 -0.0468 -1.6174 -0.2695
14981TIP3   OH266433   3.830   5.604  12.715  0.1969 -0.1610  0.0889
14981TIP3    H166434   3.739   5.597  12.745 -0.2316 -1.6703 -1.4444
14981TIP3    H266435   3.827   5.665  12.641  0.1412 -1.3924 -0.9515
14982TIP3   OH266436   2.443   5.869  16.095 -0.3641  0.4436 -0.0046
14982TIP3    H166437   2.441   5.947  16.040  1.1132 -0.6510 -1.7758
14982TIP3    H266438   2.432   5.901  16.184  0.4837  2.6952 -0.6452
14983TIP3   OH266439   5.448   4.326   2.224  0.3702 -0.0790 -0.1880
14983TIP3    H166440   5.433   4.272   2.302 -0.9623  1.3574  0.6120
14983TIP3    H266441   5.508   4.395   2.254  1.7944 -0.8739 -1.1117
14984TIP3   OH266442   5.895   6.469   3.883 -0.2306 -0.7065 -0.0957
14984TIP3    H166443   5.919   6.561   3.897  3.3713 -0.9918 -2.9899
14984TIP3    H266444   5.962   6.419   3.929 -0.1249 -1.8145 -1.4137
14985TIP3   OH266445   5.888   1.417   1.561  0.2746  0.2721 -0.7563
14985TIP3    H166446   5.939   1.474   1.618  1.8079 -3.0924  1.6062
14985TIP3    H266447   5.938   1.412   1.480  0.0041  2.3039 -1.0928
14986TIP3   OH266448   3.566   3.194  14.205 -0.6632 -0.2760 -0.4180
14986TIP3    H166449   3.645   3.221  14.251 -0.3242  1.0960 -1.7311
14986TIP3    H266450   3.537   3.115  14.251  0.2583  0.4057  1.4170
14987TIP3   OH266451   5.877   4.398   6.418 -0.3964 -0.2544 -0.1973
14987TIP3    H166452   5.826   4.479   6.416 -1.8354 -1.0570  1.5698
14987TIP3    H266453   5.940   4.410   6.489  1.6523  0.5252 -2.0340
14988TIP3   OH266454   6.365   3.751   2.672  0.4328 -0.0257 -0.3562
14988TIP3    H166455   6.433   3.697   2.630  0.1120  0.8208 -2.0458
14988TIP3    H266456   6.412   3.798   2.741  1.6611  0.6779 -1.6037
14989TIP3   OH266457   0.533   2.612  10.441 -0.4835 -0.2605 -0.3074
14989TIP3    H166458   0.582   2.673  10.496 -0.6093  1.5445 -2.0591
14989TIP3    H266459   0.599   2.574  10.382 -0.8374  0.7316 -1.3968
14990TIP3   OH266460   5.517   3.644   5.082 -0.2019  0.1461  0.0669
14990TIP3    H166461   5.513   3.722   5.137 -0.0886  0.6427 -0.6229
14990TIP3    H266462   5.566   3.671   5.005  0.4301 -0.7968  0.1164
14991TIP3   OH266463   0.753   4.771  13.185 -0.1906 -0.2642  0.4447
14991TIP3    H166464   0.758   4.751  13.091 -2.6344  2.9309 -0.5324
14991TIP3    H266465   0.809   4.847  13.197 -1.6854  0.7897  1.0233
14992TIP3   OH266466   0.718   3.910   6.512 -0.0405 -0.0462 -0.4747
14992TIP3    H166467   0.654   3.938   6.447 -1.2107 -2.0048 -0.2627
14992TIP3    H266468   0.803   3.935   6.475 -0.7900  0.5933 -1.8357
14993TIP3   OH266469   5.022   1.507   3.110  0.3598 -0.1066 -0.0446
14993TIP3    H166470   5.088   1.576   3.112  1.0175 -0.6104 -1.8314
14993TIP3    H266471   4.938   1.553   3.116  0.8344  0.5735  1.7777
14994TIP3   OH266472   4.343   5.905   3.948  0.5060 -0.9476 -0.2228
14994TIP3    H166473   4.387   5.984   3.980  0.1062 -0.3138 -1.2184
14994TIP3    H266474   4.349   5.844   4.022  3.4387 -1.0659 -0.4054
14995TIP3   OH266475   4.253   5.933  11.803 -0.0204 -0.1649  0.0450
14995TIP3    H166476   4.194   5.860  11.784  1.2160 -0.9661 -0.8304
14995TIP3    H266477   4.321   5.895  11.858  1.2273  0.0106 -1.3046
14996TIP3   OH266478   0.212   0.085  16.459  0.2811  0.0312  0.2981
14996TIP3    H166479   0.199   0.106  16.367 -0.9724 -3.4224 -0.4417
14996TIP3    H266480   0.307   0.075  16.468  0.3844  0.0182 -0.6891
14997TIP3   OH266481   5.129   0.356  16.843 -0.4851 -0.0294 -0.3856
14997TIP3    H166482   5.114   0.405  16.924 -1.5319 -1.1891  0.1545
14997TIP3    H266483   5.055   0.379  16.786 -0.8366 -0.7319 -0.2309
14998TIP3   OH266484   0.897   6.327   2.051  0.4225 -0.2044 -0.8985
14998TIP3    H166485   0.873   6.393   2.115  1.1135 -0.0308 -0.8032
14998TIP3    H266486   0.814   6.292   2.020  0.0077  1.3402 -1.6216
14999TIP3   OH266487   2.211   2.691   3.151  0.5406  0.7290  0.2429
14999TIP3    H166488   2.217   2.687   3.055  0.8016  0.6939  0.2605
14999TIP3    H266489   2.263   2.616   3.181  1.9501  1.7511  0.4589
15000TIP3   OH266490   3.207   1.161   1.449 -0.2060  0.6649  0.0286
15000TIP3    H166491   3.141   1.092   1.459 -1.3798  1.8762  0.8500
15000TIP3    H266492   3.285   1.126   1.492 -0.4641 -0.5628 -0.4658
15001TIP3   OH266493   1.298   3.950   0.472 -0.2546  0.5536 -0.0136
15001TIP3    H166494   1.263   3.934   0.560 -1.2347 -0.9636 -0.6431
15001TIP3    H266495   1.379   3.899   0.468 -1.9247 -2.2333 -1.0554
15002TIP3   OH266496   3.309   5.377   3.749 -0.3097  0.4816 -0.3224
15002TIP3    H166497   3.386   5.418   3.710 -0.0951  0.0716 -0.3449
15002TIP3    H266498   3.303   5.415   3.836 -0.7083  1.3013 -0.7048
15003TIP3   OH266499   5.841   4.782   5.208  0.0200 -0.0731 -0.0228
15003TIP3    H166500   5.870   4.760   5.119  1.1687  1.6610 -0.1449
15003TIP3    H266501   5.919   4.768   5.263  0.1524  1.4092  0.2249
15004TIP3   OH266502   0.548   0.913  14.453 -0.1144 -0.1131  0.0389
15004TIP3    H166503   0.555   1.001  14.416 -0.0874 -0.4209 -0.6873
15004TIP3    H266504   0.629   0.869  14.427 -0.6364 -0.7256 -0.5966
15005TIP3   OH266505   1.879   3.761   6.865  0.3618  0.0117 -0.1435
15005TIP3    H166506   1.909   3.673   6.886  1.2975  0.3120 -0.1573
15005TIP3    H266507   1.795   3.770   6.911  0.5736 -0.6564  0.3854
15006TIP3   OH266508   5.565   5.564   5.147  0.5784 -0.1842 -0.5793
15006TIP3    H166509   5.632   5.621   5.185 -0.3773  2.6774 -2.8185
15006TIP3    H266510   5.486   5.584   5.198  0.8107 -1.6226  0.3882
15007TIP3   OH266511   6.241   2.823   0.270  0.1430 -0.5255 -1.0732
15007TIP3    H166512   6.247   2.916   0.290 -0.0920 -0.5645 -0.8153
15007TIP3    H266513   6.175   2.789   0.331  0.7124 -0.9850 -0.7068
15008TIP3   OH266514   2.166   2.235   1.249  0.3917  0.0578 -0.2796
15008TIP3    H166515   2.233   2.193   1.195  0.0740 -0.7280 -0.0649
15008TIP3    H266516   2.141   2.169   1.313 -0.9882  0.1387 -0.6987
15009TIP3   OH266517   2.956   2.216  12.255  0.6479  0.7106 -0.3249
15009TIP3    H166518   2.906   2.144  12.217  0.1395 -0.1488  1.8248
15009TIP3    H266519   2.895   2.290  12.258 -0.1203  0.0667  0.9958
15010TIP3   OH266520   0.205   0.603   1.961  0.2978 -0.0588  0.1943
15010TIP3    H166521   0.279   0.602   1.900 -0.0571 -0.7619 -0.2257
15010TIP3    H266522   0.218   0.526   2.016  0.7886  0.7318  1.2470
15011TIP3   OH266523   2.411   6.430  16.565 -0.2894 -0.2102  0.1294
15011TIP3    H166524   2.355   6.505  16.588 -1.2708 -1.0418  0.5516
15011TIP3    H266525   2.406   6.373  16.641  0.4523 -0.7061 -0.1876
15012TIP3   OH266526   0.012   4.687   3.336 -0.0113 -0.2331  0.1010
15012TIP3    H166527  -0.011   4.611   3.390 -1.0260  0.2186  0.3457
15012TIP3    H266528  -0.041   4.677   3.257 -0.2443  0.2663  0.1861
15013TIP3   OH266529   4.994   6.092  13.567 -0.1958  0.3956 -1.1290
15013TIP3    H166530   5.039   6.158  13.621  1.5720  0.7336 -2.8890
15013TIP3    H266531   4.938   6.045  13.629  2.2206  0.2776  1.1718
15014TIP3   OH266532   0.053   3.728  16.501  0.0897 -0.1892 -0.3456
15014TIP3    H166533  -0.002   3.802  16.527 -0.7861 -1.3031  1.2008
15014TIP3    H266534   0.009   3.691  16.425 -1.4117 -1.0690  0.8706
15015TIP3   OH266535   2.679   1.666  11.706 -0.4841 -0.2172  0.0578
15015TIP3    H166536   2.716   1.679  11.619 -0.2106  0.4873  0.2790
15015TIP3    H266537   2.740   1.606  11.749 -0.4462 -0.3083 -0.1204
15016TIP3   OH266538   4.068   0.754   4.631  0.1148  0.3240 -0.3496
15016TIP3    H166539   4.061   0.670   4.676  1.3349  0.8268  0.8305
15016TIP3    H266540   4.161   0.776   4.635 -0.2775  2.0831  0.0256
15017TIP3   OH266541   1.414   3.714  12.580  0.4409 -0.4736 -0.4062
15017TIP3    H166542   1.470   3.644  12.547  3.0675  1.1601  0.3227
15017TIP3    H266543   1.463   3.754  12.651 -1.2935  1.6096 -0.2477
15018TIP3   OH266544   0.424   2.033   4.375 -0.0176  0.2462  0.4489
15018TIP3    H166545   0.517   2.037   4.352  0.1387  0.4285  1.0924
15018TIP3    H266546   0.403   1.940   4.374 -0.0858  0.2643 -0.6834
15019TIP3   OH266547   6.433   0.421   3.116  0.2080  0.0252  0.0254
15019TIP3    H166548   6.344   0.410   3.083  0.2084 -1.5743  0.4387
15019TIP3    H266549   6.489   0.394   3.043  0.3130  0.0608  0.0929
15020TIP3   OH266550   4.186   4.338  13.301 -0.4733 -0.0533  0.4666
15020TIP3    H166551   4.114   4.281  13.328  0.2933 -0.4082  1.8237
15020TIP3    H266552   4.248   4.279  13.257 -1.2651  0.3569 -1.2766
15021TIP3   OH266553   0.602   2.574   1.311 -0.7114  0.5694 -0.4451
15021TIP3    H166554   0.645   2.563   1.396  2.5316 -1.2762 -2.1316
15021TIP3    H266555   0.574   2.665   1.310  2.3816  1.6871  1.2957
15022TIP3   OH266556   0.781   2.043  14.150  0.1450 -0.0876 -0.0947
15022TIP3    H166557   0.706   2.045  14.091 -2.4464 -2.2219  2.7925
15022TIP3    H266558   0.807   1.952  14.154  2.9275  0.5964 -0.9277
15023TIP3   OH266559   2.638   1.166   0.408  0.3499 -0.0689 -0.2200
15023TIP3    H166560   2.552   1.124   0.417  1.5396 -2.2539  2.1221
15023TIP3    H266561   2.637   1.235   0.475  0.6607 -0.5715  0.3074
15024TIP3   OH266562   0.618   6.700   4.810 -0.4458  0.1215  0.2305
15024TIP3    H166563   0.642   6.765   4.876 -1.7945  1.1388 -0.2317
15024TIP3    H266564   0.626   6.747   4.727 -0.6725 -0.5580 -0.1873
15025TIP3   OH266565   4.957   0.583  16.439 -0.0926 -0.1150  0.0577
15025TIP3    H166566   4.931   0.577  16.531  1.6167 -0.9516  0.5324
15025TIP3    H266567   4.898   0.648  16.402 -0.6468  0.4506  1.8149
15026TIP3   OH266568   3.740   5.251   2.931  0.3758 -0.3106  0.0022
15026TIP3    H166569   3.805   5.197   2.977  0.5215  0.5584  0.8398
15026TIP3    H266570   3.781   5.337   2.924 -0.1560 -0.1019 -0.6551
15027TIP3   OH266571   1.698   2.650  13.149 -0.4295  0.2715  0.0307
15027TIP3    H166572   1.630   2.702  13.106  0.5645  0.8277 -0.9089
15027TIP3    H266573   1.765   2.637  13.082  0.0283 -0.9741  0.6936
15028TIP3   OH266574   1.768   4.511  13.976  0.3269 -0.4093 -0.1238
15028TIP3    H166575   1.744   4.462  14.054 -1.7610  0.1476 -0.3567
15028TIP3    H266576   1.765   4.603  14.003  1.0331 -0.2710 -0.4968
15029TIP3   OH266577   6.287   5.075  16.715  0.0727 -0.2611  0.4362
15029TIP3    H166578   6.339   5.042  16.642  0.0050  0.6650 -0.0527
15029TIP3    H266579   6.212   5.117  16.674 -0.2515 -0.2065  1.0656
15030TIP3   OH266580   1.304   2.049   2.187  0.0983  0.1888 -0.8359
15030TIP3    H166581   1.251   2.125   2.212  1.4077 -0.0363  3.4038
15030TIP3    H266582   1.242   1.977   2.184 -0.3733  0.4550  1.0941
15031TIP3   OH266583   2.518   1.387   2.346  0.5398  0.0308 -0.2552
15031TIP3    H166584   2.424   1.369   2.358  0.5306 -0.0107 -0.3794
15031TIP3    H266585   2.562   1.336   2.413  0.6781 -2.3044 -1.9801
15032TIP3   OH266586   5.635   1.655  12.042 -0.3510  0.0711 -0.0909
15032TIP3    H166587   5.561   1.717  12.041 -0.3722  0.1472 -3.0469
15032TIP3    H266588   5.711   1.708  12.022  0.3277 -0.2654  1.4444
15033TIP3   OH266589   4.574   5.858   2.977  0.8590  0.3518 -0.3397
15033TIP3    H166590   4.497   5.861   2.920  1.5784  2.0800 -1.3146
15033TIP3    H266591   4.611   5.771   2.963  0.4178  0.3614 -1.7174
15034TIP3   OH266592   6.671   6.102   4.140 -0.0127 -0.2517 -0.3678
15034TIP3    H166593   6.740   6.129   4.081  0.8224 -1.3416  0.0823
15034TIP3    H266594   6.599   6.162   4.122  0.8835  0.6078 -1.1625
15035TIP3   OH266595   6.032   2.723  15.987 -0.0003 -0.2003 -0.3461
15035TIP3    H166596   5.945   2.723  16.028 -0.0695  1.4887 -0.4250
15035TIP3    H266597   6.084   2.783  16.041  1.3932 -1.8114  0.1908
15036TIP3   OH266598   3.501   6.469   2.751 -0.4649 -0.0113  0.9272
15036TIP3    H166599   3.484   6.562   2.737  0.3346  0.2045  1.3857
15036TIP3    H266600   3.579   6.450   2.699  0.6598  0.0802  2.5097
15037TIP3   OH266601   2.940   0.334  17.227 -0.0818  0.0245 -0.8272
15037TIP3    H166602   2.882   0.396  17.271 -1.3209 -1.4887 -0.2699
15037TIP3    H266603   2.887   0.298  17.156 -0.6864 -3.0075  1.0054
15038TIP3   OH266604   4.461   4.043  11.118 -0.6251 -0.5658 -0.1834
15038TIP3    H166605   4.546   4.003  11.102 -0.8682 -1.8204  1.3759
15038TIP3    H266606   4.476   4.104  11.190 -0.6703  0.6766 -1.2095
15039TIP3   OH266607   6.346   0.824  14.876  0.3844 -0.6614 -0.6705
15039TIP3    H166608   6.318   0.780  14.956 -2.0143  1.8507 -0.0025
15039TIP3    H266609   6.404   0.894  14.906  0.5814 -0.5611 -1.2716
15040TIP3   OH266610   5.483   6.812   2.337 -0.3006 -0.3512 -0.3804
15040TIP3    H166611   5.450   6.894   2.373 -1.3601 -0.8135 -0.2822
15040TIP3    H266612   5.484   6.752   2.412 -0.6193 -0.7524 -0.6947
15041TIP3   OH266613   1.967   3.854   0.004  0.1421 -0.0709  0.0933
15041TIP3    H166614   1.999   3.840  -0.085 -0.1374 -0.0935 -0.0029
15041TIP3    H266615   1.926   3.771   0.028  0.1277 -0.0311  0.2053
15042TIP3   OH266616   5.060   0.492  17.076 -0.1053 -0.1761  0.4137
15042TIP3    H166617   4.975   0.450  17.070 -0.3583  0.2170  1.0587
15042TIP3    H266618   5.090   0.473  17.165 -0.1219  0.7814  0.6439
15043TIP3   OH266619   3.794   5.266   0.468 -0.3577 -0.2194 -0.5553
15043TIP3    H166620   3.847   5.204   0.419  0.9401 -0.0058  0.5218
15043TIP3    H266621   3.824   5.257   0.559  0.5813  2.6123 -0.4849
15044TIP3   OH266622   0.230   2.750   2.620  0.2473 -0.2444 -0.3285
15044TIP3    H166623   0.201   2.748   2.711  0.9190  1.1470 -0.0503
15044TIP3    H266624   0.156   2.787   2.572  0.5580  0.7739 -0.0433
15045TIP3   OH266625   1.545   1.670   4.041 -0.2116 -0.3113 -0.3891
15045TIP3    H166626   1.485   1.625   4.101 -1.6574  1.4251 -0.4559
15045TIP3    H266627   1.491   1.696   3.967  1.2767 -1.2613 -1.9023
15046TIP3   OH266628   2.430   6.195   3.695 -0.5155  0.0954  0.3130
15046TIP3    H166629   2.506   6.179   3.751  0.5470  1.4620 -0.6536
15046TIP3    H266630   2.361   6.221   3.756 -0.2239 -1.1294  1.2087
15047TIP3   OH266631   0.987   3.065   4.096 -0.1397 -0.2480 -0.3345
15047TIP3    H166632   1.005   3.066   4.190 -1.6778  0.9954 -0.0252
15047TIP3    H266633   1.030   3.144   4.063 -1.8987  0.8216 -0.1752
15048TIP3   OH266634   4.361   4.396   3.467 -0.6825  0.0447  0.3802
15048TIP3    H166635   4.273   4.383   3.430 -0.4112 -1.0629  0.0893
15048TIP3    H266636   4.356   4.481   3.510 -1.1249  1.2392 -1.8659
15049TIP3   OH266637   4.698   2.904   4.656  0.0004  0.2174  0.6967
15049TIP3    H166638   4.657   2.989   4.641 -0.2029  0.2371  1.3451
15049TIP3    H266639   4.788   2.925   4.681 -0.2337  0.2819  1.5204
15050TIP3   OH266640   2.918   2.070   4.560 -0.2866 -0.1062 -0.5713
15050TIP3    H166641   2.895   2.059   4.653 -0.6388 -1.9439 -0.8402
15050TIP3    H266642   2.880   2.154   4.536  1.1337  1.1647  1.3240
15051TIP3   OH266643   0.910   0.704  17.025  0.1636 -0.3900 -0.6572
15051TIP3    H166644   0.892   0.764  16.953  0.0423  0.4629  0.0726
15051TIP3    H266645   0.994   0.663  17.002  1.2943  1.5532 -0.2270
15052TIP3   OH266646   0.349   0.502   1.237 -0.6823  0.0159  1.0987
15052TIP3    H166647   0.389   0.421   1.269 -0.2802 -1.0304 -1.7377
15052TIP3    H266648   0.272   0.514   1.293 -0.2758 -1.8456  2.1455
15053TIP3   OH266649   3.479   0.182   5.191 -0.0679 -0.8799  0.2483
15053TIP3    H166650   3.440   0.198   5.105  1.1854  0.2444 -0.1399
15053TIP3    H266651   3.407   0.194   5.252 -1.3574 -3.1993 -0.6949
15054TIP3   OH266652   3.406   1.849   4.159  0.3946  0.0624 -0.1189
15054TIP3    H166653   3.498   1.867   4.182 -0.2223  1.3719  1.5326
15054TIP3    H266654   3.405   1.756   4.139  2.3153  0.2560 -1.4743
15055TIP3   OH266655   6.484   0.622  12.122  0.7132  0.0336  0.3156
15055TIP3    H166656   6.442   0.545  12.084 -0.1700  0.6946 -0.0702
15055TIP3    H266657   6.425   0.650  12.192 -0.7874  2.3571 -1.7270
15056TIP3   OH266658   0.648   0.724   3.223  0.3719 -0.0559 -0.8235
15056TIP3    H166659   0.669   0.637   3.259 -0.4221 -0.3608 -1.0728
15056TIP3    H266660   0.560   0.714   3.187 -0.6429  1.4277  1.0779
15057TIP3   OH266661   6.306   3.535   1.250 -0.1013 -0.1755 -0.3209
15057TIP3    H166662   6.334   3.613   1.203 -0.1444  0.5111  0.7640
15057TIP3    H266663   6.343   3.462   1.200  0.1620  0.5415 -1.1940
15058TIP3   OH266664   5.819   4.949  12.272 -0.2470 -0.6700  0.1071
15058TIP3    H166665   5.895   5.002  12.294 -0.7746  0.5593 -0.8844
15058TIP3    H266666   5.852   4.860  12.269  1.4309 -0.0521 -1.4078
15059TIP3   OH266667   1.924   1.029   6.467  0.9360 -0.2246  0.3898
15059TIP3    H166668   1.992   1.089   6.498 -0.8533  1.9838  0.3189
15059TIP3    H266669   1.891   1.070   6.387  0.2397 -1.8217 -0.1750
15060TIP3   OH266670   6.582   0.146   6.014 -0.5046 -0.1370 -0.1103
15060TIP3    H166671   6.551   0.163   6.103 -0.8530  0.4874 -0.3503
15060TIP3    H266672   6.503   0.139   5.962 -0.3284 -1.2231 -0.2550
15061TIP3   OH266673   5.971   5.448   5.362 -0.2232  0.6631 -0.0134
15061TIP3    H166674   5.943   5.362   5.333 -2.1575  1.5454 -0.9332
15061TIP3    H266675   6.066   5.449   5.348 -0.1669 -1.2947  0.0558
15062TIP3   OH266676   1.623   3.312  12.029  0.0409  1.0283  0.5079
15062TIP3    H166677   1.549   3.349  11.980  1.3660  3.8057  0.4245
15062TIP3    H266678   1.686   3.285  11.963  0.5000  1.8145  0.6182
15063TIP3   OH266679   5.152   2.493   2.251 -0.5280 -0.0312 -0.6485
15063TIP3    H166680   5.220   2.428   2.234  0.4860  1.0433 -0.8209
15063TIP3    H266681   5.102   2.456   2.324  0.7395 -0.4715  0.0300
15064TIP3   OH266682   0.109   0.506   1.382 -0.1340 -0.5652  0.0622
15064TIP3    H166683   0.120   0.473   1.471  0.2987  0.1356  0.2806
15064TIP3    H266684   0.066   0.591   1.393 -1.2764 -1.0533 -0.4874
15065TIP3   OH266685   2.793   1.758  14.481  0.1506 -0.2996 -0.9822
15065TIP3    H166686   2.757   1.698  14.416 -0.1808 -1.1532 -0.0549
15065TIP3    H266687   2.717   1.794  14.526  0.3905 -0.7821 -0.1627
15066TIP3   OH266688   3.225   1.548  17.270 -0.6235  0.8364 -0.2690
15066TIP3    H166689   3.153   1.486  17.281  1.0658 -1.0926  0.5176
15066TIP3    H266690   3.200   1.623  17.324 -2.7713  0.9451 -1.3322
15067TIP3   OH266691   0.319   0.602  16.420  0.2009 -0.2929 -0.5907
15067TIP3    H166692   0.280   0.514  16.418 -0.6051  0.0602 -0.9332
15067TIP3    H266693   0.413   0.587  16.411  0.1260 -1.1540 -0.0702
15068TIP3   OH266694   1.051   2.144   4.770  0.0167 -0.0846 -0.1405
15068TIP3    H166695   1.133   2.165   4.814  0.1026  2.2707 -1.2824
15068TIP3    H266696   1.072   2.149   4.676 -0.4659 -3.7109 -0.6035
15069TIP3   OH266697   3.209   2.461  13.920 -0.0631  0.1437  0.4308
15069TIP3    H166698   3.250   2.391  13.971 -0.4088 -0.7460 -0.4671
15069TIP3    H266699   3.123   2.426  13.897 -0.6576  1.3002  0.8499
15070TIP3   OH266700   5.841   5.874   5.125 -0.3181 -0.3992 -0.4707
15070TIP3    H166701   5.769   5.892   5.065  1.8386 -0.1679 -3.1862
15070TIP3    H266702   5.828   5.783   5.151 -0.9153 -0.7769 -1.9663
15071TIP3   OH266703   5.498   3.265  13.719 -0.3534  0.6933  0.1422
15071TIP3    H166704   5.502   3.360  13.709  0.9277  0.7523  0.9795
15071TIP3    H266705   5.406   3.244  13.710 -0.6152  1.9788 -0.3985
15072TIP3   OH266706   0.309   0.808  16.248  0.0458  0.2004  0.5104
15072TIP3    H166707   0.320   0.713  16.250 -0.7152  0.1007  0.4922
15072TIP3    H266708   0.214   0.821  16.251  0.0067  0.8932 -1.8020
15073TIP3   OH266709   3.019   0.271  13.947 -0.0585 -0.6653  0.3710
15073TIP3    H166710   2.957   0.297  14.016  1.0529  1.9537  0.4884
15073TIP3    H266711   3.055   0.188  13.978 -0.2118  0.0213  2.5666
15074TIP3   OH266712   2.745   6.734  15.722  0.0823 -0.2575 -0.0560
15074TIP3    H166713   2.831   6.773  15.708 -0.6553  0.9364 -1.4809
15074TIP3    H266714   2.699   6.797  15.778 -0.0255 -0.6968  0.3632
15075TIP3   OH266715   1.110   2.007   3.928 -0.8835  0.1111 -0.3323
15075TIP3    H166716   1.093   1.990   3.835 -0.2382  0.7676 -0.5785
15075TIP3    H266717   1.145   2.095   3.930  0.5193 -0.4344  0.3702
15076TIP3   OH266718   3.402   2.668  14.775  0.7631  0.2793  0.4789
15076TIP3    H166719   3.367   2.680  14.863 -1.1537 -0.4997 -0.1129
15076TIP3    H266720   3.484   2.620  14.788  1.3935  1.6711  1.9029
15077TIP3   OH266721   1.651   5.779   3.124 -0.2253  0.0864  0.4711
15077TIP3    H166722   1.670   5.778   3.030  1.9275  0.8107  0.8535
15077TIP3    H266723   1.715   5.719   3.162 -2.2942 -1.7085  1.3462
15078TIP3   OH266724   5.707   1.277   2.993 -0.1184 -0.1521  0.5368
15078TIP3    H166725   5.709   1.192   2.948 -1.1720 -0.7891  1.6183
15078TIP3    H266726   5.681   1.255   3.082 -2.8048  1.5047  0.2855
15079TIP3   OH266727   1.741   3.688   1.555 -0.4864  0.6735  0.6420
15079TIP3    H166728   1.742   3.780   1.579 -1.0981  0.7859  0.2622
15079TIP3    H266729   1.774   3.686   1.465  3.0005  0.1255  1.8058
15080TIP3   OH266730   4.006   2.311  12.583 -0.2324  0.0936 -0.2604
15080TIP3    H166731   4.077   2.353  12.630 -1.0871  1.6331 -0.2719
15080TIP3    H266732   3.939   2.295  12.650  0.2145 -1.6551 -0.1798
15081TIP3   OH266733   0.596   4.088  12.982 -0.1072  0.1233  0.7445
15081TIP3    H166734   0.588   4.095  12.886  0.6572  0.8168  0.7168
15081TIP3    H266735   0.631   4.173  13.008  1.4695 -0.6990  1.4361
15082TIP3   OH266736   6.246   4.435   3.908  0.4804 -0.1568 -0.4371
15082TIP3    H166737   6.308   4.374   3.947  0.3188  0.3432  0.6273
15082TIP3    H266738   6.190   4.463   3.980 -0.8333 -0.3947 -1.3308
15083TIP3   OH266739   6.046   0.809   1.520 -0.3264  0.0742  0.4798
15083TIP3    H166740   6.128   0.771   1.553  0.0326  0.7844  0.4243
15083TIP3    H266741   6.024   0.756   1.443 -0.9350 -1.3201  1.5744
15084TIP3   OH266742   0.118   0.464   1.683 -0.5498  0.0230  0.0680
15084TIP3    H166743   0.055   0.524   1.721 -0.1126  0.7283 -0.3029
15084TIP3    H266744   0.172   0.435   1.756 -0.8270 -0.0081  0.2624
15085TIP3   OH266745   6.236   6.006  12.320 -0.2740  0.4391 -0.5368
15085TIP3    H166746   6.300   5.949  12.277 -0.5812  0.1470 -0.6131
15085TIP3    H266747   6.274   6.025  12.406 -0.1910  0.0774 -0.4931
15086TIP3   OH266748   2.604   3.305   2.119  0.4704  0.1079  0.5082
15086TIP3    H166749   2.530   3.251   2.144  0.7113  0.0501  1.1153
15086TIP3    H266750   2.634   3.269   2.036  0.5579 -0.6266  0.8523
15087TIP3   OH266751   2.067   1.986  16.011 -0.2126  0.0225  0.1182
15087TIP3    H166752   2.149   1.997  15.963 -0.4281  0.6585 -0.1145
15087TIP3    H266753   2.052   2.071  16.052 -0.7012 -0.1282  0.2556
15088TIP3   OH266754   0.200   3.967  14.374  0.0831  0.4731  0.5626
15088TIP3    H166755   0.157   4.044  14.337  0.0327  0.2301  0.1081
15088TIP3    H266756   0.277   4.002  14.419 -1.0581  1.0118  2.1701
15089TIP3   OH266757   6.705   2.872   5.708  1.0038 -0.6154 -0.0595
15089TIP3    H166758   6.738   2.951   5.751  1.7110 -0.5576 -0.6860
15089TIP3    H266759   6.690   2.810   5.779  0.3368  0.1157  0.4461
15090TIP3   OH266760   2.032   1.112  12.268  0.8337 -0.3481  0.0327
15090TIP3    H166761   2.105   1.050  12.270  1.4844  0.4007  0.3577
15090TIP3    H266762   2.066   1.190  12.311 -0.5959 -0.4085  1.3497
15091TIP3   OH266763   2.079   6.258  11.837 -0.0652  0.2307 -0.0979
15091TIP3    H166764   1.990   6.221  11.837  0.3433 -0.8184 -0.7423
15091TIP3    H266765   2.112   6.241  11.925 -0.6981  1.1625  0.3377
15092TIP3   OH266766   5.567   5.372   4.325  0.0233 -0.4239  0.7351
15092TIP3    H166767   5.522   5.289   4.339 -0.6234 -0.2717 -0.4161
15092TIP3    H266768   5.502   5.429   4.285  0.1702  0.9644  2.3581
15093TIP3   OH266769   5.843   2.664  12.040 -0.7266  0.1119  0.3441
15093TIP3    H166770   5.912   2.724  12.070 -1.7964  0.9110  1.2986
15093TIP3    H266771   5.838   2.680  11.946 -0.3182  0.8106  0.4299
15094TIP3   OH266772   2.191   5.856  12.247 -0.2143 -0.0237 -0.2850
15094TIP3    H166773   2.124   5.912  12.209 -0.3015 -1.2938 -2.1487
15094TIP3    H266774   2.272   5.882  12.203  0.7579  1.9558  2.4163
15095TIP3   OH266775   5.574   6.418   4.677 -0.6619 -0.3797  0.6902
15095TIP3    H166776   5.620   6.502   4.686  0.2793 -0.7981 -0.0436
15095TIP3    H266777   5.565   6.386   4.767 -2.2345  1.1023  1.1304
15096TIP3   OH266778   5.788   2.266   0.239 -0.0709  1.0201 -0.0226
15096TIP3    H166779   5.852   2.257   0.169 -0.5910  0.7095 -0.4676
15096TIP3    H266780   5.824   2.217   0.313 -0.9440 -1.3271 -1.0655
15097TIP3   OH266781   0.458   1.863   1.988  0.4133 -0.1323  0.4354
15097TIP3    H166782   0.487   1.788   2.041  3.2971 -1.7134 -3.0199
15097TIP3    H266783   0.524   1.873   1.920 -0.8136  4.4924 -0.4539
15098TIP3   OH266784   4.732   2.693  15.312  0.3617  0.2700  0.0950
15098TIP3    H166785   4.787   2.703  15.390 -0.3946  0.1008  0.6613
15098TIP3    H266786   4.748   2.604  15.282 -0.4785 -0.1963  0.9608
15099TIP3   OH266787   1.990   3.794   1.392 -0.1469  0.4105 -0.2868
15099TIP3    H166788   2.015   3.717   1.443  0.2679  0.8332  0.1616
15099TIP3    H266789   2.012   3.771   1.302 -0.1484 -0.0473 -0.1720
15100TIP3   OH266790   5.316   5.231  12.792  0.5168  0.0374 -0.1593
15100TIP3    H166791   5.389   5.171  12.774  0.8259  0.1528  0.6756
15100TIP3    H266792   5.242   5.173  12.811  0.3593 -0.0805 -1.0467
15101TIP3   OH266793   1.001   4.452  13.464  0.4037  0.1908  0.2712
15101TIP3    H166794   1.095   4.463  13.481  0.6829 -1.6835  0.1211
15101TIP3    H266795   0.960   4.460  13.550  0.7621  0.4422  0.4224
15102TIP3   OH266796   2.294   6.112  17.155  0.3059  0.0513 -0.3167
15102TIP3    H166797   2.201   6.093  17.147 -0.3418  2.6261  0.1290
15102TIP3    H266798   2.326   6.116  17.065 -0.2820  0.2419 -0.5162
15103TIP3   OH266799   3.586   1.092  11.653  0.0841 -0.1295  0.5696
15103TIP3    H166800   3.492   1.074  11.658  0.2998 -2.4607 -1.6369
15103TIP3    H266801   3.627   1.014  11.690  1.1616  0.2892  0.2904
15104TIP3   OH266802   2.686   5.663  16.600 -0.3611 -0.5434  0.2482
15104TIP3    H166803   2.736   5.597  16.648  1.1266 -0.7347 -1.4711
15104TIP3    H266804   2.601   5.622  16.586 -0.3303 -1.0521  1.4030
15105TIP3   OH266805   5.789   5.900   0.318  0.5051  0.2597 -0.2736
15105TIP3    H166806   5.773   5.852   0.237  0.9259 -0.5791  0.1290
15105TIP3    H266807   5.876   5.938   0.307  0.5017  0.2683 -0.2708
15106TIP3   OH266808   3.487   2.375  11.771  0.0013 -0.6658  0.1244
15106TIP3    H166809   3.427   2.338  11.836  1.2905  0.7385  2.2477
15106TIP3    H266810   3.566   2.322  11.779  0.3873 -0.0880  0.1558
15107TIP3   OH266811   2.851   3.074  11.427 -0.2732  0.0997  0.1551
15107TIP3    H166812   2.932   3.126  11.423  0.5913 -1.2686 -2.1115
15107TIP3    H266813   2.788   3.125  11.376  0.2408 -0.4538 -1.0854
15108TIP3   OH266814   4.309   6.804   5.151 -0.6537  0.2684  0.0974
15108TIP3    H166815   4.233   6.859   5.134 -1.3580 -0.7317 -0.0977
15108TIP3    H266816   4.353   6.797   5.066 -0.0975  1.1786  0.2972
15109TIP3   OH266817   3.668   3.905  15.308 -0.0033 -0.1672 -0.3204
15109TIP3    H166818   3.612   3.903  15.230  0.0191 -1.6095 -0.3192
15109TIP3    H266819   3.707   3.818  15.312 -0.7091 -0.4369  1.8100
15110TIP3   OH266820   2.445   5.723   3.442  0.4231 -0.1822  0.6178
15110TIP3    H166821   2.441   5.812   3.477 -1.0245  0.3470 -0.8082
15110TIP3    H266822   2.498   5.675   3.506 -1.9850  0.7385  3.5309
15111TIP3   OH266823   6.527   3.341  12.299  0.4174  0.5347 -0.1020
15111TIP3    H166824   6.535   3.248  12.276 -1.5726  0.0526  0.9331
15111TIP3    H266825   6.472   3.342  12.377  3.0118  2.4010  1.8858
15112TIP3   OH266826   0.985   0.431  11.654 -0.0503 -0.3255  0.2008
15112TIP3    H166827   1.040   0.508  11.636 -0.1569 -0.4627 -0.7680
15112TIP3    H266828   0.898   0.456  11.623 -0.0110 -0.9581 -0.4173
15113TIP3   OH266829   6.136   3.964  16.835  0.1715  0.0560 -0.4405
15113TIP3    H166830   6.170   3.880  16.805 -1.2012 -0.5070 -0.5148
15113TIP3    H266831   6.111   4.009  16.754  1.5865  0.8656 -0.4506
15114TIP3   OH266832   5.695   2.687  11.552 -0.2125  0.3967  0.3085
15114TIP3    H166833   5.694   2.678  11.456 -0.7378 -0.1737  0.3580
15114TIP3    H266834   5.606   2.665  11.579 -0.7735  2.9558  0.7464
15115TIP3   OH266835   2.988   4.817  16.637 -0.4883 -0.3466  0.2716
15115TIP3    H166836   2.941   4.737  16.660 -1.2400  0.3345  1.1740
15115TIP3    H266837   2.935   4.858  16.570  0.2335 -0.9097 -0.6647
15116TIP3   OH266838   6.250   1.366  14.956  0.0860  0.2468 -0.9032
15116TIP3    H166839   6.246   1.283  15.002 -4.0723  2.1895  3.0177
15116TIP3    H266840   6.201   1.352  14.875  0.6869 -1.3555 -1.0262
15117TIP3   OH266841   1.225   2.624   4.297  0.3782  0.3538 -0.0846
15117TIP3    H166842   1.314   2.633   4.331  1.9707  0.3536 -3.8055
15117TIP3    H266843   1.193   2.714   4.287  0.4689  0.3980  0.0244
15118TIP3   OH266844   5.333   1.972   1.762 -0.0778 -0.0501  0.0095
15118TIP3    H166845   5.401   1.943   1.823 -1.5391 -0.6391  1.4331
15118TIP3    H266846   5.345   1.916   1.685 -0.0959 -1.4707  0.9931
15119TIP3   OH266847   6.497   1.454   3.219 -0.5642 -0.0272 -0.0472
15119TIP3    H166848   6.517   1.363   3.199  0.0722 -0.0669  0.7004
15119TIP3    H266849   6.404   1.464   3.199 -0.7454 -0.9616  0.3087
15120TIP3   OH266850   5.712   1.084  12.380 -0.0976  0.3414  0.0668
15120TIP3    H166851   5.771   1.069  12.454 -0.3582 -0.6239  0.0839
15120TIP3    H266852   5.692   1.178  12.385 -0.5384  0.1939  1.5382
15121TIP3   OH266853   4.230   2.682  14.140 -0.2581  0.1376  0.1332
15121TIP3    H166854   4.175   2.737  14.084 -0.3760  1.1763  1.2398
15121TIP3    H266855   4.172   2.611  14.168 -0.7694  0.7099  0.5388
15122TIP3   OH266856   3.463   6.428   2.042  0.4576  0.8742  0.0596
15122TIP3    H166857   3.474   6.518   2.072 -0.1275  1.7745 -2.1951
15122TIP3    H266858   3.551   6.390   2.043  1.0865  2.2284 -1.0731
15123TIP3   OH266859   4.461   6.556  15.864 -0.0084 -0.4356  0.3662
15123TIP3    H166860   4.528   6.612  15.901  0.5531 -0.7795 -0.1095
15123TIP3    H266861   4.421   6.513  15.940 -1.4819  1.6967  0.8757
15124TIP3   OH266862   6.409   0.278   0.209 -0.0424  0.0147 -0.1421
15124TIP3    H166863   6.371   0.362   0.187  0.3148  0.0785 -0.5297
15124TIP3    H266864   6.475   0.299   0.276 -1.9647 -0.3222  2.0012
15125TIP3   OH266865   2.067   2.008  14.748 -0.5728  0.3055  0.7714
15125TIP3    H166866   1.990   1.971  14.792 -1.3789  1.4838  0.4002
15125TIP3    H266867   2.032   2.076  14.692  0.4360 -1.0160 -1.6038
15126TIP3   OH266868   1.727   1.740  15.274  0.1751  0.0740  0.5184
15126TIP3    H166869   1.796   1.798  15.240  2.6511 -3.3311 -0.7925
15126TIP3    H266870   1.663   1.735  15.202  0.7473 -0.0107  0.0066
15127TIP3   OH266871   5.894   3.873  16.970  0.2193  0.1434 -0.5086
15127TIP3    H166872   5.972   3.913  16.931  0.7367 -0.0164  0.3347
15127TIP3    H266873   5.836   3.947  16.988 -0.1707  0.1867 -1.8680
15128TIP3   OH266874   6.353   5.629  17.187  0.0346  0.7747  0.2297
15128TIP3    H166875   6.378   5.721  17.196  1.1095  0.6539 -1.0519
15128TIP3    H266876   6.437   5.582  17.181 -0.4833 -0.3886  1.5709
15129TIP3   OH266877   1.740   4.166   5.719  0.0932 -0.6726 -0.2786
15129TIP3    H166878   1.667   4.228   5.709 -1.0999 -2.1974 -1.6626
15129TIP3    H266879   1.763   4.172   5.812 -0.7736  0.9577 -0.1236
15130TIP3   OH266880   5.263   3.853   4.880  0.3448  0.3664 -0.2202
15130TIP3    H166881   5.244   3.946   4.893  1.2374  0.5821 -0.3837
15130TIP3    H266882   5.290   3.847   4.788  1.9223  0.2490  0.2263
15131TIP3   OH266883   5.514   6.354  14.191 -0.4365 -0.0582 -0.5789
15131TIP3    H166884   5.601   6.363  14.151 -0.1548  0.2873  0.0930
15131TIP3    H266885   5.474   6.280  14.145  0.6787 -1.0048 -0.0813
15132TIP3   OH266886   4.280   2.345   0.901  0.1425 -0.4622  0.8571
15132TIP3    H166887   4.335   2.271   0.926  1.4694 -1.1731 -3.2797
15132TIP3    H266888   4.196   2.306   0.879 -0.0262 -0.3149  1.2348
15133TIP3   OH266889   5.974   5.676  14.932 -0.1238  0.2315 -0.3747
15133TIP3    H166890   5.930   5.709  15.009 -1.8122 -0.9817 -0.7675
15133TIP3    H266891   5.934   5.591  14.915 -0.6010  0.8966 -3.2003
15134TIP3   OH266892   4.380   3.917   3.458 -0.4534  0.2181 -0.3421
15134TIP3    H166893   4.412   3.951   3.542 -0.5406  0.4503 -0.4022
15134TIP3    H266894   4.362   3.996   3.406  2.0695  0.1227 -1.5181
15135TIP3   OH266895   5.163   1.741  12.825  0.3426 -0.1887 -0.1663
15135TIP3    H166896   5.078   1.706  12.798  0.3173 -1.9454  1.8891
15135TIP3    H266897   5.145   1.831  12.850 -0.8315 -0.4076 -0.1730
15136TIP3   OH266898   1.890   1.114  15.752  0.2350  0.0232  0.1011
15136TIP3    H166899   1.847   1.076  15.829  1.4952  1.9380  1.8719
15136TIP3    H266900   1.830   1.184  15.725 -0.3006 -0.7740 -0.8266
15137TIP3   OH266901   6.755   3.293  14.242  0.9634  0.0262  0.2925
15137TIP3    H166902   6.831   3.350  14.256  1.3194 -0.6591  1.2848
15137TIP3    H266903   6.790   3.204  14.250  0.1217 -0.3053  0.3897
15138TIP3   OH266904   1.878   3.996  11.210 -0.1248 -0.0844 -0.6701
15138TIP3    H166905   1.891   3.978  11.117 -1.6763 -0.2878 -0.8760
15138TIP3    H266906   1.786   3.975  11.226  0.2533 -0.6244  1.0462
15139TIP3   OH266907   0.795   3.873  13.059 -0.0212 -0.0771 -0.2646
15139TIP3    H166908   0.705   3.849  13.036 -0.2031  1.4291 -1.2219
15139TIP3    H266909   0.815   3.949  13.004  1.2823  0.6122  1.0848
15140TIP3   OH266910   5.226   2.140   2.929  0.1576 -0.3377  0.2720
15140TIP3    H166911   5.309   2.142   2.882  0.4444  1.0758  0.8133
15140TIP3    H266912   5.249   2.105   3.015  0.0406 -0.7222  0.1487
15141TIP3   OH266913   1.147   2.860  17.058 -0.2026 -0.1178 -0.5853
15141TIP3    H166914   1.113   2.771  17.067  0.8819 -0.5981 -1.0614
15141TIP3    H266915   1.200   2.872  17.137  0.8606 -0.4641 -1.2270
15142TIP3   OH266916   5.643   4.639   4.229  0.0928  0.1661 -0.2639
15142TIP3    H166917   5.734   4.617   4.213  0.4376  1.0222  0.4524
15142TIP3    H266918   5.632   4.726   4.190 -0.0641  0.6274  0.7862
15143TIP3   OH266919   4.888   0.488  12.930  0.4197 -0.1518 -1.0147
15143TIP3    H166920   4.845   0.458  12.849 -0.6182  0.0834 -0.5655
15143TIP3    H266921   4.968   0.435  12.935  0.5798 -0.0682 -2.2639
15144TIP3   OH266922   2.833   0.554  12.887 -0.5846 -0.6298  0.3608
15144TIP3    H166923   2.753   0.514  12.852  0.3061 -1.3297 -0.9628
15144TIP3    H266924   2.865   0.491  12.951 -2.3313  0.7480  2.7823
15145TIP3   OH266925   2.393   1.237   4.160 -0.2864 -0.2129  0.4791
15145TIP3    H166926   2.443   1.238   4.078 -0.4478  2.3674  0.3407
15145TIP3    H266927   2.445   1.292   4.220 -1.4614  0.0464  1.2820
15146TIP3   OH266928   5.943   6.463   3.205 -0.4020 -0.2877 -0.3970
15146TIP3    H166929   5.927   6.486   3.296  0.2206 -0.6630 -0.1882
15146TIP3    H266930   6.038   6.449   3.200  0.0180  2.3393 -1.6916
15147TIP3   OH266931   4.249   1.050   5.122 -0.6266  0.4743 -0.4963
15147TIP3    H166932   4.240   0.971   5.175  0.3609 -0.0774 -1.1131
15147TIP3    H266933   4.174   1.104   5.146 -1.7650 -0.9824 -0.6388
15148TIP3   OH266934   4.201   2.133  10.887  0.2844 -0.0321  0.0124
15148TIP3    H166935   4.274   2.166  10.938 -0.0511  1.0567 -0.1761
15148TIP3    H266936   4.225   2.151  10.796 -1.0771  2.2645  0.0445
15149TIP3   OH266937   5.988   0.822   1.051 -0.4431 -0.1553  0.4203
15149TIP3    H166938   6.017   0.908   1.079  0.6529 -0.3276 -0.1153
15149TIP3    H266939   5.902   0.810   1.091 -0.0473  0.6537  1.5280
15150TIP3   OH266940   5.999   5.228   5.953 -0.3431  0.3677 -0.1763
15150TIP3    H166941   5.997   5.204   5.861  0.3589  0.3934 -0.1991
15150TIP3    H266942   6.084   5.269   5.966 -0.2130 -0.1293  0.6024
15151TIP3   OH266943   2.877   5.421   0.447 -0.2291  0.7560 -0.1851
15151TIP3    H166944   2.915   5.461   0.368  1.6163  1.0227  0.8003
15151TIP3    H266945   2.951   5.385   0.495 -1.1466  1.5920  2.0048
15152TIP3   OH266946   0.619   0.925   2.735 -0.2851  0.2786  0.0089
15152TIP3    H166947   0.604   1.016   2.712  1.2113  0.4169 -0.5705
15152TIP3    H266948   0.697   0.900   2.684 -0.4626 -1.2114  0.4173
15153TIP3   OH266949   6.401   4.538  17.219 -0.0007  0.7133  0.2065
15153TIP3    H166950   6.347   4.467  17.184 -0.1792  0.9920 -0.0979
15153TIP3    H266951   6.344   4.614  17.217  0.7633  1.2879 -1.2830
15154TIP3   OH266952   0.902   1.632  15.845 -0.5175 -0.4232  0.3935
15154TIP3    H166953   0.997   1.646  15.843 -0.3447 -1.3369  1.4403
15154TIP3    H266954   0.871   1.684  15.920 -1.0313  0.7407 -0.5740
15155TIP3   OH266955   5.050   3.092   4.427 -0.2944  0.0968 -0.0326
15155TIP3    H166956   5.107   3.039   4.481  0.3393 -0.2881 -1.0648
15155TIP3    H266957   5.094   3.177   4.421  0.2241 -0.2177 -0.8766
15156TIP3   OH266958   2.871   5.306  13.795  0.3733  0.0370  0.1863
15156TIP3    H166959   2.805   5.269  13.854  0.5282  1.6865  1.4689
15156TIP3    H266960   2.819   5.348  13.726  0.1607 -0.9341 -0.2562
15157TIP3   OH266961   4.655   3.329  13.051  0.2503 -0.3810  0.4747
15157TIP3    H166962   4.635   3.395  12.985 -1.5786  0.2783  1.6070
15157TIP3    H266963   4.727   3.278  13.013 -0.2978  0.3620 -1.7283
15158TIP3   OH266964   1.510   1.267  17.205 -0.3711  0.6320  0.5508
15158TIP3    H166965   1.535   1.235  17.118  0.1741  0.4335  0.7787
15158TIP3    H266966   1.592   1.280  17.251 -0.6837 -0.0681  1.3289
15159TIP3   OH266967   0.209   0.498   5.256  0.7452 -0.3105 -0.7341
15159TIP3    H166968   0.269   0.572   5.251 -0.0567  0.5507  1.3780
15159TIP3    H266969   0.130   0.528   5.212  0.0612  0.5244  0.9856
15160TIP3   OH266970   3.383   3.515  12.859 -0.2363  0.2932 -0.2101
15160TIP3    H166971   3.450   3.531  12.792  0.2962 -0.9484 -0.0062
15160TIP3    H266972   3.430   3.472  12.930 -1.2497 -0.6702 -0.0857
15161TIP3   OH266973   3.194   0.101   3.262 -0.4506  0.3560 -0.1182
15161TIP3    H166974   3.114   0.094   3.210  0.2846 -2.2551 -1.0765
15161TIP3    H266975   3.164   0.115   3.352 -2.0932 -1.8280 -0.2590
15162TIP3   OH266976   4.653   4.803   0.314 -0.1179 -0.4371  0.5746
15162TIP3    H166977   4.709   4.876   0.342 -0.9205  0.8142 -0.9116
15162TIP3    H266978   4.586   4.798   0.382 -1.7921  2.2658 -0.6807
15163TIP3   OH266979   5.347   4.619  13.982  0.1493  0.1334  0.1909
15163TIP3    H166980   5.286   4.585  13.916  2.5541 -0.4803 -1.8582
15163TIP3    H266981   5.344   4.714  13.971 -0.6626  0.1369  0.3674
15164TIP3   OH266982   2.482   5.615   0.836  0.9736 -0.7791 -0.0338
15164TIP3    H166983   2.541   5.541   0.822  0.7650 -0.7490 -1.1976
15164TIP3    H266984   2.401   5.576   0.868  1.0199 -1.0010 -0.1865
15165TIP3   OH266985   2.820   6.402   0.716 -0.6533  0.0984  0.2519
15165TIP3    H166986   2.871   6.400   0.635  1.5034  0.9452  1.4773
15165TIP3    H266987   2.786   6.314   0.725 -0.2847 -0.2211 -1.1876
15166TIP3   OH266988   6.444   4.213  15.160  0.4545 -0.0622  0.0680
15166TIP3    H166989   6.490   4.290  15.127  1.6763  0.1155  2.0757
15166TIP3    H266990   6.365   4.248  15.202 -1.7210 -0.3649 -3.3589
15167TIP3   OH266991   5.742   2.651  13.539 -0.1980  0.0777  0.1109
15167TIP3    H166992   5.749   2.556  13.544 -0.4973  0.0342 -0.2467
15167TIP3    H266993   5.830   2.683  13.558  0.1126 -0.3036 -0.6783
15168TIP3   OH266994   2.819   5.395  15.404  0.1134  0.3491  0.2660
15168TIP3    H166995   2.871   5.450  15.345 -1.1227 -0.5746 -1.7922
15168TIP3    H266996   2.743   5.448  15.425 -0.7333 -0.2438 -1.1539
15169TIP3   OH266997   2.566   2.238  11.243  0.0288 -0.0896 -0.0267
15169TIP3    H166998   2.579   2.324  11.204 -0.5621 -0.4648 -1.1149
15169TIP3    H266999   2.510   2.254  11.319  0.1373  0.5142 -0.0709
15170TIP3   OH267000   1.307   5.973   6.634  0.4988  0.4568  0.7128
15170TIP3    H167001   1.302   6.064   6.665  0.4586  0.1607  1.5957
15170TIP3    H267002   1.278   5.977   6.543  1.4388  1.4843  0.4420
15171TIP3   OH267003   0.105   1.060   3.006  0.3232  0.3198 -0.0637
15171TIP3    H167004   0.058   1.059   3.089  0.1875 -1.3998 -0.1368
15171TIP3    H267005   0.079   1.143   2.965 -1.5627  0.0433  0.4895
15172TIP3   OH267006   5.470   6.139   6.450  0.0253 -0.1403  0.5570
15172TIP3    H167007   5.400   6.193   6.486 -2.5541 -2.0954 -1.1105
15172TIP3    H267008   5.519   6.108   6.526  0.3171  2.7646  1.6605
15173TIP3   OH267009   6.051   6.736  17.161  0.3502  0.2036  0.2525
15173TIP3    H167010   5.969   6.753  17.208 -0.0360 -3.2354  1.0783
15173TIP3    H267011   6.025   6.732  17.068 -0.5420 -1.1490  0.5309
15174TIP3   OH267012   1.774   5.981   0.370 -1.0533  0.4187  0.2641
15174TIP3    H167013   1.812   6.017   0.450 -1.7178  1.3705  0.1671
15174TIP3    H267014   1.761   5.888   0.390 -0.4639  0.4773  0.9721
15175TIP3   OH267015   1.731   3.365  13.773  0.2514 -0.1968  0.0095
15175TIP3    H167016   1.679   3.413  13.837  0.9958 -1.3249  1.5182
15175TIP3    H267017   1.781   3.432  13.726 -0.3104  0.6458  0.6077
15176TIP3   OH267018   5.191   4.225  11.211  0.1248 -0.1430 -0.2543
15176TIP3    H167019   5.166   4.132  11.218  0.3986 -0.5346 -3.1788
15176TIP3    H267020   5.269   4.225  11.157  1.8727  1.6876  2.0429
15177TIP3   OH267021   1.128   6.632  11.116  0.1222 -0.3811 -0.1640
15177TIP3    H167022   1.051   6.630  11.174  0.8117 -1.5749  0.7478
15177TIP3    H267023   1.180   6.706  11.147 -1.1881  1.2181 -1.5614
15178TIP3   OH267024   5.540   4.679  10.857  0.3797  0.3837 -0.0336
15178TIP3    H167025   5.538   4.682  10.761 -0.1124  1.2873 -0.0046
15178TIP3    H267026   5.564   4.589  10.878 -0.0693  0.0319 -0.9982
15179TIP3   OH267027   1.476   2.943   5.003  1.1982  0.3783 -0.3468
15179TIP3    H167028   1.388   2.962   4.971  1.4230  4.4259  0.9539
15179TIP3    H267029   1.463   2.905   5.090  0.7326  1.0855 -0.1054
15180TIP3   OH267030   0.435   5.722  14.158  0.8121 -0.8762 -0.4252
15180TIP3    H167031   0.482   5.719  14.075 -0.9287 -2.5575 -1.4293
15180TIP3    H267032   0.343   5.708  14.134 -0.1444  1.3370  1.5314
15181TIP3   OH267033   4.846   5.827   3.093 -0.4043 -0.1766 -0.4935
15181TIP3    H167034   4.764   5.866   3.064 -0.6725 -0.6646 -0.3944
15181TIP3    H267035   4.825   5.735   3.111  0.0857 -0.2306 -0.1564
15182TIP3   OH267036   5.774   4.362  13.696  0.1541  0.9480 -0.0263
15182TIP3    H167037   5.863   4.362  13.661  0.6836  0.5905  1.2635
15182TIP3    H267038   5.745   4.270  13.690  0.2020  0.9066  0.3424
15183TIP3   OH267039   6.079   2.369  15.703  0.2672 -0.1104 -0.3336
15183TIP3    H167040   6.164   2.376  15.660 -0.4586  2.3902 -1.5134
15183TIP3    H267041   6.046   2.458  15.709 -1.9620 -0.9079  0.8022
15184TIP3   OH267042   6.202   2.927   0.784  0.2908 -0.4414  0.1328
15184TIP3    H167043   6.156   2.991   0.729  0.9345 -2.2765 -2.7301
15184TIP3    H267044   6.292   2.959   0.787  0.0427  0.2084  1.0545
15185TIP3   OH267045   5.760   3.517   2.245 -0.9036 -0.2882 -0.0449
15185TIP3    H167046   5.765   3.471   2.329  1.7981  1.5159  0.8953
15185TIP3    H267047   5.826   3.586   2.251 -2.9117  2.0435 -2.4058
15186TIP3   OH267048   3.187   3.975  13.351  0.1648  0.5708 -0.5428
15186TIP3    H167049   3.235   4.049  13.314  0.0270  1.2601  0.5947
15186TIP3    H267050   3.217   3.970  13.441 -0.0805 -0.5631 -0.5131
15187TIP3   OH267051   6.397   2.683  17.040 -0.4338 -0.3343 -0.4009
15187TIP3    H167052   6.444   2.685  17.123 -0.7052 -1.5715 -0.1837
15187TIP3    H267053   6.465   2.671  16.974 -0.3266 -0.8699 -0.2011
15188TIP3   OH267054   2.501   0.141  11.857  0.3945  0.2191 -0.4093
15188TIP3    H167055   2.486   0.054  11.892  1.8288  0.3012  0.5467
15188TIP3    H267056   2.417   0.185  11.863  0.0218 -0.6013  0.6196
15189TIP3   OH267057   2.297   1.607  14.064  0.6538  0.8817 -0.2135
15189TIP3    H167058   2.334   1.572  14.146 -0.0203 -0.4576 -0.4481
15189TIP3    H267059   2.263   1.693  14.089  2.6025  1.5712  0.3313
15190TIP3   OH267060   1.370   1.885   5.650  0.1095 -0.1147  0.0225
15190TIP3    H167061   1.309   1.908   5.720 -2.3139 -0.4926 -1.8297
15190TIP3    H267062   1.455   1.880   5.693 -0.7953  2.3802  2.4031
15191TIP3   OH267063   5.443   2.404   3.435  0.0589 -0.8938  0.4879
15191TIP3    H167064   5.371   2.407   3.372  0.6551 -1.2461 -0.2244
15191TIP3    H267065   5.417   2.337   3.497 -1.3584  0.6663  1.6688
15192TIP3   OH267066   4.593   4.785   3.102 -0.2754 -0.0464  0.0972
15192TIP3    H167067   4.636   4.843   3.165 -1.3139 -0.7060  1.4607
15192TIP3    H267068   4.665   4.742   3.056  0.5029  1.3195 -0.0306
15193TIP3   OH267069   5.075   5.597  15.013  0.4050 -0.3911  0.4058
15193TIP3    H167070   5.024   5.520  14.988  0.6060 -0.2920 -0.3441
15193TIP3    H267071   5.142   5.563  15.073  0.9380 -0.9356 -0.4659
15194TIP3   OH267072   4.077   3.606   1.270 -0.0102  0.4215  0.0556
15194TIP3    H167073   4.096   3.699   1.281 -2.0595  0.9924 -0.6835
15194TIP3    H267074   4.021   3.602   1.192 -1.0427 -1.2605  0.8036
15195TIP3   OH267075   4.239   5.496  13.726  0.1241  0.0359  0.2309
15195TIP3    H167076   4.201   5.408  13.726 -1.4496  0.6507 -1.7941
15195TIP3    H267077   4.164   5.555  13.721  1.2107  1.3571 -2.2813
15196TIP3   OH267078   5.809   6.414   1.763  0.0827  0.7492  0.3616
15196TIP3    H167079   5.721   6.431   1.729  0.0426  0.1566  0.1624
15196TIP3    H267080   5.816   6.471   1.840 -1.7925 -1.6247  2.4789
15197TIP3   OH267081   6.163   1.847   5.990 -0.6760  0.0956 -0.6404
15197TIP3    H167082   6.156   1.929   5.941 -0.1585  0.8109  0.4737
15197TIP3    H267083   6.169   1.780   5.921  1.0509  1.1536 -1.5920
15198TIP3   OH267084   3.861   3.092   0.837 -0.3666  0.2367  0.2796
15198TIP3    H167085   3.948   3.064   0.867 -0.9570 -0.0732  1.7520
15198TIP3    H267086   3.800   3.033   0.881 -1.3360  0.4728 -0.7214
15199TIP3   OH267087   4.652   3.780   0.491 -0.4432  0.0797  0.2988
15199TIP3    H167088   4.682   3.688   0.493  0.4598  0.3730  0.8466
15199TIP3    H267089   4.647   3.800   0.398  1.5306  0.1279  0.1558
15200TIP3   OH267090   2.726   1.544   2.227 -0.0243 -0.4772  0.4919
15200TIP3    H167091   2.671   1.499   2.290  1.4338 -1.9485  0.8014
15200TIP3    H267092   2.771   1.612   2.277 -0.6222 -0.0847  0.5018
15201TIP3   OH267093   6.397   5.780   4.539  0.5042 -0.8474 -0.3644
15201TIP3    H167094   6.439   5.711   4.591 -1.0471 -0.6440  1.2278
15201TIP3    H267095   6.353   5.733   4.468 -0.6211 -1.5475  0.7591
15202TIP3   OH267096   6.088   2.249   2.232 -0.4405  0.5229  0.3704
15202TIP3    H167097   6.080   2.275   2.324 -1.7086 -0.5376  0.5995
15202TIP3    H267098   6.015   2.294   2.188 -1.4830 -1.0337  0.4185
15203TIP3   OH267099   0.002   6.227   0.696  0.4158 -0.4600  0.0356
15203TIP3    H167100   0.068   6.238   0.628  0.6982  2.1835  0.6308
15203TIP3    H267101  -0.076   6.271   0.661  0.5866  0.9877  1.3719
15204TIP3   OH267102   3.353   4.847  14.524 -0.2682 -0.1064 -0.2491
15204TIP3    H167103   3.305   4.895  14.591  0.4233 -1.4733  1.2898
15204TIP3    H267104   3.285   4.810  14.467 -0.8807  0.8179 -0.1287
15205TIP3   OH267105   0.112   2.155  15.634 -0.0308 -0.0578  0.1394
15205TIP3    H167106   0.161   2.088  15.681  0.8876  1.0654  0.8538
15205TIP3    H267107   0.025   2.153  15.674  0.0151 -0.7485  0.2118
15206TIP3   OH267108   2.760   3.360  13.407 -0.4460  0.5981  0.3521
15206TIP3    H167109   2.807   3.298  13.352 -0.6568 -0.4856  1.3372
15206TIP3    H267110   2.667   3.339  13.394 -0.4728 -0.4870  1.9599
15207TIP3   OH267111   0.045   4.711   6.327 -0.2341  0.5797 -0.9722
15207TIP3    H167112   0.006   4.773   6.265 -0.2367  0.6615 -0.8892
15207TIP3    H267113   0.139   4.719   6.314 -0.2118  0.9601 -0.6200
15208TIP3   OH267114   0.043   4.546  14.350  0.1993  0.2055 -0.5035
15208TIP3    H167115   0.130   4.575  14.380 -0.2564  1.5775 -0.4219
15208TIP3    H267116   0.050   4.544  14.255  0.7428 -1.1506 -0.4543
15209TIP3   OH267117   3.182   3.798   1.600 -0.0050 -0.0410 -0.5823
15209TIP3    H167118   3.171   3.872   1.539  0.5104  0.6642  0.1485
15209TIP3    H267119   3.277   3.795   1.616  0.1973 -1.8805 -1.8150
15210TIP3   OH267120   1.544   1.116  12.616  0.1342 -0.2597 -0.2626
15210TIP3    H167121   1.510   1.184  12.675 -0.5187  0.2250 -1.1714
15210TIP3    H267122   1.475   1.050  12.614  0.2645 -0.3960 -0.2914
15211TIP3   OH267123   2.329   5.513  14.509  0.0431  0.4788 -0.0374
15211TIP3    H167124   2.390   5.567  14.458 -0.6302  1.4170  0.1230
15211TIP3    H267125   2.248   5.563  14.510 -0.6185 -0.5789  0.0813
15212TIP3   OH267126   5.690   1.831  12.423  0.4915 -0.3989  0.5810
15212TIP3    H167127   5.777   1.798  12.401  0.5896  0.4857 -0.4870
15212TIP3    H267128   5.677   1.906  12.363 -1.1200 -0.7020  0.4972
15213TIP3   OH267129   3.015   0.630   3.608  0.4845  0.1382  0.0132
15213TIP3    H167130   3.006   0.712   3.559 -1.9822 -0.3236 -0.4222
15213TIP3    H267131   2.998   0.562   3.543 -1.1521 -0.5463  1.0939
15214TIP3   OH267132   2.207   3.652   1.569  0.2865  0.3161  0.0190
15214TIP3    H167133   2.198   3.583   1.635 -0.0647  0.4422  0.1025
15214TIP3    H267134   2.200   3.606   1.485  2.0633 -0.0469  0.0317
15215TIP3   OH267135   2.800   3.241  17.162  0.1546  0.1081 -0.0276
15215TIP3    H167136   2.846   3.203  17.087 -0.4785 -2.2466  0.6814
15215TIP3    H267137   2.723   3.284  17.123  0.6983  0.3581 -0.8510
15216TIP3   OH267138   6.004   5.070  12.031 -0.2440  0.8556  0.0151
15216TIP3    H167139   5.963   5.119  12.103 -0.3373 -0.6077  1.0008
15216TIP3    H267140   5.964   5.106  11.952 -0.5922  2.0859  0.7167
15217TIP3   OH267141   4.522   1.610  12.267  0.7312  0.2435  0.2989
15217TIP3    H167142   4.503   1.682  12.207  1.1278 -0.7041 -0.9859
15217TIP3    H267143   4.520   1.531  12.213  0.4108 -0.7240  1.6571
15218TIP3   OH267144   5.442   0.840  17.176 -0.0105  0.2135  0.1688
15218TIP3    H167145   5.506   0.885  17.231  1.2780  0.7160 -1.6157
15218TIP3    H267146   5.420   0.761  17.224  1.7236  0.2003  1.0119
15219TIP3   OH267147   6.178   6.028   0.884  0.1603 -0.3163  0.1932
15219TIP3    H167148   6.177   6.073   0.800  0.8956  0.3703  0.5451
15219TIP3    H267149   6.093   6.048   0.923 -0.4857 -1.2271 -0.6691
15220TIP3   OH267150   5.909   5.495  13.243 -0.0377  0.3990  0.2192
15220TIP3    H167151   5.865   5.483  13.327  0.3057  2.3808  0.7414
15220TIP3    H267152   5.997   5.462  13.257 -0.0488  0.5124  0.5692
15221TIP3   OH267153   2.388   4.231  13.146  0.2232  0.4689  0.2599
15221TIP3    H167154   2.314   4.255  13.202  0.3739 -0.8220  1.0364
15221TIP3    H267155   2.351   4.169  13.083  0.5304  0.2022  0.3400
15222TIP3   OH267156   0.787   3.381  14.379  0.2199 -0.5813  0.2294
15222TIP3    H167157   0.831   3.310  14.333  2.2940 -0.2258  1.5155
15222TIP3    H267158   0.812   3.460  14.331  1.5707 -0.3185  1.2766
15223TIP3   OH267159   3.377   2.637   0.288 -0.3675  0.5014  0.3344
15223TIP3    H167160   3.336   2.670   0.208  0.2797 -2.8760 -1.6222
15223TIP3    H267161   3.319   2.566   0.317  2.1582 -2.1503 -0.5971
15224TIP3   OH267162   1.042   0.059  15.153  0.3649 -0.3546  0.8818
15224TIP3    H167163   1.068   0.078  15.063 -0.7795 -0.8410  0.4206
15224TIP3    H267164   1.124   0.038  15.198  0.8923 -0.7681 -0.2190
15225TIP3   OH267165   6.467   0.503   2.685 -0.1197  0.2809 -0.3874
15225TIP3    H167166   6.516   0.585   2.677 -0.0901  0.2125 -0.9080
15225TIP3    H267167   6.429   0.489   2.599 -0.5738  0.0239 -0.1455
15226TIP3   OH267168   3.664   2.949   4.826  0.1241 -0.0962 -0.9820
15226TIP3    H167169   3.718   2.966   4.749 -1.1224 -0.4500 -1.9550
15226TIP3    H267170   3.682   2.858   4.849  2.1581  0.5907  0.5373
15227TIP3   OH267171   1.761   1.882   1.186  0.2156 -0.2892 -0.7226
15227TIP3    H167172   1.708   1.961   1.174 -0.5983 -0.8920 -1.1739
15227TIP3    H267173   1.851   1.912   1.172 -0.2159  0.1819 -2.9533
15228TIP3   OH267174   6.533   5.374   2.410  0.5316 -0.0208 -0.7069
15228TIP3    H167175   6.574   5.409   2.489 -0.0136 -1.3468  0.1878
15228TIP3    H267176   6.604   5.369   2.346  1.3281 -0.3954  0.1894
15229TIP3   OH267177   0.384   4.348  15.203  0.3171 -0.5232  0.1678
15229TIP3    H167178   0.352   4.436  15.223  0.8661 -0.0933 -0.7527
15229TIP3    H267179   0.360   4.296  15.279 -1.6940 -0.0152 -0.0638
15230TIP3   OH267180   1.785   2.035   4.567  0.1242 -0.4286 -0.2909
15230TIP3    H167181   1.744   1.990   4.493 -1.7366  0.5821  0.0648
15230TIP3    H267182   1.756   1.985   4.644  1.4169 -1.0177 -0.1669
15231TIP3   OH267183   5.247   5.761  14.314 -0.0335 -0.3317 -0.3341
15231TIP3    H167184   5.179   5.717  14.366  2.2378 -2.2386  1.2451
15231TIP3    H267185   5.318   5.775  14.376  0.2359  3.8063 -1.3265
15232TIP3   OH267186   1.951   6.723  15.638  0.8910  0.4152  0.1298
15232TIP3    H167187   1.909   6.653  15.589  1.5954  0.0348  0.0556
15232TIP3    H267188   1.945   6.800  15.581 -0.6728  0.6637  0.5764
15233TIP3   OH267189   5.012   3.372   0.855 -0.7058 -0.1258  0.3637
15233TIP3    H167190   5.068   3.330   0.789  1.8563  0.2989  2.1333
15233TIP3    H267191   4.946   3.420   0.804  0.6827 -0.4336 -1.8420
15234TIP3   OH267192   4.171   3.566   3.862 -0.1053  0.0571 -0.7321
15234TIP3    H167193   4.090   3.527   3.831 -0.4565  0.0694  0.1353
15234TIP3    H267194   4.190   3.637   3.801 -0.4323 -0.3138 -1.2710
15235TIP3   OH267195   0.132   5.563  15.682  0.1035 -0.4572  0.0615
15235TIP3    H167196   0.105   5.501  15.614  2.9417 -0.8691 -0.8304
15235TIP3    H267197   0.085   5.644  15.661 -1.8316 -1.5816 -0.1730
15236TIP3   OH267198   2.813   4.343   4.426 -0.2387  0.4627 -0.7024
15236TIP3    H167199   2.828   4.285   4.501 -0.5114 -0.4673 -1.3547
15236TIP3    H267200   2.873   4.312   4.359 -0.7641  0.5921 -1.2451
15237TIP3   OH267201   4.136   6.795  11.509  0.0233  0.1915 -0.0724
15237TIP3    H167202   4.132   6.814  11.603 -1.0304 -0.0025 -0.0727
15237TIP3    H267203   4.087   6.713  11.500  0.1893  0.1699 -0.7871
15238TIP3   OH267204   6.724   0.614   6.216 -0.1402  0.3801 -0.4188
15238TIP3    H167205   6.683   0.697   6.192  1.6738  1.5230  0.2288
15238TIP3    H267206   6.812   0.618   6.178  0.7038 -0.3268  1.3403
15239TIP3   OH267207   5.020   5.041  11.448  0.1403  0.1074  0.1301
15239TIP3    H167208   5.091   4.989  11.485  1.7290  2.3088  0.3354
15239TIP3    H267209   5.063   5.113  11.402 -1.9223  0.3462 -1.5825
15240TIP3   OH267210   2.171   0.294   0.396 -0.1351  0.4162 -0.6226
15240TIP3    H167211   2.259   0.269   0.368  0.2069  1.5246 -0.5755
15240TIP3    H267212   2.129   0.326   0.317 -0.2607  0.5485 -0.5024
15241TIP3   OH267213   1.785   2.486  11.232 -0.1406  0.2862  0.4961
15241TIP3    H167214   1.734   2.472  11.152 -1.1689  1.4810  0.8944
15241TIP3    H267215   1.719   2.511  11.298  0.8594  0.9850  1.2654
15242TIP3   OH267216   5.801   0.360   2.803 -0.4675 -0.3493  0.3089
15242TIP3    H167217   5.890   0.335   2.778 -0.7417 -1.2019  0.1549
15242TIP3    H267218   5.808   0.382   2.896  0.5817  2.9595 -0.4419
15243TIP3   OH267219   6.557   6.449  12.881  0.4596 -0.1934  1.0367
15243TIP3    H167220   6.462   6.432  12.881 -0.3761  2.9089 -2.8812
15243TIP3    H267221   6.589   6.401  12.805  1.0072  2.4759 -0.5134
15244TIP3   OH267222   6.737   2.661   5.043 -0.1274  0.1937 -0.1648
15244TIP3    H167223   6.658   2.703   5.077 -0.1990 -0.0123 -0.0768
15244TIP3    H267224   6.804   2.679   5.109 -0.3123 -0.3673  0.1870
15245TIP3   OH267225   1.473   0.063  12.331  0.4447 -0.0691 -0.2406
15245TIP3    H167226   1.564   0.072  12.304  1.1731 -0.1162  1.9821
15245TIP3    H267227   1.445   0.152  12.353  1.9943 -0.4787  4.7642
15246TIP3   OH267228   6.677   4.998  12.122 -0.6462 -0.1829  0.1725
15246TIP3    H167229   6.694   4.953  12.205  0.4259  0.9210  0.5916
15246TIP3    H267230   6.763   5.008  12.082 -0.6832  2.2019  0.5182
15247TIP3   OH267231   2.500   6.632   5.222  0.5455 -0.2014 -0.2314
15247TIP3    H167232   2.492   6.654   5.315  1.0524 -0.0543 -0.2222
15247TIP3    H267233   2.483   6.537   5.219 -0.0467 -0.1046 -0.0669
15248TIP3   OH267234   6.636   4.534   0.565 -0.0146  0.3195 -0.0735
15248TIP3    H167235   6.613   4.503   0.653  0.5087  1.7127  0.5852
15248TIP3    H267236   6.673   4.458   0.521 -1.7139 -0.8184  0.3555
15249TIP3   OH267237   4.785   3.142  15.752  0.7165 -0.7002  0.3445
15249TIP3    H167238   4.824   3.126  15.667  0.1993 -1.0038  0.1582
15249TIP3    H267239   4.702   3.186  15.733  0.6055 -0.7546  0.6899
15250TIP3   OH267240   4.932   0.296  14.812  0.0173  0.3175  0.0166
15250TIP3    H167241   4.889   0.314  14.728  0.0508 -1.9072 -0.5339
15250TIP3    H267242   4.874   0.234  14.856  0.3015  0.9980  1.3986
15251TIP3   OH267243   0.631   4.989   2.961 -0.3134  0.0983 -0.2194
15251TIP3    H167244   0.569   5.027   2.899 -0.5938  0.4567  0.2726
15251TIP3    H267245   0.714   4.986   2.913 -0.4001  0.8773 -0.4307
15252TIP3   OH267246   6.741   0.045  16.158 -0.0596 -0.4516  0.0908
15252TIP3    H167247   6.790   0.125  16.176 -0.2231 -0.7633  2.1839
15252TIP3    H267248   6.664   0.051  16.215  0.1560 -2.2833  0.6471
15253TIP3   OH267249   6.249   0.433   0.744  0.3031  0.5697  0.1395
15253TIP3    H167250   6.215   0.499   0.805  0.5308 -0.2025  1.1242
15253TIP3    H267251   6.184   0.363   0.745  1.3571 -0.4447  1.2317
15254TIP3   OH267252   0.710   5.458  17.174 -0.2516  0.3372  0.0041
15254TIP3    H167253   0.750   5.543  17.191 -1.5244  0.7919  0.8457
15254TIP3    H267254   0.688   5.424  17.260  0.0433 -0.7578 -0.3380
15255TIP3   OH267255   6.230   0.118   1.689  0.3445 -0.1328  0.0175
15255TIP3    H167256   6.247   0.183   1.757  0.7103 -0.3202  0.1113
15255TIP3    H267257   6.229   0.034   1.736  2.9709 -0.5504 -0.4834
15256TIP3   OH267258   5.674   2.943  14.798 -0.1631 -0.5024 -0.3436
15256TIP3    H167259   5.698   3.011  14.735  1.0874  0.0044  0.6402
15256TIP3    H267260   5.647   2.869  14.744  3.2645 -1.0050 -1.6491
15257TIP3   OH267261   2.776   5.239  12.340  0.0921  0.7449  0.3411
15257TIP3    H167262   2.763   5.332  12.323  0.7090  0.9934  1.1715
15257TIP3    H267263   2.717   5.195  12.280  3.2045  1.4807 -3.7064
15258TIP3   OH267264   5.152   2.039   4.465 -0.7110 -0.1128 -0.2107
15258TIP3    H167265   5.085   2.059   4.530 -0.7154  0.1676 -0.2991
15258TIP3    H267266   5.175   1.947   4.481 -2.3070 -0.7248 -1.2569
15259TIP3   OH267267   5.713   2.200   6.301 -0.4122 -0.2765 -0.0652
15259TIP3    H167268   5.630   2.198   6.254  0.4198  1.2402 -1.7152
15259TIP3    H267269   5.752   2.284   6.278  1.4722 -0.8403  0.8489
15260TIP3   OH267270   0.468   6.655   2.499  0.3499 -0.2433 -0.4205
15260TIP3    H167271   0.507   6.588   2.556  1.6971 -2.2300 -3.4558
15260TIP3    H267272   0.541   6.690   2.449 -0.7520  1.6652 -0.7834
15261TIP3   OH267273   0.815   4.017  12.193  0.3092 -0.1970 -0.1850
15261TIP3    H167274   0.727   4.023  12.230  0.5275 -2.0636  0.7765
15261TIP3    H267275   0.834   3.923  12.191  1.7831  0.0827 -1.6125
15262TIP3   OH267276   0.840   3.600  14.216 -0.3228 -0.0140 -0.1520
15262TIP3    H167277   0.881   3.600  14.129 -1.0319 -2.1906 -0.5543
15262TIP3    H267278   0.764   3.657  14.206 -0.4029 -0.2439 -0.9878
15263TIP3   OH267279   1.730   1.004   3.787 -0.1396 -0.4610 -0.4392
15263TIP3    H167280   1.739   0.958   3.703  0.8444  0.5620 -0.9182
15263TIP3    H267281   1.770   1.089   3.772 -0.4660 -0.0488  0.9160
15264TIP3   OH267282   6.572   1.689  11.497  0.2608  0.2537 -0.4370
15264TIP3    H167283   6.594   1.777  11.468 -0.8360  1.0099  0.8715
15264TIP3    H267284   6.620   1.678  11.579  0.6525 -0.4966 -0.7658
15265TIP3   OH267285   5.470   6.044   6.197 -0.0400 -0.0514 -0.4096
15265TIP3    H167286   5.556   6.075   6.167  0.7315 -1.5160  0.1895
15265TIP3    H267287   5.468   6.064   6.290  0.0399 -0.8312 -0.2328
15266TIP3   OH267288   0.680   2.351  13.997  0.0132  0.0977  0.1084
15266TIP3    H167289   0.695   2.261  13.967 -0.4525  0.3865 -1.0241
15266TIP3    H267290   0.729   2.356  14.080  1.5946 -0.6392 -0.7220
15267TIP3   OH267291   1.661   0.489   5.707  0.2352  0.2698  0.5468
15267TIP3    H167292   1.681   0.557   5.642  2.9266 -1.3374 -0.4610
15267TIP3    H267293   1.741   0.481   5.758 -0.5523 -1.1340  1.6099
15268TIP3   OH267294   0.819   1.242  15.600  0.4709 -0.0882  0.2010
15268TIP3    H167295   0.884   1.236  15.670  1.7480  0.5689 -0.8784
15268TIP3    H267296   0.800   1.151  15.578 -0.5264 -0.3256  1.8772
15269TIP3   OH267297   5.226   4.381   0.577 -0.5882  0.2896 -0.0630
15269TIP3    H167298   5.245   4.290   0.601 -0.9174  0.1605 -0.2815
15269TIP3    H267299   5.299   4.407   0.521  0.3766  0.7141  1.3648
15270TIP3   OH267300   4.886   5.562   3.213  0.0494  0.4763 -0.8643
15270TIP3    H167301   4.977   5.535   3.229 -0.2353  0.5213  1.0911
15270TIP3    H267302   4.845   5.486   3.172 -0.1768 -1.4947  2.5753
15271TIP3   OH267303   5.071   5.307   0.288  0.2278  0.6555 -0.3968
15271TIP3    H167304   5.059   5.220   0.325 -0.5779  1.4790  1.4254
15271TIP3    H267305   5.139   5.347   0.342  1.7210  0.6852 -2.1786
15272TIP3   OH267306   1.211   4.197  14.045  0.6976 -0.2926  0.2941
15272TIP3    H167307   1.137   4.138  14.028  0.1817  0.0936  1.1831
15272TIP3    H267308   1.285   4.138  14.063  0.7644 -0.6886 -1.1552
15273TIP3   OH267309   5.072   5.212  12.203  0.1733 -0.3911  0.5567
15273TIP3    H167310   4.991   5.171  12.234  0.1221 -0.4521  0.3455
15273TIP3    H267311   5.091   5.280  12.267  0.0043 -0.4371  0.6559
15274TIP3   OH267312   5.642   0.235   2.627 -0.1247 -0.0407  0.4402
15274TIP3    H167313   5.693   0.255   2.705  0.6639  2.4784 -0.6221
15274TIP3    H267314   5.680   0.154   2.593  3.1357  1.5615 -0.1344
15275TIP3   OH267315   6.384   3.733   1.723 -0.0106 -0.0110 -0.1552
15275TIP3    H167316   6.460   3.765   1.674  0.1202  0.0356  0.0738
15275TIP3    H267317   6.311   3.739   1.661  0.2257 -0.3368 -0.4720
15276TIP3   OH267318   3.942   1.154   3.167  0.1414  0.7281  0.2048
15276TIP3    H167319   3.874   1.086   3.161 -1.1946  1.8500  1.7681
15276TIP3    H267320   3.948   1.174   3.261  3.0182  0.3538  0.1959
15277TIP3   OH267321   5.126   4.682  14.867 -0.1072  0.0511  0.9429
15277TIP3    H167322   5.141   4.598  14.824  2.1682  1.0648 -0.3962
15277TIP3    H267323   5.187   4.683  14.941 -1.3502 -0.1345  2.0114
15278TIP3   OH267324   4.073   2.710   1.605 -0.1494 -0.1261  0.2181
15278TIP3    H167325   4.104   2.680   1.691  0.2642  1.5937  0.7170
15278TIP3    H267326   4.016   2.784   1.625 -2.8316 -1.7840 -0.8337
15279TIP3   OH267327   1.221   1.944   2.675 -0.0744  0.1801 -0.2443
15279TIP3    H167328   1.270   1.925   2.754 -0.7890 -3.1340 -0.4506
15279TIP3    H267329   1.278   2.002   2.624  1.1800  0.8494  1.8317
15280TIP3   OH267330   4.800   0.885   4.746 -0.0582 -0.3380 -0.2308
15280TIP3    H167331   4.757   0.834   4.815  0.3697  0.0676  0.3525
15280TIP3    H267332   4.880   0.916   4.787 -0.2503  0.6968 -0.6156
15281TIP3   OH267333   5.291   1.416   5.857  0.0261 -0.5133 -0.2049
15281TIP3    H167334   5.208   1.443   5.897 -0.3972  0.4042 -1.6214
15281TIP3    H267335   5.318   1.339   5.907 -1.0285 -0.0740  1.0990
15282TIP3   OH267336   6.772   5.124   4.718 -0.0363  0.2541 -0.1749
15282TIP3    H167337   6.867   5.134   4.729  0.0417 -0.3931 -0.2486
15282TIP3    H267338   6.752   5.172   4.638  0.2971  0.0363 -0.3934
15283TIP3   OH267339   0.567   5.665  11.666  0.8052 -0.5339 -0.5859
15283TIP3    H167340   0.562   5.730  11.736  1.1793  1.4534 -2.3127
15283TIP3    H267341   0.619   5.593  11.703  1.6198  0.7731  0.9039
15284TIP3   OH267342   2.040   3.513  17.001  0.2472 -0.1169 -0.3008
15284TIP3    H167343   1.985   3.471  16.935 -1.8463  0.8971  0.6971
15284TIP3    H267344   1.994   3.594  17.023  2.1012  0.7339  0.7100
15285TIP3   OH267345   2.577   2.528   0.183 -0.0313  0.3753 -0.2549
15285TIP3    H167346   2.659   2.480   0.175  1.1426  2.5216 -3.3479
15285TIP3    H267347   2.508   2.462   0.173  1.3300 -1.2738  0.8802
15286TIP3   OH267348   5.711   1.058  16.053  0.8622 -0.3534 -0.2899
15286TIP3    H167349   5.652   1.092  16.120 -0.1883 -1.1227 -0.8000
15286TIP3    H267350   5.704   0.963  16.060  1.1065 -0.4487 -1.1734
15287TIP3   OH267351   0.524   0.590   0.636 -0.0334 -0.4215  0.6066
15287TIP3    H167352   0.555   0.616   0.723  0.4904 -1.6570  0.8046
15287TIP3    H267353   0.564   0.505   0.620  2.6493  1.1905 -2.2994
15288TIP3   OH267354   6.612   0.014  14.215 -0.0680  0.2136  0.7526
15288TIP3    H167355   6.630  -0.071  14.175 -1.1048  0.9110 -1.3653
15288TIP3    H267356   6.692   0.037  14.261  0.2431 -1.8802  1.3506
15289TIP3   OH267357   5.201   5.455  13.650 -0.0237  0.7874  0.0321
15289TIP3    H167358   5.284   5.455  13.699 -1.0477 -0.7838  1.9404
15289TIP3    H267359   5.194   5.544  13.615  1.6125  1.5086  1.3500
15290TIP3   OH267360   4.912   0.395   2.853 -0.0581  0.7287  0.1814
15290TIP3    H167361   4.883   0.384   2.943  1.5679 -0.0555  0.6436
15290TIP3    H267362   5.007   0.403   2.858  0.0515  0.9570 -1.4443
15291TIP3   OH267363   4.138   0.521  16.524  0.6810 -0.3298  0.1705
15291TIP3    H167364   4.206   0.547  16.586  1.5226 -0.4643 -0.6683
15291TIP3    H267365   4.173   0.442  16.483  0.4598  0.1522 -0.9721
15292TIP3   OH267366   0.994   3.044   3.827 -0.0600 -0.0991  0.0546
15292TIP3    H167367   0.966   3.056   3.918 -1.1595 -0.5446 -0.2126
15292TIP3    H267368   0.932   2.980   3.791 -0.5096  1.0915 -1.4017
15293TIP3   OH267369   0.828   4.110  16.166  0.0950 -0.2656 -0.3798
15293TIP3    H167370   0.800   4.019  16.171 -0.7191  0.0240  1.0624
15293TIP3    H267371   0.861   4.130  16.254  0.0439  0.8836 -0.5968
15294TIP3   OH267372   1.627   5.986  12.168  0.4640  0.0893 -0.2917
15294TIP3    H167373   1.708   5.980  12.219 -0.7286 -1.2023  1.6034
15294TIP3    H267374   1.601   6.078  12.174  1.5842  0.4395 -0.6285
15295TIP3   OH267375   5.948   4.409   5.245 -0.5312 -0.2351 -0.4309
15295TIP3    H167376   5.893   4.452   5.311 -0.2226 -0.2777 -0.1459
15295TIP3    H267377   6.036   4.441   5.262 -0.3480 -0.7279 -0.4185
15296TIP3   OH267378   2.988   5.695  15.644 -0.2353  0.0031  0.2223
15296TIP3    H167379   2.936   5.772  15.620  0.3631  0.3877  0.1682
15296TIP3    H267380   3.056   5.690  15.577  1.0991  0.7341  1.4675
15297TIP3   OH267381   1.417   1.873   0.497  0.2615 -0.0700  0.3705
15297TIP3    H167382   1.415   1.943   0.563 -0.4846 -0.0238  0.3128
15297TIP3    H267383   1.398   1.793   0.547  0.8765 -0.2025  0.3978
15298TIP3   OH267384   4.668   6.648   5.831 -0.3691 -0.1992 -0.6274
15298TIP3    H167385   4.672   6.700   5.751 -1.1216 -0.0837 -0.6021
15298TIP3    H267386   4.750   6.599   5.833  0.0261  0.4473 -1.0212
15299TIP3   OH267387   5.575   6.435  12.444 -0.2813 -0.0424 -0.2706
15299TIP3    H167388   5.621   6.490  12.508  0.1008 -1.1980  0.4834
15299TIP3    H267389   5.584   6.483  12.362  1.0382  0.4681  0.1353
15300TIP3   OH267390   4.004   1.819   3.239 -0.5883  0.4342 -0.0786
15300TIP3    H167391   4.044   1.798   3.324 -0.9872  0.3304  0.0861
15300TIP3    H267392   3.912   1.795   3.249 -1.6847  4.3062  0.9040
15301TIP3   OH267393   0.220   1.523  13.536  0.4677  0.3093  0.4576
15301TIP3    H167394   0.250   1.482  13.455 -0.4130  0.7864 -0.1297
15301TIP3    H267395   0.288   1.587  13.558  0.7873  0.0641  0.1890
15302TIP3   OH267396   4.777   6.092  12.843  0.5935  0.2381  0.1219
15302TIP3    H167397   4.705   6.038  12.809  0.0819  1.6600 -1.1912
15302TIP3    H267398   4.777   6.075  12.937 -2.7741  1.5657  0.5227
15303TIP3   OH267399   1.733   3.402  11.491 -0.3852 -0.3096 -0.2884
15303TIP3    H167400   1.818   3.445  11.486 -0.1664 -0.5012  1.2594
15303TIP3    H267401   1.712   3.380  11.400  2.8521 -3.3699 -0.5487
15304TIP3   OH267402   5.386   2.346  14.100  0.3961  0.1727  0.1612
15304TIP3    H167403   5.422   2.259  14.118  2.7223  0.7965 -1.0581
15304TIP3    H267404   5.397   2.393  14.183  0.6012 -0.2328  0.3703
15305TIP3   OH267405   2.380   3.577  14.225  0.2713  0.1372 -0.0869
15305TIP3    H167406   2.327   3.532  14.291 -0.7508 -0.1948 -1.0940
15305TIP3    H267407   2.368   3.670  14.243  1.6553  0.0761  1.4353
15306TIP3   OH267408   1.681   6.525   4.896 -0.1353  0.3800  0.2661
15306TIP3    H167409   1.644   6.557   4.814 -0.3095 -0.0413  0.1750
15306TIP3    H267410   1.776   6.532   4.884  0.1068 -3.6293 -1.6886
15307TIP3   OH267411   4.187   2.456  12.733 -0.2725 -0.1515 -0.1526
15307TIP3    H167412   4.112   2.458  12.792 -0.6582 -0.9787 -0.5907
15307TIP3    H267413   4.241   2.531  12.759 -0.8574 -0.0079  0.6768
15308TIP3   OH267414   6.455   6.079  13.358  0.0923  0.3609  0.3656
15308TIP3    H167415   6.379   6.063  13.302  1.0400 -1.1079 -0.5766
15308TIP3    H267416   6.530   6.071  13.299  1.0499  0.4086  1.5407
15309TIP3   OH267417   1.398   0.406  11.221  0.0191 -0.5011  0.0112
15309TIP3    H167418   1.433   0.483  11.177 -1.8856 -0.3087 -1.2461
15309TIP3    H267419   1.411   0.334  11.159  0.9971 -1.0702  0.8298
15310TIP3   OH267420   2.070   4.274  10.590 -0.5159 -0.0778  0.0568
15310TIP3    H167421   2.075   4.179  10.602 -0.3501 -0.3520 -1.8748
15310TIP3    H267422   1.986   4.288  10.545 -0.4918  0.6794  0.2400
15311TIP3   OH267423   5.226   4.399  13.081  0.3773 -0.2383 -0.1935
15311TIP3    H167424   5.318   4.377  13.093  0.4144 -1.0760 -1.7660
15311TIP3    H267425   5.195   4.337  13.015 -0.9911  0.8442 -0.6092
15312TIP3   OH267426   0.959   4.558  16.992  0.1221 -0.1295  0.2643
15312TIP3    H167427   1.035   4.555  16.934  0.3953  1.2023  0.5334
15312TIP3    H267428   0.939   4.651  17.001  1.3735 -0.0449  3.9617
15313TIP3   OH267429   3.048   4.484  15.323  0.0340 -0.4331  0.1371
15313TIP3    H167430   3.014   4.561  15.277 -0.4723  0.1641  1.4600
15313TIP3    H267431   3.101   4.439  15.258 -1.5316 -0.2268 -1.3617
15314TIP3   OH267432   3.254   2.612   4.384  0.4076 -0.0865  0.3872
15314TIP3    H167433   3.230   2.593   4.293 -0.2483 -1.3621  0.8064
15314TIP3    H267434   3.185   2.571   4.436  0.0714  1.7276  1.4416
15315TIP3   OH267435   2.090   5.704   4.632 -0.0821  0.3460 -0.4479
15315TIP3    H167436   2.074   5.795   4.657 -0.8584  0.8150 -2.4535
15315TIP3    H267437   2.020   5.655   4.675  0.1833  0.7017  0.4289
15316TIP3   OH267438   5.967   2.258   0.052  0.5487  0.1979  0.7133
15316TIP3    H167439   5.931   2.323  -0.008  2.5340 -1.0111 -1.9902
15316TIP3    H267440   5.941   2.174   0.015  3.3681 -0.6303  0.3776
15317TIP3   OH267441   2.068   5.316  10.834 -0.1089 -0.5187 -0.4881
15317TIP3    H167442   2.048   5.252  10.765  0.9174  0.7306 -2.0321
15317TIP3    H267443   2.109   5.265  10.903  1.2629 -1.5068 -1.9365
15318TIP3   OH267444   2.398   5.152  13.283 -0.1592  0.2810 -0.2109
15318TIP3    H167445   2.343   5.229  13.292 -1.0509 -0.4581  1.0568
15318TIP3    H267446   2.446   5.165  13.202  0.3629  2.5550  0.4103
15319TIP3   OH267447   6.515   3.691  11.808  0.0652  0.2330 -1.0546
15319TIP3    H167448   6.455   3.626  11.773 -1.3566  0.3938  0.8913
15319TIP3    H267449   6.595   3.643  11.827 -0.5539 -0.6890 -0.7451
15320TIP3   OH267450   2.905   5.877  12.321  0.1296  0.0031 -0.2119
15320TIP3    H167451   2.975   5.920  12.371 -0.1542  2.7950 -1.9816
15320TIP3    H267452   2.951   5.836  12.247  0.0831  0.1361 -0.3142
15321TIP3   OH267453   2.551   1.187   3.682  0.3357  0.5442  0.4810
15321TIP3    H167454   2.644   1.177   3.661  0.3322 -0.3874  0.8701
15321TIP3    H267455   2.522   1.259   3.627  0.9596 -0.1017 -0.7369
15322TIP3   OH267456   1.941   5.310   1.539  0.5451  1.1365 -0.9406
15322TIP3    H167457   1.889   5.300   1.619 -1.2952 -0.0682 -2.2113
15322TIP3    H267458   1.923   5.231   1.489  5.2458 -0.4241 -0.6869
15323TIP3   OH267459   6.784   4.382  12.680  0.8593  0.2367  0.2369
15323TIP3    H167460   6.757   4.316  12.744 -0.1352  1.5845  1.2567
15323TIP3    H267461   6.719   4.377  12.611 -0.0483  1.0572  0.9926
15324TIP3   OH267462   4.479   0.710  11.988  0.0551  0.4239  0.3423
15324TIP3    H167463   4.428   0.764  12.049 -0.5917 -0.1399  0.3043
15324TIP3    H267464   4.491   0.767  11.911 -2.0898 -0.0417 -0.3973
15325TIP3   OH267465   3.411   5.826   2.592  0.0496  0.6367 -0.4729
15325TIP3    H167466   3.442   5.824   2.682  0.2008 -0.6572 -0.5223
15325TIP3    H267467   3.390   5.917   2.575  2.0753  1.2823  0.1699
15326TIP3   OH267468   3.079   2.379   0.007 -0.1600  0.4436 -0.2935
15326TIP3    H167469   3.106   2.470  -0.004  0.6851  0.1875 -0.4542
15326TIP3    H267470   3.152   2.338   0.055 -1.0008  0.0912  0.7446
15327TIP3   OH267471   0.750   0.229   3.704 -0.4759  0.3931 -0.3443
15327TIP3    H167472   0.673   0.202   3.756 -0.3902  1.4619  0.3652
15327TIP3    H267473   0.801   0.284   3.764  2.0148 -2.0212 -0.0375
15328TIP3   OH267474   2.634   6.494  12.476  0.1641  0.3559  0.3065
15328TIP3    H167475   2.607   6.509  12.386 -0.7235 -0.9629  0.3172
15328TIP3    H267476   2.571   6.430  12.509  0.9243  0.2564  1.6281
15329TIP3   OH267477   6.031   5.830  17.249 -0.2374  0.2723  0.0968
15329TIP3    H167478   6.116   5.817  17.292 -0.3289  1.1863  0.5931
15329TIP3    H267479   6.049   5.819  17.156 -0.0050 -1.6468  0.3128
15330TIP3   OH267480   1.899   4.530   0.956 -0.5924  0.1242 -0.7568
15330TIP3    H167481   1.833   4.487   0.901  0.4659 -0.6903 -1.4334
15330TIP3    H267482   1.978   4.477   0.943 -0.0478  0.5282  0.7544
15331TIP3   OH267483   2.980   6.428   6.080 -0.0390 -0.1223 -0.5257
15331TIP3    H167484   3.010   6.455   6.167  0.4790 -0.8242 -0.4827
15331TIP3    H267485   3.044   6.364   6.051 -2.1914 -2.7936  0.1832
15332TIP3   OH267486   5.388   0.808  14.885  0.2282 -0.8382  0.0694
15332TIP3    H167487   5.432   0.723  14.878 -1.0641 -1.4308 -1.6462
15332TIP3    H267488   5.304   0.788  14.927 -0.0682 -0.4383 -0.3153
15333TIP3   OH267489   4.262   6.583  15.074 -0.3249  0.4018  0.0151
15333TIP3    H167490   4.299   6.624  14.996 -1.3194  0.2989 -0.5280
15333TIP3    H267491   4.169   6.608  15.072 -0.6727 -0.8198  0.3586
15334TIP3   OH267492   6.360   5.633  12.015  0.3579  0.1064 -0.3397
15334TIP3    H167493   6.387   5.558  11.962  0.6105  0.8643 -1.3365
15334TIP3    H267494   6.266   5.640  12.000  0.0486 -0.8953  0.9596
15335TIP3   OH267495   0.819   0.192  14.711  0.1931 -0.1051  0.4983
15335TIP3    H167496   0.754   0.143  14.762  0.9529 -0.2839  1.3333
15335TIP3    H267497   0.886   0.127  14.690  0.6442  0.3211  0.6109
15336TIP3   OH267498   3.629   2.176  10.316  0.3004 -0.0155 -0.0056
15336TIP3    H167499   3.568   2.208  10.383  0.3959 -0.6560  0.3906
15336TIP3    H267500   3.613   2.082  10.311  1.9408 -0.3831  0.8373
15337TIP3   OH267501   2.036   0.728  12.233  0.4549  0.4523  0.1120
15337TIP3    H167502   1.954   0.778  12.225  1.3768  1.9142 -0.5698
15337TIP3    H267503   2.035   0.696  12.323 -1.8142 -1.3229 -0.4391
15338TIP3   OH267504   6.477   6.456   5.230  0.1161 -0.1487  0.1287
15338TIP3    H167505   6.551   6.501   5.189  0.1188 -0.1733  0.1067
15338TIP3    H267506   6.408   6.457   5.164 -0.5403  1.5160  0.7877
15339TIP3   OH267507   3.738   5.051   3.867 -0.2030 -0.5611  0.0272
15339TIP3    H167508   3.728   4.991   3.941  0.4515 -0.4147  0.2370
15339TIP3    H267509   3.660   5.106   3.869  0.9155  1.0935  2.1031
15340TIP3   OH267510   0.996   2.387  12.754  0.1540 -0.2934  0.3554
15340TIP3    H167511   1.000   2.399  12.849  1.3436  1.0286  0.1756
15340TIP3    H267512   0.984   2.476  12.719 -0.7034 -0.8100 -0.7220
15341TIP3   OH267513   4.084   3.638   6.059  0.3724 -1.1748 -0.1894
15341TIP3    H167514   4.137   3.580   6.113 -0.2423  0.2566  2.1030
15341TIP3    H267515   4.084   3.597   5.973  2.5692 -2.8528  0.5088
15342TIP3   OH267516   1.892   1.594  12.419 -0.3652  0.6563  0.2611
15342TIP3    H167517   1.981   1.597  12.383 -0.4849  3.0891  0.0138
15342TIP3    H267518   1.897   1.647  12.499 -0.8415 -2.0903  2.2621
15343TIP3   OH267519   3.122   2.308   2.581 -0.1007 -0.4006 -0.2938
15343TIP3    H167520   3.155   2.226   2.542  0.9749 -0.3485  0.4376
15343TIP3    H267521   3.055   2.279   2.643  0.6669 -0.8045  0.3766
15344TIP3   OH267522   0.766   6.224   3.827 -0.2942  0.0607 -0.5602
15344TIP3    H167523   0.859   6.228   3.850 -0.0990 -0.8506 -1.1622
15344TIP3    H267524   0.721   6.217   3.911  0.2286 -0.3055 -0.3056
15345TIP3   OH267525   4.287   4.419  12.558  0.1731  0.2062  0.5185
15345TIP3    H167526   4.311   4.451  12.645 -2.3493  0.7239  1.0823
15345TIP3    H267527   4.273   4.325  12.570  0.5371  0.1450  0.4857
15346TIP3   OH267528   0.104   0.550   5.852  0.0410  0.4393 -0.0554
15346TIP3    H167529   0.137   0.570   5.939  2.0350  0.8147 -0.8358
15346TIP3    H267530   0.052   0.471   5.864 -0.2916  0.8681  1.5761
15347TIP3   OH267531   6.048   0.387  17.052 -0.0964 -0.0921 -0.2316
15347TIP3    H167532   6.142   0.377  17.069 -0.2602  0.2916  0.9819
15347TIP3    H267533   6.038   0.478  17.026 -0.2858  0.1744  0.7627
15348TIP3   OH267534   2.284   4.415   0.286 -0.3193 -0.1380 -0.2921
15348TIP3    H167535   2.209   4.475   0.286 -0.3574 -0.1844  0.3955
15348TIP3    H267536   2.284   4.376   0.373  1.6628  1.2992  0.4091
15349TIP3   OH267537   1.967   0.981   4.574 -0.3807 -0.2659 -0.5670
15349TIP3    H167538   1.953   1.045   4.504  0.8921 -1.4144 -1.9472
15349TIP3    H267539   2.040   1.016   4.625 -1.3063  0.5704  0.2125
15350TIP3   OH267540   4.735   5.072  11.420 -0.8455 -0.0485  0.0494
15350TIP3    H167541   4.697   4.984  11.413 -1.3759  0.1996 -0.2670
15350TIP3    H267542   4.830   5.058  11.414 -0.9639 -0.5099 -1.0845
15351TIP3   OH267543   3.389   1.580   5.799 -0.2319 -0.2575  0.0791
15351TIP3    H167544   3.438   1.513   5.751  1.5082  1.4136 -0.6336
15351TIP3    H267545   3.347   1.533   5.871  0.0119 -2.2608 -1.0314
15352TIP3   OH267546   0.390   0.008   2.265  0.0960  0.2126 -0.9695
15352TIP3    H167547   0.430   0.084   2.224  1.6535 -0.3352 -0.5263
15352TIP3    H267548   0.448  -0.013   2.338 -1.2810 -0.3196  0.0117
15353TIP3   OH267549   4.930   3.911  14.639  0.8637  0.3950  0.7347
15353TIP3    H167550   4.886   3.826  14.646  0.5160  0.5452  0.4662
15353TIP3    H267551   4.863   3.975  14.665  0.9804  0.6148  0.5023
15354TIP3   OH267552   0.276   0.552  14.502 -0.1476  0.2622  1.0690
15354TIP3    H167553   0.328   0.611  14.448 -0.1958  1.2192  2.0503
15354TIP3    H267554   0.327   0.542  14.583 -1.0841  0.5295  1.6960
15355TIP3   OH267555   6.019   1.439  16.579  0.2757  0.1431 -0.4265
15355TIP3    H167556   6.054   1.376  16.641 -0.8440  0.9679  1.1157
15355TIP3    H267557   5.975   1.505  16.633  1.1141  2.0905 -1.9602
15356TIP3   OH267558   2.251   5.902  14.570  0.3740  0.1731 -0.2048
15356TIP3    H167559   2.248   5.970  14.502 -0.8400 -0.6725 -1.0287
15356TIP3    H267560   2.189   5.932  14.637  0.5374  0.3217 -0.1172
15357TIP3   OH267561   1.056   6.260   0.426 -0.6972 -0.6860  0.3224
15357TIP3    H167562   0.995   6.206   0.476 -0.4092 -0.0536  1.4023
15357TIP3    H267563   1.142   6.239   0.462 -0.4762 -0.2482  0.0598
15358TIP3   OH267564   0.352   5.117  11.450  0.5891 -0.5291 -0.1006
15358TIP3    H167565   0.344   5.165  11.368  0.7143 -0.3342  0.0004
15358TIP3    H267566   0.288   5.158  11.509  2.6437  1.4633  0.9135
15359TIP3   OH267567   6.281   1.874  14.874 -0.4569  0.5080 -0.4199
15359TIP3    H167568   6.253   1.796  14.825  1.9403  0.9063 -2.5825
15359TIP3    H267569   6.214   1.940  14.855 -1.0460 -0.1894 -0.8099
15360TIP3   OH267570   0.721   6.165  13.221 -0.3038 -0.4314 -0.6797
15360TIP3    H167571   0.717   6.261  13.220  2.2375 -0.2725 -1.5194
15360TIP3    H267572   0.680   6.138  13.139 -0.9086 -0.0585 -0.5030
15361TIP3   OH267573   5.321   4.097  16.199 -0.3535  0.4457 -0.0572
15361TIP3    H167574   5.307   4.065  16.110 -0.2902 -1.2015  0.4942
15361TIP3    H267575   5.414   4.122  16.200 -0.6176  1.5570 -0.7424
15362TIP3   OH267576   6.455   4.124  10.630 -0.4563  0.2191 -0.6312
15362TIP3    H167577   6.362   4.129  10.610 -0.9295  1.9328  1.5613
15362TIP3    H267578   6.459   4.105  10.723  1.4095 -0.1993 -0.7532
15363TIP3   OH267579   0.228   5.573   5.887  0.5298 -0.1101  0.1829
15363TIP3    H167580   0.171   5.597   5.960 -0.8643 -2.3446 -0.0600
15363TIP3    H267581   0.261   5.656   5.854  0.7240  1.0084  2.9327
15364TIP3   OH267582   5.761   0.710   0.830 -0.2737  0.0706 -0.0868
15364TIP3    H167583   5.784   0.717   0.923 -0.3702 -0.3035 -0.0344
15364TIP3    H267584   5.824   0.647   0.795 -0.0606  0.4178 -0.3365
15365TIP3   OH267585   6.571   3.880   2.830  0.2997  0.0722 -0.2788
15365TIP3    H167586   6.598   3.800   2.877  0.1323 -0.0135 -0.3253
15365TIP3    H267587   6.652   3.928   2.816  0.0685  1.6966  2.9756
15366TIP3   OH267588   0.367   4.685   0.574 -0.3907  0.1879 -0.5360
15366TIP3    H167589   0.325   4.771   0.575 -1.5199 -0.3028  1.6222
15366TIP3    H267590   0.416   4.681   0.657 -2.9408 -2.3272  1.0519
15367TIP3   OH267591   6.071   2.669   5.212  0.2389 -0.3109 -0.0502
15367TIP3    H167592   6.157   2.711   5.212  0.3319 -0.4938 -0.8572
15367TIP3    H267593   6.049   2.658   5.120 -0.5305 -0.5158  0.1510
15368TIP3   OH267594   6.261   3.632   4.547  0.2658 -0.3120  0.2319
15368TIP3    H167595   6.189   3.594   4.495 -1.2439  1.3307  1.0192
15368TIP3    H267596   6.253   3.726   4.533  1.4673 -0.0189  1.3862
15369TIP3   OH267597   6.735   1.621   4.644  0.1789  0.3602  0.1145
15369TIP3    H167598   6.670   1.552   4.652  0.2596  0.2865  0.1316
15369TIP3    H267599   6.818   1.575   4.630  0.3329  0.4327  0.7784
15370TIP3   OH267600   6.540   0.280   2.911 -0.1465 -0.0543 -0.1323
15370TIP3    H167601   6.567   0.348   2.849 -1.2444  1.0800  0.5737
15370TIP3    H267602   6.603   0.210   2.899  0.3402  0.6130 -1.7181
15371TIP3   OH267603   3.074   4.049  15.336  1.1351  0.1133 -0.4702
15371TIP3    H167604   3.030   4.108  15.276  3.6779 -0.0026 -2.5990
15371TIP3    H267605   3.003   3.995  15.372 -0.6758  1.2267 -2.1606
15372TIP3   OH267606   4.100   0.539  13.891 -0.4326  0.2023  0.2015
15372TIP3    H167607   4.133   0.497  13.970  0.8489 -0.9698 -0.9043
15372TIP3    H267608   4.030   0.481  13.860  0.7693 -0.7375 -0.8641
15373TIP3   OH267609   5.832   5.641  16.005  0.1883  0.0591 -0.3262
15373TIP3    H167610   5.798   5.551  16.001  1.2455 -0.2980 -2.2064
15373TIP3    H267611   5.775   5.691  15.946  0.0735  0.4732  0.1292
15374TIP3   OH267612   4.523   2.339  14.296 -0.0473 -0.6390 -0.1789
15374TIP3    H167613   4.533   2.246  14.279  2.1971 -0.2875 -1.0608
15374TIP3    H267614   4.549   2.382  14.215 -0.1236  0.7908  0.5172
15375TIP3   OH267615   3.768   4.684   2.813  0.1566  0.1354  0.0629
15375TIP3    H167616   3.804   4.739   2.744  0.1829 -0.0121 -0.0414
15375TIP3    H267617   3.793   4.595   2.788  1.6271  0.2116  1.1153
15376TIP3   OH267618   1.993   0.229  15.272  0.0696 -0.3780 -0.3683
15376TIP3    H167619   2.027   0.143  15.248  2.2367  0.0117  1.0764
15376TIP3    H267620   2.017   0.285  15.198  1.2774 -0.4218 -0.0236
15377TIP3   OH267621   5.853   4.950  12.582  0.5757  0.5548 -0.3220
15377TIP3    H167622   5.899   4.954  12.498 -0.1857  1.0609 -0.7218
15377TIP3    H267623   5.762   4.934  12.559  0.4991 -0.1811  0.4569
15378TIP3   OH267624   3.089   6.346   3.406  0.2981  0.5888 -0.1899
15378TIP3    H167625   3.026   6.322   3.338  1.3771 -1.6932 -0.4669
15378TIP3    H267626   3.150   6.404   3.361  0.1167  0.3527 -0.7608
15379TIP3   OH267627   5.166   2.610  12.313  0.0611 -1.1902  0.2648
15379TIP3    H167628   5.138   2.519  12.323 -0.6074 -0.9665  0.4587
15379TIP3    H267629   5.112   2.659  12.374  0.2343 -0.6197 -0.0285
15380TIP3   OH267630   4.167   5.944   2.895  0.0067 -0.1473 -0.2549
15380TIP3    H167631   4.207   5.862   2.867 -0.3040 -0.2913 -0.2823
15380TIP3    H267632   4.102   5.964   2.828  0.3990  0.3643 -0.4863
15381TIP3   OH267633   1.962   0.050  12.574  0.2797 -0.3798 -0.6106
15381TIP3    H167634   1.932   0.011  12.491 -0.7856 -1.1266  0.0993
15381TIP3    H267635   1.918  -0.001  12.642  1.9358 -0.4432  0.4607
15382TIP3   OH267636   6.224   4.703   6.080 -0.3111 -0.2492 -0.3948
15382TIP3    H167637   6.145   4.732   6.127  1.4831  2.0790  1.4455
15382TIP3    H267638   6.276   4.658   6.147  1.4313  1.3672 -0.5898
15383TIP3   OH267639   1.920   1.928  15.229 -0.2832  0.0968  0.1566
15383TIP3    H167640   2.011   1.932  15.255  0.5576  0.2103 -2.4948
15383TIP3    H267641   1.922   1.901  15.136 -2.8809  0.9823 -0.2558
15384TIP3   OH267642   0.421   3.880   1.658  0.1020 -0.5206 -0.1286
15384TIP3    H167643   0.338   3.833   1.663  0.0879 -0.5267 -0.3878
15384TIP3    H267644   0.460   3.851   1.575  0.5852 -0.8890  0.2196
15385TIP3   OH267645   4.837   3.539   0.687  0.1186  0.2497  0.4405
15385TIP3    H167646   4.792   3.533   0.603  0.3633  1.8632  0.1663
15385TIP3    H267647   4.921   3.580   0.667  0.6248 -0.3088  1.3324
15386TIP3   OH267648   5.002   1.391  16.052 -0.1803 -0.2316  0.0101
15386TIP3    H167649   5.008   1.341  16.133  2.2185  0.1213  0.1141
15386TIP3    H267650   5.070   1.355  15.996  0.2085  1.4950 -0.7007
15387TIP3   OH267651   1.893   6.784   1.839  0.9953 -0.8033  0.1457
15387TIP3    H167652   1.925   6.873   1.851  0.5686 -0.4059 -1.4239
15387TIP3    H267653   1.912   6.764   1.747 -2.3205 -0.9058 -0.6335
15388TIP3   OH267654   5.679   4.275  15.891  0.3200 -0.7282  0.4023
15388TIP3    H167655   5.763   4.241  15.921  0.8984  1.0723  0.9505
15388TIP3    H267656   5.676   4.254  15.798  1.0889 -1.3640  0.5192
15389TIP3   OH267657   6.137   1.220   4.427  0.0114  0.1344 -0.3313
15389TIP3    H167658   6.084   1.158   4.478  1.1398  0.8326  1.8070
15389TIP3    H267659   6.087   1.302   4.430 -0.0217  0.1212 -0.5305
15390TIP3   OH267660   2.921   5.975   3.149  0.6068 -0.0484  0.5800
15390TIP3    H167661   2.867   5.934   3.216 -0.7029  1.0203  0.2279
15390TIP3    H267662   3.009   5.977   3.187  0.0961 -0.4022  1.8312
15391TIP3   OH267663   1.443   3.698  15.195 -0.6926 -0.2794 -1.0536
15391TIP3    H167664   1.464   3.712  15.103  1.1545 -1.1223 -0.8032
15391TIP3    H267665   1.503   3.756  15.242 -1.5415  0.0519 -0.3648
15392TIP3   OH267666   3.667   1.040  16.817 -0.0282 -0.2203 -0.0285
15392TIP3    H167667   3.664   1.128  16.854  0.4461 -0.1361 -0.1889
15392TIP3    H267668   3.758   1.027  16.792 -0.0758 -0.7932  0.0763
15393TIP3   OH267669   5.185   1.907  12.530 -0.3439  0.1013 -0.1949
15393TIP3    H167670   5.214   1.985  12.484 -1.6502  0.4122 -0.5487
15393TIP3    H267671   5.265   1.866  12.563  0.4476  0.9054 -1.0890
15394TIP3   OH267672   3.931   5.363   6.070  0.1448  0.0681  0.0317
15394TIP3    H167673   3.856   5.377   6.127 -0.2085  1.0356 -0.6641
15394TIP3    H267674   3.962   5.450   6.048  1.4547 -0.3123  0.2655
15395TIP3   OH267675   5.754   0.319  12.965  0.0461 -0.1657  0.0719
15395TIP3    H167676   5.814   0.255  13.005 -1.8651 -1.0045  1.7991
15395TIP3    H267677   5.691   0.265  12.916  0.0624  0.6198 -0.8388
15396TIP3   OH267678   5.197   2.946   4.591 -0.0242 -0.1807 -0.2981
15396TIP3    H167679   5.152   2.866   4.620 -0.9674  0.2243 -0.6090
15396TIP3    H267680   5.230   2.986   4.671  1.0066 -1.1878 -0.1869
15397TIP3   OH267681   4.994   4.192   3.662 -0.0147 -0.6568  0.1132
15397TIP3    H167682   5.033   4.277   3.642  1.9468 -1.2880  0.9178
15397TIP3    H267683   4.904   4.211   3.689 -0.5041  0.8495 -2.3513
15398TIP3   OH267684   0.391   2.375  10.521 -0.1643 -0.3436 -0.3546
15398TIP3    H167685   0.460   2.390  10.586  0.4506 -3.8075  0.0189
15398TIP3    H267686   0.429   2.309  10.462 -2.9599 -2.0516 -0.4007
15399TIP3   OH267687   6.505   4.224   2.826 -0.5911 -0.2885 -0.3171
15399TIP3    H167688   6.449   4.213   2.903  0.1743 -1.6165  0.0855
15399TIP3    H267689   6.593   4.234   2.862 -0.4333  0.8057 -0.9731
15400TIP3   OH267690   0.009   0.788   0.335  0.4002 -0.6896  0.0251
15400TIP3    H167691   0.010   0.883   0.345  2.1744 -0.7030  0.1640
15400TIP3    H267692   0.079   0.769   0.272 -1.1159 -1.7902 -1.4542
15401TIP3   OH267693   3.543   2.573   6.343  0.4845  0.4137  0.1308
15401TIP3    H167694   3.631   2.597   6.373 -0.4967  2.5059  1.5522
15401TIP3    H267695   3.510   2.515   6.412  0.4802  0.1889 -0.0574
15402TIP3   OH267696   3.149   6.453   2.312 -0.2099 -0.1812  0.1071
15402TIP3    H167697   3.088   6.407   2.369 -0.2444 -0.9612 -0.5358
15402TIP3    H267698   3.169   6.535   2.358 -1.4274 -0.0921  0.4989
15403TIP3   OH267699   4.573   4.599  11.032 -0.3406  0.2321  0.0749
15403TIP3    H167700   4.500   4.542  11.007  1.0659 -1.7266  0.1190
15403TIP3    H267701   4.607   4.631  10.949  0.2422 -0.8953 -0.1505
15404TIP3   OH267702   2.174   3.071  14.695 -0.3081 -0.1523 -0.1791
15404TIP3    H167703   2.146   3.058  14.604  0.8283 -0.8411 -0.4496
15404TIP3    H267704   2.254   3.124  14.687 -0.2641 -0.1254  0.4262
15405TIP3   OH267705   4.776   3.599   4.988 -0.1146  0.1271  0.2223
15405TIP3    H167706   4.725   3.528   5.028  0.9483 -0.5899  0.3484
15405TIP3    H267707   4.852   3.555   4.949 -0.7898  0.8825 -2.0782
15406TIP3   OH267708   4.096   4.055  15.851  0.2108 -0.4833  0.0362
15406TIP3    H167709   4.132   3.989  15.910 -0.5106 -0.8228  0.1044
15406TIP3    H267710   4.173   4.096  15.810  0.7217 -0.1875  1.2556
15407TIP3   OH267711   4.146   1.494   5.744  0.5576 -0.0856 -0.0129
15407TIP3    H167712   4.146   1.526   5.834  1.0602  0.0633 -0.0594
15407TIP3    H267713   4.111   1.405   5.750  0.1409  0.0959  0.2607
15408TIP3   OH267714   4.227   0.366  12.478 -0.8724  0.4044  0.2209
15408TIP3    H167715   4.249   0.429  12.410 -1.5250 -1.7222 -2.1206
15408TIP3    H267716   4.132   0.374  12.488 -0.9218 -0.0229  0.1036
15409TIP3   OH267717   5.397   6.503   1.900  0.6748  0.1346  0.2628
15409TIP3    H167718   5.456   6.548   1.961  0.1638  1.6221 -0.2901
15409TIP3    H267719   5.444   6.504   1.817  0.7443 -0.5542  0.2917
15410TIP3   OH267720   6.357   0.068   2.900  0.4453 -0.2381  0.6185
15410TIP3    H167721   6.452   0.065   2.892  0.3133 -0.5461 -1.7230
15410TIP3    H267722   6.331   0.141   2.845 -0.6734 -0.0248  1.4087
15411TIP3   OH267723   1.841   0.638   3.899  0.4631  0.3237  0.0067
15411TIP3    H167724   1.812   0.697   3.830 -1.0224  1.8593  1.8295
15411TIP3    H267725   1.914   0.683   3.941 -1.8352  1.8977  2.5836
15412TIP3   OH267726   4.134   6.637  12.455  0.1494 -0.4042  0.6978
15412TIP3    H167727   4.142   6.732  12.445  1.5167 -0.4911  0.7844
15412TIP3    H267728   4.148   6.602  12.366 -0.0595 -0.5454  0.7182
15413TIP3   OH267729   2.757   3.121  14.923  0.1408  0.1331  0.2327
15413TIP3    H167730   2.689   3.057  14.903 -0.0186 -0.4758  2.4649
15413TIP3    H267731   2.838   3.071  14.923  0.7615  0.9275 -2.8046
15414TIP3   OH267732   2.509   4.510  15.247  0.1506 -0.3420  0.2021
15414TIP3    H167733   2.451   4.450  15.201  2.8269 -1.5608 -1.8942
15414TIP3    H267734   2.562   4.550  15.178 -0.5860  3.5517  1.6291
15415TIP3   OH267735   3.531   4.384   0.920 -0.0685  0.0091  0.2105
15415TIP3    H167736   3.603   4.438   0.952 -0.4550 -0.0690  1.2531
15415TIP3    H267737   3.452   4.425   0.956 -0.3197 -1.6850  1.7169
15416TIP3   OH267738   3.252   5.173  15.879 -0.1123  0.0475  0.2429
15416TIP3    H167739   3.320   5.234  15.850  0.8912 -2.0731 -2.4089
15416TIP3    H267740   3.286   5.087  15.854 -2.0446 -1.4926  2.5204
15417TIP3   OH267741   6.603   5.510  17.160  0.0356 -0.3814 -0.3936
15417TIP3    H167742   6.660   5.447  17.116  1.4217  0.5175  0.0322
15417TIP3    H267743   6.653   5.537  17.237 -2.3583 -1.9903  1.8844
15418TIP3   OH267744   5.456   3.382   5.146 -0.3467 -0.7742 -0.1807
15418TIP3    H167745   5.448   3.476   5.136 -0.2840 -0.8660 -1.2207
15418TIP3    H267746   5.469   3.368   5.240 -2.0259  0.1172  0.2162
15419TIP3   OH267747   2.462   3.060   0.471  0.1295 -0.2930 -0.1088
15419TIP3    H167748   2.426   3.128   0.414  1.6937  1.0090  0.3790
15419TIP3    H267749   2.481   2.987   0.413  0.4097  0.4987 -1.0385
15420TIP3   OH267750   2.623   2.121   4.536 -0.0742 -1.0270 -0.1002
15420TIP3    H167751   2.690   2.138   4.470 -0.6795 -0.8776 -0.6869
15420TIP3    H267752   2.663   2.057   4.595  0.9403 -0.2341  0.1166
15421TIP3   OH267753   6.724   4.484   3.135  0.6897  0.1776  0.1791
15421TIP3    H167754   6.806   4.460   3.092  0.8014 -0.0465  0.5163
15421TIP3    H267755   6.699   4.406   3.185  0.1942  0.1951 -0.0388
15422TIP3   OH267756   2.247   4.529  11.617 -0.4162  0.1656 -0.2106
15422TIP3    H167757   2.184   4.598  11.593 -0.9002 -0.9284 -2.3784
15422TIP3    H267758   2.227   4.509  11.708 -0.4316  2.6900  0.4218
15423TIP3   OH267759   1.980   2.122   3.147 -0.5843 -0.4252 -0.3941
15423TIP3    H167760   1.991   2.111   3.241 -0.1343 -2.2782 -0.6197
15423TIP3    H267761   1.891   2.156   3.137 -1.0002 -1.1335  0.6764
15424TIP3   OH267762   1.196   0.773   1.876  0.7432  0.2324  0.3376
15424TIP3    H167763   1.126   0.754   1.814 -0.7548  1.9547  1.4038
15424TIP3    H267764   1.275   0.778   1.823 -0.3987  1.1231 -1.3555
15425TIP3   OH267765   6.436   4.594  16.357 -0.5847 -0.3676  0.0555
15425TIP3    H167766   6.510   4.544  16.321  0.2404 -0.3443  1.6143
15425TIP3    H267767   6.435   4.675  16.307 -0.7031 -1.1146 -1.1899
15426TIP3   OH267768   3.466   3.141   2.778  0.6285  0.1041  0.1787
15426TIP3    H167769   3.416   3.219   2.803  0.1686  0.4936 -1.7693
15426TIP3    H267770   3.402   3.070   2.780  0.7759 -0.0205  0.8041
15427TIP3   OH267771   6.253   6.811  12.156 -0.4173  0.4354 -0.0076
15427TIP3    H167772   6.291   6.758  12.226  0.9896  0.0220 -1.0345
15427TIP3    H267773   6.238   6.896  12.196 -3.2065 -0.7896  1.8310
15428TIP3   OH267774   1.568   5.308  14.444  0.5625  0.0485  0.2985
15428TIP3    H167775   1.645   5.349  14.405 -0.3563  1.6821  0.1238
15428TIP3    H267776   1.528   5.259  14.372  0.1107  1.2151 -0.2745
15429TIP3   OH267777   0.740   2.896  16.665 -0.3102 -0.1066 -0.3076
15429TIP3    H167778   0.689   2.819  16.638 -0.3352  0.2704 -1.4124
15429TIP3    H267779   0.686   2.939  16.730 -1.0604 -0.1418 -0.8896
15430TIP3   OH267780   3.375   5.859   4.899 -0.6904 -0.6884 -0.1565
15430TIP3    H167781   3.314   5.933   4.899  0.1165  0.1297 -3.5049
15430TIP3    H267782   3.451   5.891   4.851  1.4483 -2.4585  1.7930
15431TIP3   OH267783   4.234   3.300  16.084  0.4119 -0.2019 -0.0179
15431TIP3    H167784   4.268   3.238  16.149 -0.7858 -0.6043  0.2610
15431TIP3    H267785   4.277   3.276  16.002  1.1975 -0.3260  0.4227
15432TIP3   OH267786   1.250   5.991   4.432 -0.6365 -0.3329 -0.0990
15432TIP3    H167787   1.299   5.971   4.512  1.1355  0.4580 -0.9332
15432TIP3    H267788   1.165   6.021   4.463 -0.7949 -2.1030  1.3952
15433TIP3   OH267789   1.434   0.539  12.673  0.1113  0.0245  0.7353
15433TIP3    H167790   1.473   0.618  12.711  1.0123  0.9914 -1.9872
15433TIP3    H267791   1.347   0.566  12.644  0.7261  0.3112 -0.9440
15434TIP3   OH267792   1.910   6.578  10.372 -0.2907 -0.4041 -0.4854
15434TIP3    H167793   1.929   6.620  10.455  1.8614  0.2701 -1.2497
15434TIP3    H267794   1.978   6.609  10.313 -1.3569 -1.3849 -2.3372
15435TIP3   OH267795   0.327   5.714  11.555  0.1860  0.8163 -0.2491
15435TIP3    H167796   0.415   5.688  11.585 -0.4273 -1.0790  0.0514
15435TIP3    H267797   0.270   5.643  11.584 -1.1301  0.9764 -2.2233
15436TIP3   OH267798   3.323   6.508  16.228  0.2383  0.7851 -0.3510
15436TIP3    H167799   3.367   6.586  16.262 -0.0663  1.2332 -0.9515
15436TIP3    H267800   3.360   6.435  16.277 -1.1146  1.5023  1.8966
15437TIP3   OH267801   6.304   1.924   3.041 -0.2416  0.4845 -0.4017
15437TIP3    H167802   6.392   1.893   3.022  0.0246  1.2223 -0.4113
15437TIP3    H267803   6.285   1.986   2.971 -1.6270 -1.2483 -1.6485
15438TIP3   OH267804   5.104   5.867  11.291  0.4110 -0.6385 -0.0597
15438TIP3    H167805   5.015   5.879  11.258  0.3834 -1.0815 -0.1484
15438TIP3    H267806   5.102   5.907  11.378  0.5393  0.7237 -0.6449
15439TIP3   OH267807   4.131   6.302   1.421 -0.3059 -0.4792 -0.1076
15439TIP3    H167808   4.195   6.335   1.484  0.3300 -2.3738  0.3058
15439TIP3    H267809   4.046   6.327   1.457  0.1033 -0.3606  0.7993
15440TIP3   OH267810   2.853   3.151   1.228 -0.6207 -0.1605  0.0025
15440TIP3    H167811   2.801   3.221   1.267 -2.9051 -1.1752 -1.0514
15440TIP3    H267812   2.828   3.073   1.277  1.5236 -0.4031  0.8369
15441TIP3   OH267813   6.401   1.226  16.626 -0.0006  0.2776  0.4403
15441TIP3    H167814   6.354   1.148  16.653 -0.8606 -0.2391 -2.2523
15441TIP3    H267815   6.460   1.197  16.556 -0.1787  1.9536 -0.4822
15442TIP3   OH267816   3.196   3.775  15.196 -0.2330 -0.0460  0.6382
15442TIP3    H167817   3.243   3.827  15.261 -0.5935  2.1919 -0.7915
15442TIP3    H267818   3.247   3.693  15.190 -0.1291 -0.2977  3.5533
15443TIP3   OH267819   4.769   1.314   6.632 -0.1190  0.2730 -0.3578
15443TIP3    H167820   4.860   1.284   6.638 -0.1184  0.0961 -1.0809
15443TIP3    H267821   4.717   1.242   6.667  0.0132  0.3023 -0.1038
15444TIP3   OH267822   1.877   6.096   0.611  0.0924 -0.3903  0.1670
15444TIP3    H167823   1.889   6.098   0.706  1.1426  0.0253  0.0438
15444TIP3    H267824   1.859   6.187   0.587  0.3021 -0.4129 -0.0818
15445TIP3   OH267825   0.884   0.484   0.784  0.2290  0.0921 -0.1823
15445TIP3    H167826   0.925   0.564   0.749 -0.2688  0.0712 -0.8313
15445TIP3    H267827   0.942   0.457   0.855  0.6930  0.7355 -0.3030
15446TIP3   OH267828   0.661   2.495   6.054  0.2725 -0.4619  0.4009
15446TIP3    H167829   0.583   2.446   6.081  0.2190 -1.6485 -1.6706
15446TIP3    H267830   0.723   2.427   6.027  1.6556  0.5074  1.0458
15447TIP3   OH267831   2.500   6.173   4.157  0.4981 -0.1641 -0.3350
15447TIP3    H167832   2.561   6.197   4.227  0.4829  0.4665 -0.5299
15447TIP3    H267833   2.416   6.210   4.185  0.3448 -0.4961 -0.3611
15448TIP3   OH267834   3.089   1.882  12.803  0.6134  0.0485  0.3818
15448TIP3    H167835   3.106   1.846  12.716  2.5203 -0.2202  0.8298
15448TIP3    H267836   3.004   1.846  12.828 -0.3104  0.6790 -1.6241
15449TIP3   OH267837   2.020   0.586   0.904  0.1968  0.0667  0.5495
15449TIP3    H167838   1.980   0.626   0.980 -1.3113  2.6619 -1.4350
15449TIP3    H267839   1.949   0.581   0.839  1.3574 -2.1636 -0.6830
15450TIP3   OH267840   3.275   6.349  15.707  0.7299  0.5630 -0.6006
15450TIP3    H167841   3.241   6.306  15.786  3.9635 -1.2492 -0.0080
15450TIP3    H267842   3.329   6.420  15.740  1.7540  0.0617 -1.1411
15451TIP3   OH267843   6.454   2.693   3.105 -0.2670 -0.1234  0.0520
15451TIP3    H167844   6.477   2.710   3.014 -0.7373  0.6568  0.0722
15451TIP3    H267845   6.358   2.692   3.106 -0.2650 -1.1542  0.3588
15452TIP3   OH267846   2.211   1.632   2.411 -0.0039  0.1795 -0.3478
15452TIP3    H167847   2.281   1.636   2.345 -0.7303 -1.1770 -1.2407
15452TIP3    H267848   2.136   1.675   2.370 -0.3338 -0.2830 -0.2294
15453TIP3   OH267849   0.389   2.660  11.813 -0.5856 -0.3070 -0.1725
15453TIP3    H167850   0.475   2.630  11.839 -0.4739  1.2603  1.4807
15453TIP3    H267851   0.350   2.586  11.767  1.3124 -1.3200 -0.2424
15454TIP3   OH267852   4.966   5.379  13.000  0.1730 -0.2447  0.6732
15454TIP3    H167853   4.884   5.403  12.957  0.3148  1.1312  1.1032
15454TIP3    H267854   5.030   5.441  12.964  0.7564 -0.5078  1.2413
15455TIP3   OH267855   2.784   1.312   4.809  0.0874 -0.0864  0.0431
15455TIP3    H167856   2.840   1.285   4.883 -0.4591  0.7860  0.7905
15455TIP3    H267857   2.843   1.361   4.752  0.6092 -1.0968 -0.3200
15456TIP3   OH267858   1.803   2.958  15.427  0.8400  0.0374 -0.2776
15456TIP3    H167859   1.769   3.047  15.424  1.0346  0.1027 -0.6158
15456TIP3    H267860   1.765   2.920  15.507  1.9602  0.9026  0.6998
15457TIP3   OH267861   4.044   2.960   0.360 -0.1176 -0.0486  0.4471
15457TIP3    H167862   4.026   3.051   0.384  1.7080  0.3199  0.5280
15457TIP3    H267863   4.139   2.952   0.365  0.0335 -1.1493 -2.4266
15458TIP3   OH267864   1.067   0.584   3.421  0.3678 -0.0716 -0.3890
15458TIP3    H167865   1.025   0.505   3.389  0.9466 -0.4575 -0.2157
15458TIP3    H267866   0.995   0.641   3.448 -0.0293 -0.8273  0.1584
15459TIP3   OH267867   0.428   5.375  16.714 -0.1723  0.1085 -0.1656
15459TIP3    H167868   0.446   5.350  16.805  1.7409 -1.4305 -0.9066
15459TIP3    H267869   0.513   5.400  16.678 -0.6557 -0.5170 -1.8624
15460TIP3   OH267870   4.009   6.672  15.115  0.1266  0.0780  0.8799
15460TIP3    H167871   3.949   6.670  15.040 -1.0673 -1.3814  1.8123
15460TIP3    H267872   4.002   6.761  15.149 -1.6853 -0.0920  1.0676
15461TIP3   OH267873   0.154   3.624   2.725 -0.4964 -0.0828 -0.0008
15461TIP3    H167874   0.096   3.692   2.760  0.5669  1.1187 -0.4855
15461TIP3    H267875   0.095   3.560   2.685 -1.5415  0.3454  0.8027
15462TIP3   OH267876   1.818   2.998   6.129 -0.2012  0.6062 -0.1223
15462TIP3    H167877   1.737   3.028   6.089  0.7408  1.9874 -1.0726
15462TIP3    H267878   1.800   2.907   6.154 -1.2414  0.0689 -2.5404
15463TIP3   OH267879   3.681   4.534   3.264 -0.0690 -0.0611  0.6552
15463TIP3    H167880   3.607   4.492   3.220 -1.1211  0.1551  2.1332
15463TIP3    H267881   3.651   4.623   3.280 -0.5587 -0.6672  3.5470
15464TIP3   OH267882   4.906   1.207  14.495  0.4942  0.0552 -0.2750
15464TIP3    H167883   4.983   1.156  14.518  1.0605 -0.2941 -2.7218
15464TIP3    H267884   4.848   1.145  14.452  0.2498  0.9883 -1.3375
15465TIP3   OH267885   5.747   3.159   2.049  0.4038  0.0289 -0.1143
15465TIP3    H167886   5.815   3.227   2.052  1.5416 -1.0010 -1.0994
15465TIP3    H267887   5.676   3.198   1.999  1.9903 -0.2156 -2.7847
15466TIP3   OH267888   5.905   0.281   0.669  0.2083 -0.4131  0.0768
15466TIP3    H167889   5.924   0.335   0.593  0.5509 -0.7925 -0.1061
15466TIP3    H267890   5.991   0.257   0.705  0.1091 -1.9572 -0.6349
15467TIP3   OH267891   1.033   0.978  11.471 -0.4500 -0.6901  0.0355
15467TIP3    H167892   1.049   0.998  11.563  1.1692  1.4636 -0.6443
15467TIP3    H267893   0.994   1.059  11.435  0.4998 -0.8712 -1.5119
15468TIP3   OH267894   3.196   2.227   2.303 -0.0536 -0.2058 -0.1034
15468TIP3    H167895   3.268   2.263   2.355  1.0622  0.0812 -1.7662
15468TIP3    H267896   3.174   2.145   2.346  1.2782 -0.2917  0.4623
15469TIP3   OH267897   0.454   1.026   3.149  0.1225 -0.4164  0.4684
15469TIP3    H167898   0.363   1.027   3.178 -0.1752 -1.1986 -0.4207
15469TIP3    H267899   0.461   1.100   3.089 -0.1425 -0.8677 -0.1172
15470TIP3   OH267900   3.815   4.216  12.174  0.3934  0.1087  0.1851
15470TIP3    H167901   3.877   4.214  12.102  1.8501  0.0151  1.3981
15470TIP3    H267902   3.855   4.273  12.240 -0.5412 -0.3718  1.2154
15471TIP3   OH267903   1.100   6.087  13.024  0.0249  0.0289  0.3141
15471TIP3    H167904   1.130   6.105  13.113  0.8705 -0.8101  0.2268
15471TIP3    H267905   1.121   6.166  12.975  0.6398  0.0655  0.6200
15472TIP3   OH267906   6.006   0.982  10.822  0.6759 -0.1063  0.7262
15472TIP3    H167907   6.073   0.958  10.886 -0.6600 -3.4422  1.0750
15472TIP3    H267908   5.984   0.899  10.778  0.9189  1.8387 -3.5364
15473TIP3   OH267909   4.893   6.231   5.303 -0.2702 -0.2431 -0.3395
15473TIP3    H167910   4.829   6.210   5.370  0.8628  0.6764  1.1092
15473TIP3    H267911   4.876   6.323   5.281  1.1812  0.3866  0.9103
15474TIP3   OH267912   4.423   2.381   3.562 -0.9325 -0.4110 -0.7057
15474TIP3    H167913   4.374   2.300   3.544 -1.2361  0.2254 -3.0656
15474TIP3    H267914   4.467   2.401   3.479  0.8422  0.7380  0.4425
15475TIP3   OH267915   4.238   0.014  12.074 -0.7960  0.0332  0.5071
15475TIP3    H167916   4.224  -0.074  12.109 -2.3356 -0.0368 -0.2275
15475TIP3    H267917   4.212   0.073  12.145  2.6546  0.0255  2.0012
15476TIP3   OH267918   2.512   4.682   0.027 -0.1196 -0.2769 -0.4547
15476TIP3    H167919   2.420   4.688   0.003 -0.4605 -0.8797  0.6385
15476TIP3    H267920   2.517   4.611   0.090  1.2793 -0.9591 -1.2731
15477TIP3   OH267921   1.049   3.750   0.881  0.2736 -0.0596  0.3386
15477TIP3    H167922   1.120   3.727   0.940 -0.4898  0.4325  1.4769
15477TIP3    H267923   1.056   3.845   0.870  0.6835 -0.2025 -0.7423
15478TIP3   OH267924   4.411   1.252  12.915 -0.3178 -0.1122  0.3876
15478TIP3    H167925   4.440   1.170  12.877 -1.3905  0.1892 -1.1751
15478TIP3    H267926   4.329   1.273  12.869  0.3927  2.2714  0.0495
15479TIP3   OH267927   5.302   6.086   2.067  0.2065  0.1537  0.4431
15479TIP3    H167928   5.371   6.137   2.110 -0.3686 -0.3546  2.0654
15479TIP3    H267929   5.221   6.120   2.105 -0.5543  1.1426 -1.8524
15480TIP3   OH267930   0.563   3.142  16.245 -0.0589 -0.3519  0.1126
15480TIP3    H167931   0.589   3.181  16.329  1.0802  0.5322 -0.6291
15480TIP3    H267932   0.605   3.197  16.179 -0.8962 -1.0709 -1.0468
15481TIP3   OH267933   2.551   0.675  15.108  0.2419  0.3560  0.0862
15481TIP3    H167934   2.567   0.613  15.037  2.6124  2.1744 -1.1246
15481TIP3    H267935   2.459   0.699  15.099 -0.5555 -2.3394  0.1597
15482TIP3   OH267936   6.385   6.555   3.825 -0.1881 -0.3771  0.5535
15482TIP3    H167937   6.423   6.614   3.890  1.3247  1.1669 -1.5928
15482TIP3    H267938   6.459   6.504   3.793 -0.9489 -1.2904  0.2070
15483TIP3   OH267939   4.253   3.554  16.212  0.0584  0.4731  0.0641
15483TIP3    H167940   4.336   3.588  16.177  0.7839  0.3623  1.5907
15483TIP3    H267941   4.236   3.475  16.160  1.1823  0.2105  0.0700
15484TIP3   OH267942   6.446   0.975   3.121  0.3264  0.4663 -0.8529
15484TIP3    H167943   6.438   1.055   3.069  0.1308  1.4814  0.6797
15484TIP3    H267944   6.509   0.998   3.190 -1.9032  0.2989  1.3669
15485TIP3   OH267945   2.038   0.560  13.393  0.0875 -0.2602  0.7223
15485TIP3    H167946   2.077   0.547  13.480 -0.3168 -0.4637  0.8738
15485TIP3    H267947   1.964   0.499  13.390 -0.4362  0.3744  0.5701
15486TIP3   OH267948   6.286   0.360   5.995  0.7418 -0.1069 -0.1367
15486TIP3    H167949   6.327   0.297   5.936  1.9949 -0.3303  0.9270
15486TIP3    H267950   6.245   0.306   6.063 -2.2551  0.0475 -1.6586
15487TIP3   OH267951   3.985   0.731   2.664  0.6953 -0.0488 -0.0357
15487TIP3    H167952   3.912   0.792   2.679  1.7478  0.6808  2.7396
15487TIP3    H267953   3.970   0.661   2.728  1.2052 -1.0887 -1.0415
15488TIP3   OH267954   4.695   1.478  12.676  0.5301  0.1195  0.2831
15488TIP3    H167955   4.618   1.421  12.684  0.6686 -0.2807 -0.9127
15488TIP3    H267956   4.725   1.464  12.586  0.7479  1.8807  0.0466
15489TIP3   OH267957   0.145   2.249   0.753 -0.2300  0.3494 -0.2273
15489TIP3    H167958   0.203   2.259   0.677  1.4885 -0.8028  0.8486
15489TIP3    H267959   0.179   2.310   0.818 -0.5693  0.0473  0.2431
15490TIP3   OH267960   6.420   4.708  11.751 -0.5825  0.2137  0.1483
15490TIP3    H167961   6.462   4.787  11.716 -0.3883  0.4544  0.9149
15490TIP3    H267962   6.469   4.636  11.712 -1.2140  0.4365 -1.1387
15491TIP3   OH267963   5.578   2.814   1.456 -0.0989  0.2805 -0.0045
15491TIP3    H167964   5.516   2.861   1.400  0.1917  1.1544  0.4012
15491TIP3    H267965   5.664   2.839   1.424  0.1079  1.6986  1.5058
15492TIP3   OH267966   0.751   3.799   6.015  0.2737  0.1363 -0.8586
15492TIP3    H167967   0.798   3.794   5.931  0.4623 -1.9452 -0.6746
15492TIP3    H267968   0.818   3.824   6.078  0.5597 -0.1788 -1.0307
15493TIP3   OH267969   2.168   3.408  11.206 -0.0668  0.1750 -0.0519
15493TIP3    H167970   2.234   3.452  11.260  0.1917  1.5811 -1.4502
15493TIP3    H267971   2.100   3.474  11.193 -1.2079 -0.8790  0.3880
15494TIP3   OH267972   2.757   6.671   0.392  0.2471  0.3980 -0.0013
15494TIP3    H167973   2.667   6.642   0.408 -0.1940 -0.0360 -2.7984
15494TIP3    H267974   2.751   6.766   0.383 -0.2507  0.2356 -1.6887
15495TIP3   OH267975   2.923   6.142  13.147  0.4760  0.0362 -0.0321
15495TIP3    H167976   2.833   6.144  13.117 -0.4391 -0.7781  2.3930
15495TIP3    H267977   2.935   6.055  13.184  2.4410 -0.0516 -0.7158
15496TIP3   OH267978   1.244   1.192  13.851  0.6779 -0.2178  0.0592
15496TIP3    H167979   1.249   1.219  13.943  0.4863 -0.8244  0.2466
15496TIP3    H267980   1.310   1.246  13.807  1.8044 -0.9501  0.8073
15497TIP3   OH267981   2.730   1.671  15.179 -0.5086  0.5609  0.5899
15497TIP3    H167982   2.643   1.646  15.149 -0.3369  0.1173  0.4629
15497TIP3    H267983   2.716   1.700  15.269 -0.9784  1.6231  0.2039
15498TIP3   OH267984   5.956   4.638   2.200  0.8848  0.7261 -0.1240
15498TIP3    H167985   6.010   4.605   2.127 -0.0377  0.0223 -0.5109
15498TIP3    H267986   5.960   4.733   2.192  1.4586  0.6644 -0.6055
15499TIP3   OH267987   4.502   2.422  10.185 -0.2318  0.2629  0.0403
15499TIP3    H167988   4.567   2.473  10.136 -0.2524  1.8907  1.6027
15499TIP3    H267989   4.451   2.378  10.118 -0.0370  2.1094 -1.3990
15500TIP3   OH267990   0.273   0.976   2.394  0.3642  0.1170  0.4132
15500TIP3    H167991   0.203   1.024   2.439  0.2928 -1.0984  1.6854
15500TIP3    H267992   0.338   0.959   2.462  0.8960 -0.6001 -0.2559
15501TIP3   OH267993   5.188   2.197  17.198  0.0120 -0.2686 -0.3733
15501TIP3    H167994   5.208   2.275  17.250 -1.2447  0.2875 -0.6781
15501TIP3    H267995   5.208   2.124  17.256  0.5309  0.2976  0.1710
15502TIP3   OH267996   3.606   6.248  11.672  0.3685 -0.2039  0.0238
15502TIP3    H167997   3.571   6.183  11.611  1.3902 -1.1666  0.4259
15502TIP3    H267998   3.701   6.235  11.669  0.5090  0.4581  1.0260
15503TIP3   OH267999   4.350   6.408   3.996  0.2688  0.1927  0.6370
15503TIP3    H168000   4.413   6.355   3.947 -0.2431  0.8851 -0.8229
15503TIP3    H268001   4.403   6.455   4.060  1.0546 -0.2137  0.3026
15504TIP3   OH268002   6.642   3.687   4.553 -0.0721 -0.0042 -0.2180
15504TIP3    H168003   6.600   3.602   4.559 -1.2306  0.2887 -2.8798
15504TIP3    H268004   6.613   3.734   4.631 -0.3564 -1.6128  0.6764
15505TIP3   OH268005   5.731   3.942   4.079  0.1672 -0.2826 -0.2040
15505TIP3    H168006   5.777   3.943   4.163  0.2780  0.7678 -0.2609
15505TIP3    H268007   5.651   3.891   4.097 -0.1548  0.5028  0.7438
15506TIP3   OH268008   4.173   3.699  13.502 -0.1764  0.1955 -0.4241
15506TIP3    H168009   4.117   3.629  13.468 -0.5496  0.3313 -0.0990
15506TIP3    H268010   4.116   3.775  13.507 -0.6557 -0.2513  2.1652
15507TIP3   OH268011   5.770   2.777   3.207  0.0219 -0.3630 -0.2636
15507TIP3    H168012   5.714   2.847   3.172 -1.7515 -1.3854  0.4221
15507TIP3    H268013   5.710   2.704   3.223  1.2260 -0.9117  2.1690
15508TIP3   OH268014   0.650   3.986   4.304 -0.1556  0.0792 -0.3645
15508TIP3    H168015   0.568   3.950   4.339 -0.5755  0.0417 -1.3369
15508TIP3    H268016   0.719   3.944   4.355 -0.7225 -0.4708 -0.0394
15509TIP3   OH268017   2.158   6.814   0.522 -0.3280 -0.0662 -0.4844
15509TIP3    H168018   2.246   6.821   0.560 -0.4633  1.0755 -0.3696
15509TIP3    H268019   2.171   6.759   0.445  0.2633 -0.9322  0.2028
15510TIP3   OH268020   4.684   4.325   0.705  0.2368  0.4784  0.0043
15510TIP3    H168021   4.739   4.317   0.627  1.5690  0.5336  0.9069
15510TIP3    H268022   4.615   4.386   0.680  0.6953  0.5676 -1.1013
15511TIP3   OH268023   2.948   5.751  13.743  0.5877 -0.2324  0.5536
15511TIP3    H168024   2.904   5.776  13.824  1.0442 -1.5336  1.2346
15511TIP3    H268025   3.035   5.791  13.750  0.3058  0.4533  0.2483
15512TIP3   OH268026   1.427   1.924  13.249 -0.8338  0.0593 -0.2222
15512TIP3    H168027   1.431   1.992  13.183 -1.3827 -0.0309 -0.3543
15512TIP3    H268028   1.432   1.842  13.200 -0.7811 -0.0019 -0.1144
15513TIP3   OH268029   2.331   2.975  13.700  1.0380 -0.9143 -0.9769
15513TIP3    H168030   2.261   3.009  13.644  0.3859 -0.2478  0.2118
15513TIP3    H268031   2.407   3.029  13.677  0.7238 -0.5092 -1.0860
15514TIP3   OH268032   0.020   2.984  16.944  0.5238 -0.3231 -0.1132
15514TIP3    H168033  -0.002   3.009  17.034  1.7462  0.9607 -0.1303
15514TIP3    H268034  -0.062   2.990  16.896  0.3794  1.8370  0.3301
15515TIP3   OH268035   4.716   0.905   5.071  0.4478  0.1414  0.3322
15515TIP3    H168036   4.620   0.902   5.074  0.1492  2.6218 -2.3446
15515TIP3    H268037   4.742   0.931   5.160 -1.2943 -0.7701  1.1593
15516TIP3   OH268038   6.684   1.446  13.349 -0.2365 -0.4639  0.0348
15516TIP3    H168039   6.738   1.392  13.292  0.5180 -0.1032  0.4002
15516TIP3    H268040   6.711   1.536  13.331 -0.3045 -0.3164  0.6369
15517TIP3   OH268041   2.030   3.380  11.706  0.1495 -0.2629 -0.0073
15517TIP3    H168042   2.082   3.337  11.773  0.1934 -0.6239 -0.2662
15517TIP3    H268043   1.941   3.352  11.723  0.4056 -2.1000 -1.3623
15518TIP3   OH268044   6.362   4.942   4.792 -0.1413  0.4192 -0.7229
15518TIP3    H168045   6.296   5.006   4.819 -1.0362  0.6693 -3.2163
15518TIP3    H268046   6.438   4.996   4.769  0.3070  0.2771  0.3731
15519TIP3   OH268047   1.202   4.427   1.083 -0.2338  0.2209  0.0180
15519TIP3    H168048   1.191   4.428   0.988 -0.3482  1.4951  0.0254
15519TIP3    H268049   1.287   4.385   1.096 -0.0506  0.3519 -0.6762
15520TIP3   OH268050   4.668   2.646   0.344 -0.7572 -0.2519  0.1563
15520TIP3    H168051   4.689   2.730   0.384  1.8162 -0.2968 -0.9370
15520TIP3    H268052   4.741   2.589   0.366 -2.7130 -2.4743  1.3813
15521TIP3   OH268053   5.087   6.122   2.867  0.1305 -0.0809 -0.6584
15521TIP3    H168054   5.171   6.078   2.861 -0.4071 -1.2493  0.1483
15521TIP3    H268055   5.083   6.156   2.957  0.1116  0.7635 -0.9658
15522TIP3   OH268056   2.156   6.404  16.364  0.2472 -0.0956 -0.0052
15522TIP3    H168057   2.129   6.404  16.456  0.6821  1.4109  0.1364
15522TIP3    H268058   2.169   6.311  16.344  1.3005 -0.3915  1.8071
15523TIP3   OH268059   5.240   2.181  11.517 -0.7681  0.0481  0.3309
15523TIP3    H168060   5.283   2.211  11.597 -1.0421  0.6337  0.2565
15523TIP3    H268061   5.207   2.260  11.476 -0.3978 -0.2227 -0.4993
15524TIP3   OH268062   2.990   0.065   0.062  0.1090 -0.1105 -0.4166
15524TIP3    H168063   2.989   0.156   0.034 -0.2462  0.4765  1.3816
15524TIP3    H268064   3.075   0.031   0.034  0.5593  0.9988 -0.4065
15525TIP3   OH268065   1.139   4.881   0.057 -0.3383 -0.4073  0.4060
15525TIP3    H168066   1.193   4.843  -0.013  1.5892  0.0812  1.5463
15525TIP3    H268067   1.083   4.809   0.085 -0.9310 -0.7050 -1.3916
15526TIP3   OH268068   4.287   1.757   6.110  0.2323  0.0186  0.6772
15526TIP3    H168069   4.204   1.718   6.083 -0.5837  1.2762  1.2611
15526TIP3    H268070   4.319   1.699   6.179 -0.3993 -0.2292  0.7715
15527TIP3   OH268071   1.039   2.597  11.877  0.3122  0.2665  0.7091
15527TIP3    H168072   0.964   2.609  11.819  1.6866 -1.1250 -1.4807
15527TIP3    H268073   1.068   2.686  11.898 -0.8962  0.8044  0.1885
15528TIP3   OH268074   0.214   4.597  12.868  0.0639 -0.3555  0.1394
15528TIP3    H168075   0.262   4.585  12.786 -1.6581  0.0512 -0.9937
15528TIP3    H268076   0.273   4.648  12.923  0.4662  1.2504 -1.6711
15529TIP3   OH268077   3.450   1.398  14.468 -0.0738  0.2966 -0.5528
15529TIP3    H168078   3.377   1.453  14.438 -1.4611 -0.5079  1.2047
15529TIP3    H268079   3.421   1.361  14.551  2.1420 -0.5046 -0.0448
15530TIP3   OH268080   1.024   1.351  13.386  0.8034  0.2684 -0.2041
15530TIP3    H168081   1.052   1.408  13.457  0.5235 -1.2799  1.1983
15530TIP3    H268082   1.097   1.290  13.373 -0.3023 -1.3905  0.9039
15531TIP3   OH268083   2.315   2.490   0.169  0.1422 -0.3639 -0.7625
15531TIP3    H168084   2.225   2.514   0.188  0.1909 -1.3290  0.8471
15531TIP3    H268085   2.351   2.566   0.122 -1.1575  0.4970 -0.4015
15532TIP3   OH268086   5.512   4.686  16.264 -0.4618  0.5679 -0.2620
15532TIP3    H168087   5.523   4.593  16.284  0.1720  0.3434 -1.5450
15532TIP3    H268088   5.588   4.708  16.211 -0.1555  2.0578  0.7405
15533TIP3   OH268089   2.119   1.267   2.646  0.2401  0.2814  0.2834
15533TIP3    H168090   2.039   1.217   2.662  0.9654 -0.3263  2.1851
15533TIP3    H268091   2.175   1.247   2.720  0.1472  4.8552  1.8447
15534TIP3   OH268092   0.288   5.671  11.902  0.4530 -0.5093 -0.6472
15534TIP3    H168093   0.220   5.735  11.879  1.1150  0.0975 -0.9871
15534TIP3    H268094   0.351   5.722  11.953  1.3584 -0.6920 -1.5409
15535TIP3   OH268095   0.220   5.200   2.273 -0.3474  0.5879 -0.4340
15535TIP3    H168096   0.247   5.139   2.205  0.5567  0.4203  0.0608
15535TIP3    H268097   0.145   5.246   2.236 -0.5943 -0.3221 -1.0827
15536TIP3   OH268098   5.673   4.882   0.825  0.2548 -0.2998 -0.4581
15536TIP3    H168099   5.721   4.964   0.814  2.2014 -0.8621  2.5341
15536TIP3    H268100   5.598   4.905   0.880  2.6659 -0.8615  3.4037
15537TIP3   OH268101   3.754   5.634  14.372  0.4039 -1.1859 -0.0695
15537TIP3    H168102   3.686   5.569  14.385 -0.4499 -0.2801  0.1333
15537TIP3    H268103   3.745   5.661  14.280  0.6740 -1.2717 -0.1217
15538TIP3   OH268104   0.170   6.482   5.826 -0.0348 -0.3438  0.5107
15538TIP3    H168105   0.155   6.453   5.736  1.0293 -1.0356  0.5321
15538TIP3    H268106   0.257   6.522   5.824  0.2454 -0.8777  1.3301
15539TIP3   OH268107   3.930   4.670  14.080  0.1766 -0.0277  0.0772
15539TIP3    H168108   3.858   4.629  14.127 -0.9946  0.8289 -0.9072
15539TIP3    H268109   4.008   4.646  14.130 -0.9139  0.1963  1.9878
15540TIP3   OH268110   3.111   2.143  16.367 -0.0931 -0.3985 -0.7485
15540TIP3    H168111   3.162   2.065  16.343  1.3900  0.6572 -1.1431
15540TIP3    H268112   3.173   2.198  16.415 -1.2350  0.3662 -0.1166
15541TIP3   OH268113   5.076   6.244  14.991 -0.9410  0.5461 -0.0889
15541TIP3    H168114   5.126   6.207  14.919 -0.3912  0.2016  0.4574
15541TIP3    H268115   5.100   6.190  15.067 -1.8549  0.6182  0.2548
15542TIP3   OH268116   1.103   2.883  14.683  0.4187  0.0757  0.4677
15542TIP3    H168117   1.034   2.948  14.692  0.3966  0.2455 -0.8273
15542TIP3    H268118   1.126   2.884  14.590  2.0059 -0.1382  0.8217
15543TIP3   OH268119   1.007   3.017  16.865 -0.5935  0.2329  0.1840
15543TIP3    H168120   0.926   3.013  16.915 -0.4767 -3.1655  0.3655
15543TIP3    H268121   1.067   2.958  16.912  2.0710  2.6470  0.0984
15544TIP3   OH268122   4.934   3.434   1.998 -0.1413 -0.1473  0.4044
15544TIP3    H168123   5.006   3.382   1.963 -0.8602 -1.0952  0.3211
15544TIP3    H268124   4.950   3.522   1.964  0.3034 -0.6087 -0.6241
15545TIP3   OH268125   3.528   5.472   0.697  0.5958 -0.5874 -0.1590
15545TIP3    H168126   3.462   5.501   0.761 -0.2588  0.9741 -1.6592
15545TIP3    H268127   3.522   5.377   0.699  1.7849 -0.7370  3.2500
15546TIP3   OH268128   3.801   2.028   3.891  0.4086 -0.0506  0.2234
15546TIP3    H168129   3.862   1.956   3.906  0.1608 -0.1207  0.9216
15546TIP3    H268130   3.849   2.106   3.920  0.1076 -0.1288  0.9617
15547TIP3   OH268131   6.073   2.019  15.668 -0.6491  0.3113  0.1766
15547TIP3    H168132   6.027   2.028  15.585 -0.0990  1.4907 -0.0146
15547TIP3    H268133   6.165   2.003  15.643 -0.9982 -3.0816  0.5270
15548TIP3   OH268134   2.360   3.133   5.227  0.4207 -0.0050  0.0605
15548TIP3    H168135   2.393   3.223   5.234 -1.1825  0.7886 -1.5670
15548TIP3    H268136   2.283   3.141   5.170  0.5941 -2.5232 -0.6146
15549TIP3   OH268137   4.653   6.018   3.842 -0.3463  0.2859  0.7111
15549TIP3    H168138   4.591   5.959   3.799  0.2868 -0.6681  1.0562
15549TIP3    H268139   4.620   6.026   3.932 -0.4084  0.4128  0.6761
15550TIP3   OH268140   1.033   0.570   1.421 -0.3921 -0.2105 -0.9025
15550TIP3    H168141   1.047   0.656   1.381 -0.9550  1.8487  2.8032
15550TIP3    H268142   0.946   0.544   1.391 -1.1387  1.6241 -0.5072
15551TIP3   OH268143   4.806   1.399  11.405 -0.7493  0.6070  0.2326
15551TIP3    H168144   4.848   1.362  11.483 -0.6595  0.4444  0.1084
15551TIP3    H268145   4.775   1.323  11.356  2.1610  0.4209 -1.5936
15552TIP3   OH268146   6.306   2.945  11.471  0.2810  0.0208 -0.5243
15552TIP3    H168147   6.395   2.962  11.440  0.5801 -2.2482 -1.0747
15552TIP3    H268148   6.283   3.023  11.520  2.2854  0.9959 -1.0227
15553TIP3   OH268149   4.352   4.912   3.053  0.4396  0.1654 -0.0097
15553TIP3    H168150   4.286   4.870   3.108  1.8941 -0.6468  1.1889
15553TIP3    H268151   4.429   4.856   3.061  1.1085  0.7579 -1.8524
15554TIP3   OH268152   0.813   1.159   2.611  0.5751 -0.1296 -0.1326
15554TIP3    H168153   0.720   1.150   2.590  0.7179 -0.7499 -0.5215
15554TIP3    H268154   0.851   1.074   2.589  1.4586  0.5199 -1.1919
15555TIP3   OH268155   2.427   3.120   1.149  0.3239  0.0257  0.3014
15555TIP3    H168156   2.369   3.130   1.074  1.4910  2.1416 -0.3817
15555TIP3    H268157   2.493   3.056   1.120  0.7686  0.8267 -0.5181
15556TIP3   OH268158   3.134   3.096  14.421  0.4506  0.0836 -0.2233
15556TIP3    H168159   3.098   3.086  14.509  0.9142 -0.5213 -0.0949
15556TIP3    H268160   3.229   3.087  14.432  0.7536  2.4722 -0.4451
15557TIP3   OH268161   5.206   3.412  16.525 -0.1664  0.4335 -0.1808
15557TIP3    H168162   5.252   3.467  16.588 -0.0016 -0.4558  0.4876
15557TIP3    H268163   5.162   3.345  16.578 -1.1018  0.4439 -0.9103
15558TIP3   OH268164   6.448   1.101   3.483  0.1182  0.9682 -0.3044
15558TIP3    H168165   6.539   1.104   3.456 -0.5858 -0.9894 -3.3806
15558TIP3    H268166   6.431   1.009   3.500 -1.3631  1.2526 -0.0758
15559TIP3   OH268167   5.834   4.258   3.312  0.0526  0.0076  0.0449
15559TIP3    H168168   5.749   4.277   3.272  0.2311 -0.9372 -0.8507
15559TIP3    H268169   5.821   4.272   3.405 -1.3073 -0.8358  0.0106
15560TIP3   OH268170   1.766   3.323   5.427 -0.1873 -0.1182 -0.1080
15560TIP3    H168171   1.773   3.403   5.480 -2.1030 -1.1030  1.7981
15560TIP3    H268172   1.680   3.331   5.385  0.3614 -0.4007 -1.2895
15561TIP3   OH268173   4.866   4.583   0.609 -0.2284 -0.5317 -0.1157
15561TIP3    H168174   4.890   4.495   0.638 -1.7633 -1.2132 -0.7797
15561TIP3    H268175   4.920   4.599   0.531 -1.4175 -1.7782 -1.2366
15562TIP3   OH268176   4.565   0.796   5.950 -0.0711 -0.5518  0.4336
15562TIP3    H168177   4.474   0.811   5.975  0.1002  2.3955 -0.2803
15562TIP3    H268178   4.615   0.815   6.029  0.0946  2.8378 -0.2920
15563TIP3   OH268179   3.136   0.987   3.055  0.0273 -0.6052 -0.1785
15563TIP3    H168180   3.062   1.041   3.081 -1.2066 -1.9690 -0.7255
15563TIP3    H268181   3.196   0.992   3.129 -0.1773  1.2299 -0.0903
15564TIP3   OH268182   6.616   2.594  12.537 -0.3252 -0.1840  0.1483
15564TIP3    H168183   6.552   2.586  12.466 -0.0292 -0.1420 -0.1253
15564TIP3    H268184   6.634   2.504  12.564 -0.8599 -0.1753  0.5553
15565TIP3   OH268185   6.658   0.957  16.793 -0.2772  0.0314  0.1447
15565TIP3    H168186   6.615   0.895  16.734 -0.7810  0.9972 -0.5323
15565TIP3    H268187   6.587   0.987  16.851 -0.1678  0.4118  0.0826
15566TIP3   OH268188   2.359   5.368   4.319 -0.1297 -0.0160 -0.5585
15566TIP3    H168189   2.313   5.434   4.371 -1.6992 -1.3602 -0.1495
15566TIP3    H268190   2.311   5.366   4.236 -0.6666 -1.2419 -0.2336
15567TIP3   OH268191   2.484   2.180  12.575  0.4483 -0.5270  0.0063
15567TIP3    H168192   2.441   2.251  12.622 -1.8443 -0.1111 -2.4896
15567TIP3    H268193   2.538   2.225  12.510  1.0269 -1.0866  0.0965
15568TIP3   OH268194   3.887   4.669   4.923  0.3161  0.6457  0.1940
15568TIP3    H168195   3.829   4.745   4.936  1.3807  1.6397 -0.6609
15568TIP3    H268196   3.890   4.658   4.828 -1.6624 -1.9774  0.3413
15569TIP3   OH268197   5.970   1.891   3.498  0.5389  0.3599 -0.7178
15569TIP3    H168198   5.999   1.855   3.582  2.4781 -1.6793 -2.1273
15569TIP3    H268199   5.902   1.830   3.469  0.0413  0.9220 -0.7326
15570TIP3   OH268200   4.854   5.605  14.113  1.1105  0.5924  0.1623
15570TIP3    H168201   4.899   5.660  14.049  0.6571 -0.5913 -1.2558
15570TIP3    H268202   4.768   5.588  14.074  0.8946 -0.3283  0.9864
15571TIP3   OH268203   3.114   2.697  14.603 -0.0900  0.0920 -0.4000
15571TIP3    H168204   3.183   2.717  14.667 -0.0408 -0.1318 -0.3799
15571TIP3    H268205   3.154   2.718  14.519  0.5210 -1.3606 -0.5063
15572TIP3   OH268206   5.756   4.324  12.273  0.4210  0.1667 -0.0392
15572TIP3    H168207   5.728   4.273  12.349 -2.9106  0.9640 -0.5841
15572TIP3    H268208   5.737   4.415  12.296 -1.2515  0.3729 -2.0013
15573TIP3   OH268209   5.352   4.550  11.797  0.2582  0.2571 -0.3074
15573TIP3    H168210   5.341   4.645  11.787  0.2666  0.2608 -0.2831
15573TIP3    H268211   5.411   4.526  11.726  0.2920  0.2777 -0.2870
15574TIP3   OH268212   6.185   4.277  14.839  0.1412 -0.0153  0.4103
15574TIP3    H168213   6.257   4.262  14.777 -0.1263  2.4704 -0.5959
15574TIP3    H268214   6.106   4.254  14.790  0.1314 -2.0729  1.2878
15575TIP3   OH268215   6.530   5.936   0.370 -0.1850  0.3906  0.1081
15575TIP3    H168216   6.563   5.847   0.359  0.6739  0.7814 -0.5587
15575TIP3    H268217   6.608   5.989   0.385 -0.7325  0.9712  0.9849
15576TIP3   OH268218   5.702   0.406   3.092 -0.0659 -0.1076  0.3237
15576TIP3    H168219   5.618   0.364   3.112 -0.2367 -0.0096 -0.1850
15576TIP3    H268220   5.679   0.494   3.062  0.2823  0.2805  1.1749
15577TIP3   OH268221   3.336   4.531   2.276 -0.0543  0.6639  0.3610
15577TIP3    H168222   3.321   4.626   2.281 -0.5472  0.6470 -0.5946
15577TIP3    H268223   3.365   4.507   2.364 -2.6715  1.2485  1.4795
15578TIP3   OH268224   6.814   2.484  13.494 -0.5022 -0.6437  0.0801
15578TIP3    H168225   6.896   2.445  13.524  0.1333 -0.4640 -1.3513
15578TIP3    H268226   6.759   2.408  13.472  0.4796 -0.8077 -2.0342
15579TIP3   OH268227   5.940   4.224   4.483 -0.1625 -0.5376  0.2458
15579TIP3    H168228   5.978   4.273   4.556  0.3893 -0.8426  0.1688
15579TIP3    H268229   5.996   4.147   4.474 -0.4502 -0.6921 -0.2552
15580TIP3   OH268230   5.665   3.400  15.244  0.2238 -0.3512 -0.1434
15580TIP3    H168231   5.716   3.324  15.270  0.2493 -0.3782 -0.2684
15580TIP3    H268232   5.601   3.365  15.182  1.2136 -0.0278 -1.3872
15581TIP3   OH268233   0.949   5.364  14.646  0.7561 -0.0386 -0.8579
15581TIP3    H168234   0.894   5.286  14.655  1.9711 -1.1525 -2.5015
15581TIP3    H268235   0.887   5.437  14.649 -0.6334 -1.1534 -1.0774
15582TIP3   OH268236   5.682   1.389  11.458 -0.1622 -0.5969 -0.6303
15582TIP3    H168237   5.762   1.411  11.410 -0.9769 -0.1664 -1.8333
15582TIP3    H268238   5.707   1.397  11.551  1.5942 -1.9639 -0.9284
15583TIP3   OH268239   2.220   5.441   1.852  0.1342 -0.1701 -0.0874
15583TIP3    H168240   2.243   5.367   1.796 -0.1399 -1.2331  1.1813
15583TIP3    H268241   2.124   5.438   1.857 -0.1078  1.7573 -1.9861
15584TIP3   OH268242   5.471   3.771  17.096  0.0661  0.2180  0.2398
15584TIP3    H168243   5.489   3.755  17.003 -1.6236 -0.1400 -0.0495
15584TIP3    H268244   5.432   3.858  17.097 -1.8791 -0.6097  0.3183
15585TIP3   OH268245   0.900   1.447  14.364  0.5792  0.0873 -0.5923
15585TIP3    H168246   0.903   1.360  14.326  1.3884  0.0714 -0.5066
15585TIP3    H268247   0.812   1.454  14.402 -0.7074  0.4890 -3.3566
15586TIP3   OH268248   3.661   5.387   2.540 -0.1044 -0.0407  0.2188
15586TIP3    H168249   3.685   5.451   2.472 -0.6221 -0.1552 -0.0771
15586TIP3    H268250   3.691   5.303   2.505 -0.2342 -0.0791  0.1992
15587TIP3   OH268251   2.635   6.308  14.034  0.2896 -0.6425  0.0645
15587TIP3    H168252   2.623   6.326  13.941 -1.6593 -0.5268  0.2876
15587TIP3    H268253   2.546   6.314  14.071  0.2044 -5.2800  1.1517
15588TIP3   OH268254   2.407   1.172   4.801  0.8308 -0.2734  0.2585
15588TIP3    H168255   2.314   1.157   4.819  0.6394 -0.0401 -0.4995
15588TIP3    H268256   2.441   1.210   4.881 -0.1186  1.2421 -0.0312
15589TIP3   OH268257   2.840   1.711  14.892 -0.0857  0.0830 -0.3207
15589TIP3    H168258   2.779   1.643  14.920 -0.4606  0.3771 -0.4175
15589TIP3    H268259   2.785   1.774  14.845 -0.2607  1.8745  2.0923
15590TIP3   OH268260   5.597   1.350  16.773 -0.1179 -0.0845 -0.1509
15590TIP3    H168261   5.668   1.324  16.715 -0.6126 -0.7787 -0.4567
15590TIP3    H268262   5.617   1.441  16.796  0.6272 -0.1316 -0.5825
15591TIP3   OH268263   6.618   4.301  13.936 -0.7330 -0.3161 -0.2589
15591TIP3    H168264   6.625   4.374  13.998 -0.7713 -0.3549 -0.2095
15591TIP3    H268265   6.693   4.312  13.878 -0.7181 -0.2582 -0.2285
15592TIP3   OH268266   6.289   0.698   4.520  0.0754  0.1737  0.2513
15592TIP3    H168267   6.358   0.632   4.517  0.9568  1.0900 -0.1781
15592TIP3    H268268   6.219   0.662   4.465  1.0564  0.1433 -1.0195
15593TIP3   OH268269   4.655   2.931   4.215 -0.1336 -0.2848 -0.6295
15593TIP3    H168270   4.592   2.998   4.242 -1.7325 -1.5471 -1.0842
15593TIP3    H268271   4.726   2.936   4.280 -2.1097 -0.8002  1.6968
15594TIP3   OH268272   4.179   2.602  15.942  0.1853 -0.0551 -0.5453
15594TIP3    H168273   4.239   2.565  15.878  0.2831 -1.6649  0.4407
15594TIP3    H268274   4.120   2.531  15.964 -0.0822  0.5696  0.8704
15595TIP3   OH268275   1.120   1.938   0.487 -0.3638 -0.6457  0.2039
15595TIP3    H168276   1.079   1.972   0.567  1.0705 -1.3127  1.2614
15595TIP3    H268277   1.214   1.937   0.507 -0.0810 -1.9357 -1.0768
15596TIP3   OH268278   1.074   1.418   3.466 -0.5121 -0.0469  0.2096
15596TIP3    H168279   1.132   1.368   3.523  1.1239  1.4655 -0.0286
15596TIP3    H268280   1.017   1.353   3.426  1.8241 -1.8065 -0.4688
15597TIP3   OH268281   6.187   5.328  17.238  0.2313 -0.0660  0.3049
15597TIP3    H168282   6.282   5.326  17.231  0.2325 -0.8471  0.4208
15597TIP3    H268283   6.168   5.405  17.292  0.6758  1.2502 -1.3345
15598TIP3   OH268284   1.848   1.406  16.103 -0.7228 -0.0176 -0.4638
15598TIP3    H168285   1.846   1.317  16.138  0.9396  0.1570  0.1921
15598TIP3    H268286   1.913   1.403  16.033 -0.6595  0.6589 -0.4427
15599TIP3   OH268287   4.960   0.874   3.811  0.8465 -0.2865  0.3102
15599TIP3    H168288   5.018   0.928   3.864  1.1108 -0.0068 -0.2489
15599TIP3    H268289   5.019   0.812   3.767  0.5161 -1.2352  1.1725
15600TIP3   OH268290   4.529   4.688   4.929  0.3581  0.1115 -0.2415
15600TIP3    H168291   4.534   4.707   5.023 -1.0063 -2.3618  0.4238
15600TIP3    H268292   4.476   4.759   4.893 -0.7669  0.0717  1.2432
15601TIP3   OH268293   2.385   6.770   4.639 -0.0821  0.0660 -0.3018
15601TIP3    H168294   2.389   6.683   4.678  1.0123 -0.0584 -0.6529
15601TIP3    H268295   2.294   6.797   4.650 -0.0323 -0.3573  1.4599
15602TIP3   OH268296   3.309   5.488   3.057 -0.0158  0.2493  0.4238
15602TIP3    H168297   3.312   5.394   3.038 -1.1966 -0.1126  1.8952
15602TIP3    H268298   3.254   5.524   2.987 -2.0452 -0.6457  1.4885
15603TIP3   OH268299   0.802   0.980  13.264 -0.7112 -0.0715  0.1814
15603TIP3    H168300   0.741   1.038  13.309 -0.3278  0.2837  0.2512
15603TIP3    H268301   0.886   0.995  13.307 -0.3439  0.2419 -0.6090
15604TIP3   OH268302   6.062   3.513  10.382  0.3468 -0.3201 -0.3116
15604TIP3    H168303   5.980   3.463  10.385  0.7921 -1.1066 -0.7305
15604TIP3    H268304   6.037   3.601  10.409 -0.2855 -0.9808  1.3931
15605TIP3   OH268305   1.794   5.375  14.293 -0.2677  0.4365  0.1802
15605TIP3    H168306   1.796   5.280  14.290  0.0758  0.4636 -0.6502
15605TIP3    H268307   1.831   5.397  14.379  0.0465 -0.1723  0.2061
15606TIP3   OH268308   3.934   0.288  11.979  0.1156  0.1723  0.7534
15606TIP3    H168309   3.932   0.305  11.885 -0.0208 -2.4359  0.2099
15606TIP3    H268310   3.940   0.375  12.019  1.3673  1.3054 -1.6765
15607TIP3   OH268311   6.501   1.365  14.365  0.0333  0.6997 -0.1333
15607TIP3    H168312   6.528   1.360  14.456  1.7253 -0.3407 -0.6376
15607TIP3    H268313   6.564   1.310  14.318 -1.1381  0.7343 -1.8541
15608TIP3   OH268314   6.285   6.130   4.248  0.1733  0.1459 -0.2027
15608TIP3    H168315   6.248   6.049   4.282  0.2932  0.6447  1.1627
15608TIP3    H268316   6.340   6.163   4.318 -0.5174  1.8351 -0.4106
15609TIP3   OH268317   0.299   0.812   1.040  0.7620  0.1653 -0.5573
15609TIP3    H168318   0.212   0.772   1.038  1.2642 -1.0711  0.7135
15609TIP3    H268319   0.283   0.904   1.020 -0.6038 -0.3540 -2.1771
15610TIP3   OH268320   3.598   0.900  13.944 -0.0781 -0.0916 -0.0686
15610TIP3    H168321   3.685   0.870  13.971 -0.1252 -1.7170 -1.5520
15610TIP3    H268322   3.606   0.996  13.942  1.1624 -0.1228  1.4029
15611TIP3   OH268323   5.723   1.727  11.403 -0.3329 -0.3260  0.3698
15611TIP3    H168324   5.789   1.670  11.443 -0.1808  1.3115  2.6662
15611TIP3    H268325   5.682   1.673  11.335  0.2052 -2.9380  1.9780
15612TIP3   OH268326   4.805   1.342   3.872 -0.5131  0.9265  0.3123
15612TIP3    H168327   4.763   1.301   3.796  1.3498 -3.6581  1.4187
15612TIP3    H268328   4.739   1.337   3.941 -0.3887 -0.1571  0.3712
15613TIP3   OH268329   5.885   2.491   1.966  0.4512 -0.2603 -0.8915
15613TIP3    H168330   5.881   2.421   1.901 -0.4961  0.0135 -1.1538
15613TIP3    H268331   5.975   2.522   1.963  0.7855 -1.2191 -1.0334
15614TIP3   OH268332   4.141   3.389   0.673  0.0235 -0.5464 -0.3753
15614TIP3    H168333   4.179   3.412   0.758 -0.7776  0.0606 -0.1709
15614TIP3    H268334   4.108   3.471   0.638  0.6276 -0.7266 -1.4393
15615TIP3   OH268335   2.337   2.322   5.519 -0.4982  0.3301  0.2253
15615TIP3    H168336   2.385   2.368   5.587  0.4627  0.1393 -0.3028
15615TIP3    H268337   2.289   2.391   5.473  2.0273  1.1017 -1.4591
15616TIP3   OH268338   0.938   1.780  12.657 -0.0073 -0.2373  0.5486
15616TIP3    H168339   0.979   1.713  12.713 -0.6030 -0.0528  1.2178
15616TIP3    H268340   0.851   1.746  12.639  0.1655 -0.2763 -0.2547
15617TIP3   OH268341   5.747   6.765  11.172  0.2265 -0.0793 -0.4746
15617TIP3    H168342   5.832   6.778  11.214 -0.3924  0.7419  0.5720
15617TIP3    H268343   5.743   6.671  11.153  0.8349 -0.3388  0.6209
15618TIP3   OH268344   5.291   6.598  16.219 -0.2726  0.3143  0.1356
15618TIP3    H168345   5.356   6.529  16.224  0.3247  0.9489  1.8755
15618TIP3    H268346   5.338   6.672  16.180 -1.2612 -0.5537 -2.9968
15619TIP3   OH268347   4.707   4.963  14.217 -0.1637  0.2508  0.4403
15619TIP3    H168348   4.672   5.000  14.136  0.0100  0.5403  0.4976
15619TIP3    H268349   4.769   5.029  14.249  0.5743 -0.3279  0.2438
15620TIP3   OH268350   2.176   0.088   5.604 -0.1537 -0.7072  0.2269
15620TIP3    H168351   2.200   0.025   5.537 -1.4781 -1.0780  0.0871
15620TIP3    H268352   2.083   0.073   5.621 -0.2514  0.5033  0.9424
15621TIP3   OH268353   3.073   1.942  11.792 -0.4072  0.1123  0.0758
15621TIP3    H168354   3.055   2.019  11.844 -1.4582  0.6066 -0.9882
15621TIP3    H268355   3.003   1.880  11.814 -0.0468 -0.2287  0.2937
15622TIP3   OH268356   2.169   6.109   2.470 -0.7452  0.2714 -1.0482
15622TIP3    H168357   2.124   6.040   2.518 -0.6112  1.0804  0.2915
15622TIP3    H268358   2.241   6.065   2.425 -0.1166 -0.3469  0.5099
15623TIP3   OH268359   0.482   0.362  16.305 -0.0109 -0.4916 -0.0664
15623TIP3    H168360   0.483   0.415  16.226 -1.2914 -1.0898 -0.5243
15623TIP3    H268361   0.404   0.307  16.296 -1.1819  0.5840  2.3764
15624TIP3   OH268362   0.303   4.068   6.507  0.3183  0.2151 -0.0702
15624TIP3    H168363   0.252   4.103   6.435  0.1862  1.0932  0.4352
15624TIP3    H268364   0.283   4.125   6.581  0.9441 -0.2759  0.4958
15625TIP3   OH268365   3.742   0.785  14.363  0.4532 -0.6268 -0.2646
15625TIP3    H168366   3.648   0.800  14.353  0.0089 -2.3060  0.9873
15625TIP3    H268367   3.783   0.864  14.326 -1.4642  0.5987  0.0982
15626TIP3   OH268368   2.869   6.697   2.825 -0.5702  0.5480  0.2023
15626TIP3    H168369   2.858   6.767   2.760 -0.8257 -0.0261 -0.3736
15626TIP3    H268370   2.779   6.673   2.850 -0.5411 -0.7074 -0.8242
15627TIP3   OH268371   6.646   5.673  12.658 -0.2197 -0.2685 -0.2546
15627TIP3    H168372   6.608   5.598  12.703 -0.5734 -1.7597 -2.8616
15627TIP3    H268373   6.602   5.676  12.573  1.0608  1.8117 -0.9350
15628TIP3   OH268374   3.418   3.014   6.048 -0.7616 -0.3935 -0.0599
15628TIP3    H168375   3.325   3.037   6.043 -0.4891  1.1423  1.1185
15628TIP3    H268376   3.435   3.002   6.141  0.4811  0.6430 -0.1156
15629TIP3   OH268377   6.506   0.654  10.557 -0.2040  0.3543 -0.1099
15629TIP3    H168378   6.450   0.718  10.600 -0.8689  0.3493 -0.9310
15629TIP3    H268379   6.555   0.705  10.492  0.8095  0.3711  0.6399
15630TIP3   OH268380   3.354   0.519  15.845 -0.0128  0.0515  0.6696
15630TIP3    H168381   3.309   0.588  15.893  0.1402 -0.2411  1.2526
15630TIP3    H268382   3.447   0.533  15.866 -0.1595 -1.9641  3.0743
15631TIP3   OH268383   1.274   3.090   5.595 -0.0741 -0.5372  0.7331
15631TIP3    H168384   1.206   3.026   5.578  0.5417 -0.4746 -2.5105
15631TIP3    H268385   1.240   3.172   5.560  0.1618  0.4005  2.5761
15632TIP3   OH268386   0.138   3.826   1.737  0.5909 -0.1657 -0.1862
15632TIP3    H168387   0.096   3.883   1.801  1.6532  0.3029  0.1035
15632TIP3    H268388   0.090   3.743   1.745  0.7024 -0.1132  1.2126
15633TIP3   OH268389   5.624   6.400  16.769  0.8107  0.3327 -0.7079
15633TIP3    H168390   5.706   6.351  16.768  0.3183 -0.5267 -1.4493
15633TIP3    H268391   5.559   6.337  16.800  0.6462  1.4229  1.3029
15634TIP3   OH268392   3.347   5.287   1.876  0.7670  0.0841 -0.1190
15634TIP3    H168393   3.351   5.248   1.964  2.9990  1.3755  0.4429
15634TIP3    H268394   3.428   5.257   1.834  0.4795  0.7375 -1.1581
15635TIP3   OH268395   6.561   6.450   2.012  0.6786  0.3692  0.1420
15635TIP3    H168396   6.492   6.425   1.951  1.5028 -2.4359  0.2248
15635TIP3    H268397   6.538   6.407   2.094  1.5913  0.8961  0.6924
15636TIP3   OH268398   1.989   4.221  16.993 -1.2936 -0.2297  0.3063
15636TIP3    H168399   2.069   4.273  16.994 -0.7631 -1.0078  1.2976
15636TIP3    H268400   1.985   4.183  17.081 -0.8717 -2.9815 -0.7466
15637TIP3   OH268401   2.180   4.363  13.278  0.3503 -0.1518 -0.3185
15637TIP3    H168402   2.109   4.382  13.217  1.1147  1.4416 -0.7782
15637TIP3    H268403   2.243   4.434  13.263  1.6692 -1.0931  0.6237
15638TIP3   OH268404   4.825   4.920   1.929  0.7977  0.2457  0.5393
15638TIP3    H168405   4.854   4.957   2.012 -1.8629  2.1484  0.7561
15638TIP3    H268406   4.784   4.993   1.883 -0.0696 -1.3155 -1.3337
15639TIP3   OH268407   1.762   1.452   2.733 -0.1201 -0.1016  0.5595
15639TIP3    H168408   1.820   1.385   2.698 -1.3521 -0.5960 -0.6289
15639TIP3    H268409   1.717   1.409   2.806  1.6500  0.5902  2.1505
15640TIP3   OH268410   2.962   3.816  10.714  0.0055  0.1752 -0.0033
15640TIP3    H168411   2.941   3.745  10.774  0.0410  1.2135  1.2862
15640TIP3    H268412   2.913   3.891  10.747  1.0834  1.1154 -0.4555
15641TIP3   OH268413   3.965   3.869  11.916 -0.3209 -0.8068  0.1091
15641TIP3    H168414   3.919   3.821  11.985 -0.8353  0.2938  0.5580
15641TIP3    H268415   3.896   3.920  11.872  0.0802 -1.1015 -0.8946
15642TIP3   OH268416   2.427   0.077   4.402 -0.2780 -0.1561  0.1108
15642TIP3    H168417   2.408   0.017   4.474 -1.2255 -0.1208 -0.0961
15642TIP3    H268418   2.448   0.160   4.446 -0.7469 -0.1627  0.3599
15643TIP3   OH268419   5.748   2.651  15.317 -0.2818 -0.1350  0.1852
15643TIP3    H168420   5.793   2.735  15.330 -2.2902  1.2115 -1.0763
15643TIP3    H268421   5.725   2.622  15.406 -1.0962  1.5533  0.5603
15644TIP3   OH268422   0.151   4.899  16.711  0.4741 -0.1215  0.2743
15644TIP3    H168423   0.146   4.992  16.735 -1.7069  0.6737 -2.6485
15644TIP3    H268424   0.069   4.862  16.744  0.7464 -0.6919  0.3151
15645TIP3   OH268425   4.114   4.816   0.607  0.5609  0.4772 -0.5089
15645TIP3    H168426   4.027   4.802   0.644  1.5264 -1.7246  1.2072
15645TIP3    H268427   4.107   4.783   0.518  0.3210 -2.8201  0.5868
15646TIP3   OH268428   2.411   6.374  14.162  0.0347  0.4209  0.6040
15646TIP3    H168429   2.326   6.417  14.152  0.4279  1.1580  0.3781
15646TIP3    H268430   2.456   6.423  14.230  0.5655  0.4932  0.2123
15647TIP3   OH268431   0.929   0.878  13.568 -0.0035 -0.1447  0.5701
15647TIP3    H168432   0.967   0.936  13.634  0.3604 -1.4088  1.5111
15647TIP3    H268433   0.973   0.901  13.486  0.2499  0.7702  0.9622
15648TIP3   OH268434   2.120   1.328   1.400  0.0113  0.4222  0.4028
15648TIP3    H168435   2.074   1.379   1.466 -3.0414 -1.0866 -0.3976
15648TIP3    H268436   2.087   1.361   1.317  2.0963  0.7450 -0.3530
15649TIP3   OH268437   4.285   3.552  11.246 -0.2134 -0.2926 -0.9182
15649TIP3    H168438   4.242   3.634  11.223  0.4391 -0.2741 -2.1592
15649TIP3    H268439   4.304   3.560  11.340  2.2097  2.1361 -1.4891
15650TIP3   OH268440   6.242   3.442   4.966 -1.0053 -0.0491 -0.4821
15650TIP3    H168441   6.192   3.506   4.916 -1.0457  0.3356  0.0434
15650TIP3    H268442   6.333   3.468   4.955 -0.9784 -0.2283 -0.7110
15651TIP3   OH268443   6.496   2.892  15.054 -0.3320 -0.2513  0.4917
15651TIP3    H168444   6.533   2.845  14.979  1.0641 -0.1628  1.0868
15651TIP3    H268445   6.482   2.982  15.022  2.3206  0.3814  0.8730
15652TIP3   OH268446   0.822   5.379  14.195 -0.0504  0.5399 -0.5656
15652TIP3    H168447   0.823   5.412  14.284  2.6959 -0.9307  0.0815
15652TIP3    H268448   0.914   5.381  14.167 -0.7968  0.8322 -3.3333
15653TIP3   OH268449   5.513   6.748  11.709 -0.0782  0.1919  0.0465
15653TIP3    H168450   5.507   6.837  11.744  2.2741  0.6791 -0.5671
15653TIP3    H268451   5.535   6.760  11.617  0.7997 -0.9914  0.0740
15654TIP3   OH268452   6.492   6.355   0.827 -0.2459 -0.0443 -0.2399
15654TIP3    H168453   6.472   6.271   0.786  0.0623 -1.2117  1.8709
15654TIP3    H268454   6.501   6.416   0.754 -0.8790 -1.7451 -1.8054
15655TIP3   OH268455   3.632   6.816  16.045 -0.2574  0.1327 -0.5402
15655TIP3    H168456   3.669   6.735  16.080  1.6206  0.7014 -1.0692
15655TIP3    H268457   3.653   6.883  16.111  0.7318  0.6664 -1.3545
15656TIP3   OH268458   1.338   4.782  15.922 -0.3512  0.2640  0.2319
15656TIP3    H168459   1.264   4.745  15.875  0.3856  0.0210 -0.7805
15656TIP3    H268460   1.315   4.874  15.935 -1.8076 -0.3092  1.9721
15657TIP3   OH268461   6.715   0.024   5.457 -0.3670  0.2566 -0.4767
15657TIP3    H168462   6.809   0.033   5.475 -0.2020 -0.8665 -0.7327
15657TIP3    H268463   6.699   0.085   5.385  0.4000 -0.3219 -1.1564
15658TIP3   OH268464   3.397   1.050   6.378  0.4143 -0.1854 -0.0278
15658TIP3    H168465   3.320   1.055   6.435  0.8213  1.2573  0.4524
15658TIP3    H268466   3.459   0.995   6.426 -0.2330 -1.1859 -0.3236
15659TIP3   OH268467   5.846   3.834  15.665 -0.0115  0.4740 -0.2062
15659TIP3    H168468   5.774   3.861  15.722 -0.0860 -0.5712  0.2142
15659TIP3    H268469   5.815   3.752  15.625  0.3274  0.8206 -1.2094
15660TIP3   OH268470   3.976   1.074   0.160  0.3691 -0.7421  0.3519
15660TIP3    H168471   3.913   1.026   0.213 -0.2387 -2.0045 -1.4282
15660TIP3    H268472   3.932   1.156   0.138  0.9289  0.1699  2.3509
15661TIP3   OH268473   0.185   0.247   2.185  0.1190 -0.0935 -0.2843
15661TIP3    H168474   0.273   0.283   2.175  0.7493 -1.0472  1.4337
15661TIP3    H268475   0.135   0.316   2.228 -0.1834  0.6639 -1.7623
15662TIP3   OH268476   2.281   0.548   6.903 -0.6185 -0.2440  0.1470
15662TIP3    H168477   2.229   0.469   6.890 -0.7399  0.0448 -1.2471
15662TIP3    H268478   2.364   0.516   6.938  0.2766 -1.3004 -2.7012
15663TIP3   OH268479   0.332   2.060   4.892  0.1694  0.6694 -0.0122
15663TIP3    H168480   0.325   2.084   4.984  1.9172  0.2478  0.2711
15663TIP3    H268481   0.400   1.993   4.890  0.0355  0.5433 -1.5991
15664TIP3   OH268482   1.111   0.261   3.027 -0.5164 -0.4361  0.0148
15664TIP3    H168483   1.193   0.299   3.057  0.1427 -0.5598 -1.5524
15664TIP3    H268484   1.044   0.325   3.054  0.1268 -0.1006  0.8679
15665TIP3   OH268485   6.690   6.680  16.948  0.5214  0.1537 -0.6057
15665TIP3    H168486   6.748   6.653  17.019  1.5951  0.1195 -1.4618
15665TIP3    H268487   6.618   6.618  16.950  0.7005 -0.0328  0.2500
15666TIP3   OH268488   6.438   1.910   0.419 -0.0083  0.8531  0.0685
15666TIP3    H168489   6.438   1.984   0.358  0.3081  0.5602 -0.2887
15666TIP3    H268490   6.435   1.832   0.363 -1.7179  0.5967  0.4616
15667TIP3   OH268491   5.274   1.170   3.805 -0.8502  0.1872  0.7779
15667TIP3    H168492   5.221   1.250   3.800  0.8246  1.2803 -0.8016
15667TIP3    H268493   5.248   1.119   3.729  1.6948  1.7321 -1.3279
15668TIP3   OH268494   6.817   4.090  15.077 -0.7063  0.5538  0.4551
15668TIP3    H168495   6.815   4.183  15.102 -1.8930  0.7339 -0.2284
15668TIP3    H268496   6.858   4.046  15.151  1.5315  1.8301  0.0630
15669TIP3   OH268497   6.402   1.923  13.726 -0.1403  0.7184  0.4034
15669TIP3    H168498   6.437   1.937  13.638 -2.0473 -0.8080 -0.6889
15669TIP3    H268499   6.478   1.901  13.779  0.7152 -2.3648 -1.8185
15670TIP3   OH268500   6.685   0.458   6.555  0.2252 -0.0302 -0.1885
15670TIP3    H168501   6.633   0.532   6.586  0.8637  0.9912 -1.4362
15670TIP3    H268502   6.773   0.477   6.585  0.6883  0.5477 -1.8100
15671TIP3   OH268503   1.227   3.031   1.717 -0.2654  0.1715 -0.3413
15671TIP3    H168504   1.239   3.057   1.808  0.1722  2.5069 -0.9962
15671TIP3    H268505   1.292   2.961   1.704  0.7921  0.9133  0.7190
15672TIP3   OH268506   0.266   4.262  15.438 -0.4623 -0.5470 -0.1563
15672TIP3    H168507   0.347   4.226  15.475 -0.8029 -0.9242  0.2289
15672TIP3    H268508   0.266   4.354  15.466  1.1375  0.2281 -2.3589
15673TIP3   OH268509   5.447   2.848  12.887  0.2096 -0.4451  0.1233
15673TIP3    H168510   5.539   2.857  12.910  0.0493 -1.3003  1.2244
15673TIP3    H268511   5.402   2.913  12.940 -0.0432 -1.6395  1.4316
15674TIP3   OH268512   5.149   2.987   0.342  0.8676  0.2384 -0.3451
15674TIP3    H168513   5.153   2.891   0.345  0.2701  0.2181 -0.1375
15674TIP3    H268514   5.129   3.007   0.250  1.0807  0.1694 -0.4075
15675TIP3   OH268515   6.585   3.734   1.489  0.3874 -0.4681 -0.0211
15675TIP3    H168516   6.603   3.811   1.436  0.8300  0.0322  0.8337
15675TIP3    H268517   6.615   3.660   1.436 -0.5091 -0.1112 -1.0645
15676TIP3   OH268518   3.079   2.628   5.577 -0.1331  0.3967 -0.2126
15676TIP3    H168519   2.998   2.578   5.591  0.1626  0.3419  1.4803
15676TIP3    H268520   3.050   2.706   5.529 -1.5696  1.2836  1.9205
15677TIP3   OH268521   1.685   0.620  12.507  0.1083  0.4056  0.1018
15677TIP3    H168522   1.671   0.714  12.500 -0.8475  0.2679 -0.0245
15677TIP3    H268523   1.597   0.582  12.501  0.5094 -0.5168 -0.1880
15678TIP3   OH268524   1.177   3.461  16.229  0.0067  0.2054 -0.2257
15678TIP3    H168525   1.156   3.389  16.170  1.6740  0.2292 -0.8915
15678TIP3    H268526   1.225   3.523  16.175  3.0242 -0.5003  1.4380
15679TIP3   OH268527   5.983   2.054   4.634  0.5233  0.4477 -0.3241
15679TIP3    H168528   6.074   2.026   4.625  0.1924 -0.0727 -2.5881
15679TIP3    H268529   5.986   2.125   4.699  2.2939 -0.5345  0.7386
15680TIP3   OH268530   5.912   2.933   4.753  0.6709 -0.5096  0.3193
15680TIP3    H168531   5.895   2.840   4.762  0.7829 -0.9740 -2.9344
15680TIP3    H268532   6.007   2.942   4.760  0.8136 -0.9214 -0.8385
15681TIP3   OH268533   1.000   5.365  11.557  0.1927  0.0427  0.3717
15681TIP3    H168534   0.925   5.424  11.546  0.7562  0.9279  1.1337
15681TIP3    H268535   1.076   5.419  11.541  0.6899 -0.8780 -0.4933
15682TIP3   OH268536   3.259   4.522   3.979 -0.0312 -0.0706  0.2094
15682TIP3    H168537   3.195   4.495   3.913 -1.4159  1.1389  1.0149
15682TIP3    H268538   3.262   4.617   3.973 -0.2846  0.0823  1.9708
15683TIP3   OH268539   1.667   1.451  12.464  0.0655  0.4015 -0.6398
15683TIP3    H168540   1.753   1.474  12.429  0.0371 -0.9127 -1.6772
15683TIP3    H268541   1.686   1.391  12.536  0.0826  2.2554  0.9669
15684TIP3   OH268542   5.777   5.131   3.098 -0.2134 -0.8079  0.2290
15684TIP3    H168543   5.762   5.043   3.132 -0.9606 -1.7085 -2.1744
15684TIP3    H268544   5.757   5.124   3.005 -0.8078  2.0450  0.0456
15685TIP3   OH268545   3.403   2.985  10.432 -0.2986  0.0329  0.0053
15685TIP3    H168546   3.456   3.041  10.489  1.0702 -0.3686 -0.8104
15685TIP3    H268547   3.440   2.998  10.345 -0.3625 -1.6298 -0.3039
15686TIP3   OH268548   0.556   6.206  15.735 -0.0022  0.2186 -0.0979
15686TIP3    H168549   0.513   6.278  15.689 -0.4959  0.7253  1.1051
15686TIP3    H268550   0.523   6.211  15.824  2.4015  0.4964  0.8525
15687TIP3   OH268551   4.949   6.705   1.659 -0.1629 -0.8891  0.3921
15687TIP3    H168552   5.040   6.676   1.646 -0.4326 -2.0513  0.9460
15687TIP3    H268553   4.956   6.799   1.673  0.7834 -0.6821 -1.2593
15688TIP3   OH268554   5.409   0.555  15.053  0.2731  0.0794  0.1549
15688TIP3    H168555   5.316   0.568  15.030 -0.8933 -2.2409  2.9550
15688TIP3    H268556   5.452   0.538  14.969 -2.0929 -0.1549 -1.0984
15689TIP3   OH268557   3.024   2.276  13.792 -0.4091 -0.2128  0.3135
15689TIP3    H168558   2.946   2.310  13.750  0.3643  2.1971  0.6645
15689TIP3    H268559   3.086   2.262  13.720  0.1338  1.6895  0.3712
15690TIP3   OH268560   4.549   3.424  16.082  0.4484 -0.2565 -0.1200
15690TIP3    H168561   4.524   3.515  16.098 -1.2028 -0.7601  0.3712
15690TIP3    H268562   4.542   3.414  15.987 -0.7965 -0.2324 -0.0489
15691TIP3   OH268563   5.622   5.921  13.167  0.3937 -0.0229 -0.5722
15691TIP3    H168564   5.697   5.862  13.162 -0.4575 -1.4103  1.5357
15691TIP3    H268565   5.547   5.866  13.142 -0.1640  0.7774 -0.7009
15692TIP3   OH268566   4.275   5.251  15.517  0.5093  0.0766 -0.2045
15692TIP3    H168567   4.219   5.270  15.592 -0.5681  1.9670 -1.3963
15692TIP3    H268568   4.240   5.170  15.481 -0.5656  0.4550 -0.0682
15693TIP3   OH268569   1.280   5.321   0.448  0.3518  0.5346  0.0148
15693TIP3    H168570   1.215   5.265   0.492 -0.7453  1.4117 -0.4171
15693TIP3    H268571   1.360   5.311   0.499 -0.5943  0.6984  1.6037
15694TIP3   OH268572   0.677   1.661  17.112  0.1296  0.4276  0.1170
15694TIP3    H168573   0.656   1.719  17.039 -1.4580 -1.4481 -1.0102
15694TIP3    H268574   0.763   1.624  17.090  1.4726  2.7043  1.1686
15695TIP3   OH268575   4.366   6.338   0.104  0.1393 -0.2211 -0.2049
15695TIP3    H168576   4.356   6.409   0.041 -0.3569 -1.3491 -1.4263
15695TIP3    H268577   4.320   6.264   0.066 -0.5143 -0.8499  1.6655
15696TIP3   OH268578   5.572   4.426   4.593 -0.7204 -0.3370 -0.0609
15696TIP3    H168579   5.634   4.414   4.665  0.4481 -1.0406 -1.1367
15696TIP3    H268580   5.488   4.441   4.636  0.5593  3.7186  1.5943
15697TIP3   OH268581   3.668   3.799   5.238 -0.0920 -0.8250  0.2091
15697TIP3    H168582   3.620   3.723   5.271 -0.2246 -1.3409 -1.1221
15697TIP3    H268583   3.739   3.762   5.185 -0.8629 -0.0309 -1.4292
15698TIP3   OH268584   4.845   0.743   0.220  0.2278 -0.3251  0.3756
15698TIP3    H168585   4.888   0.659   0.207  0.4036 -0.1904  0.0543
15698TIP3    H268586   4.769   0.740   0.162  0.9414  0.2300 -0.6164
15699TIP3   OH268587   5.536   6.318  13.146  0.4868 -0.1289 -0.1146
15699TIP3    H168588   5.609   6.283  13.094  0.3294  1.2349 -1.3064
15699TIP3    H268589   5.560   6.409  13.163  1.0506 -0.7611  3.2068
15700TIP3   OH268590   4.481   1.932  17.155  0.3986  0.0887  0.9383
15700TIP3    H168591   4.486   1.976  17.070 -1.4012  1.1189  1.3196
15700TIP3    H268592   4.546   1.976  17.210 -0.5503  1.5048  0.9610
15701TIP3   OH268593   1.790   6.694  12.701  0.0244  0.2891  0.2617
15701TIP3    H168594   1.770   6.636  12.627  1.4717 -0.6829  0.5838
15701TIP3    H268595   1.865   6.653  12.743 -0.8959  0.7079  2.4241
15702TIP3   OH268596   2.240   3.743   5.509 -0.2445  0.5996 -0.3346
15702TIP3    H168597   2.280   3.816   5.461 -0.4218  1.7753  1.2092
15702TIP3    H268598   2.235   3.672   5.446  1.7955  1.2824 -1.3561
15703TIP3   OH268599   5.013   0.826  15.353  1.0233  0.3148 -0.3017
15703TIP3    H168600   4.930   0.871  15.369 -0.2098 -1.2570 -1.7693
15703TIP3    H268601   5.053   0.873  15.281  0.2444 -0.2775 -1.1407
15704TIP3   OH268602   2.964   3.788   3.690 -0.1936  0.3645  0.4131
15704TIP3    H168603   2.903   3.759   3.623  0.8401 -0.8266 -0.0509
15704TIP3    H268604   2.993   3.707   3.733  0.8256  0.9176  0.8177
15705TIP3   OH268605   6.530   3.105   3.744  0.0765  0.0182 -0.2278
15705TIP3    H168606   6.482   3.049   3.804 -0.7998 -1.8804 -2.5197
15705TIP3    H268607   6.608   3.132   3.792 -0.3017 -1.8358  1.5296
15706TIP3   OH268608   5.978   4.080  13.924 -0.0755  0.1108  0.3095
15706TIP3    H168609   6.030   4.094  13.845  0.4891  1.3612  0.8818
15706TIP3    H268610   5.930   4.162  13.937 -0.8847 -0.4160  0.7440
15707TIP3   OH268611   3.647   3.063  12.231 -0.4571  0.1021  0.7301
15707TIP3    H168612   3.555   3.055  12.258 -1.3034  1.2164 -1.5525
15707TIP3    H268613   3.672   2.974  12.207 -1.7812  0.1539 -1.0060
15708TIP3   OH268614   1.147   1.719  13.365 -0.0579  0.1666  0.2962
15708TIP3    H168615   1.175   1.797  13.412  1.3938 -0.4697  0.5386
15708TIP3    H268616   1.143   1.651  13.432 -2.9171  0.3468  0.4021
15709TIP3   OH268617   4.028   2.592  11.939 -0.0239 -0.5918 -0.4174
15709TIP3    H168618   4.054   2.541  12.016  1.2038 -0.6145 -0.8320
15709TIP3    H268619   4.110   2.618  11.898 -0.6578 -0.0613 -1.3941
15710TIP3   OH268620   2.939   1.335  17.052  0.0684 -0.6348 -0.3221
15710TIP3    H168621   2.851   1.339  17.015 -0.3673 -1.8706  0.5212
15710TIP3    H268622   2.991   1.290  16.986 -0.3006 -1.2935 -0.1629
15711TIP3   OH268623   4.306   4.562   4.135 -0.3189 -0.2735  0.8122
15711TIP3    H168624   4.280   4.485   4.084 -0.4316  0.5187 -0.3673
15711TIP3    H268625   4.402   4.559   4.134 -0.2484  0.7759 -1.1782
15712TIP3   OH268626   2.910   2.025   1.184  0.5290 -0.2559 -0.2238
15712TIP3    H168627   2.838   2.078   1.147  1.0069  0.3316 -0.3331
15712TIP3    H268628   2.908   1.944   1.134 -0.2659 -0.3837 -0.0061
15713TIP3   OH268629   1.006   6.068   2.507 -0.6265  0.0567 -0.6233
15713TIP3    H168630   1.056   5.995   2.541 -1.4898  0.0217  0.6180
15713TIP3    H268631   0.997   6.050   2.413 -0.1405 -1.0034 -0.4680
15714TIP3   OH268632   0.305   4.073   4.384  0.5457 -0.0957 -0.5735
15714TIP3    H168633   0.395   4.096   4.406  0.4241 -0.5498  0.4424
15714TIP3    H268634   0.258   4.156   4.384  0.7916  0.0460 -0.2587
15715TIP3   OH268635   4.896   4.145  11.286  0.4501 -0.0250  0.2885
15715TIP3    H168636   4.923   4.210  11.350  0.8212 -1.3576  1.5322
15715TIP3    H268637   4.850   4.195  11.219  1.8016  1.6853  0.5571
15716TIP3   OH268638   3.745   3.158  11.277 -0.3432 -0.1885  0.4438
15716TIP3    H168639   3.796   3.225  11.324 -1.2961  1.8121 -1.2316
15716TIP3    H268640   3.780   3.075  11.310  2.3217  1.0853  1.1397
15717TIP3   OH268641   4.299   3.740  16.945 -0.2631 -0.2748  0.4076
15717TIP3    H168642   4.216   3.780  16.922 -1.0747 -1.0189  1.9018
15717TIP3    H268643   4.317   3.678  16.874 -0.3867  0.6945 -0.4920
15718TIP3   OH268644   2.565   1.111  16.623 -0.5171 -0.0083  0.2733
15718TIP3    H168645   2.519   1.037  16.662 -0.4633  0.8766  2.1731
15718TIP3    H268646   2.517   1.188  16.656  1.5466  0.9021  1.3742
15719TIP3   OH268647   5.825   5.102  14.725  0.1467 -0.0929 -0.0730
15719TIP3    H168648   5.839   5.068  14.636 -0.1483 -0.4575  0.0157
15719TIP3    H268649   5.739   5.144  14.721 -0.8286 -1.8983  0.5408
15720TIP3   OH268650   1.131   2.193  16.983 -0.1261  0.2197  0.1703
15720TIP3    H168651   1.158   2.110  17.024 -1.1444  0.3804  1.2269
15720TIP3    H268652   1.213   2.234  16.957  0.4008 -1.1249 -0.4002
15721TIP3   OH268653   6.506   4.071   4.823  0.0506  0.2175  0.0177
15721TIP3    H168654   6.447   4.146   4.825  1.2475  1.2279 -1.1834
15721TIP3    H268655   6.587   4.103   4.862  0.8542 -0.1645 -1.2687
15722TIP3   OH268656   0.513   4.194   4.013 -0.2091 -0.5010 -0.8289
15722TIP3    H168657   0.432   4.169   4.057  0.8919 -2.0764  0.4644
15722TIP3    H268658   0.579   4.137   4.052  1.7201  1.4251 -1.0653
15723TIP3   OH268659   0.062   5.924  12.104  0.4912 -0.4212 -0.0949
15723TIP3    H168660   0.054   5.875  12.021 -0.2855  1.1680 -1.0087
15723TIP3    H268661   0.107   6.005  12.079 -2.4835  1.5064  0.3445
15724TIP3   OH268662   1.089   1.166  15.378 -0.2670  0.1419 -0.1618
15724TIP3    H168663   1.121   1.166  15.287  1.8170 -0.0311  0.5240
15724TIP3    H268664   1.021   1.098  15.379  1.5648 -1.8146 -1.0109
15725TIP3   OH268665   0.467   5.825   3.912 -0.1695  0.7111  0.4711
15725TIP3    H168666   0.561   5.825   3.895 -0.3362  1.3223 -0.5770
15725TIP3    H268667   0.458   5.793   4.001  0.8945 -1.2175 -0.0563
15726TIP3   OH268668   2.011   2.607  12.803  0.2635  0.7098 -0.6051
15726TIP3    H168669   1.922   2.638  12.820  0.0222  0.6880 -1.7639
15726TIP3    H268670   2.004   2.512  12.800  0.1979  0.7282 -1.2923
15727TIP3   OH268671   0.765   1.691  11.806 -0.6122 -0.6460 -0.3129
15727TIP3    H168672   0.759   1.779  11.768  0.6772 -0.2964  0.2429
15727TIP3    H268673   0.677   1.674  11.841 -0.4491  1.1971  1.1889
15728TIP3   OH268674   6.487   4.942  17.059 -0.0437  0.4860 -0.2077
15728TIP3    H168675   6.393   4.946  17.079  0.0424 -1.9222  0.9638
15728TIP3    H268676   6.530   4.955  17.143  0.6687  0.7442 -0.6036
15729TIP3   OH268677   6.475   1.711   2.453 -0.1764 -0.2317  0.5165
15729TIP3    H168678   6.564   1.726   2.485  1.6181 -2.3929 -2.8872
15729TIP3    H268679   6.449   1.627   2.490  0.1616 -0.6689 -0.2071
15730TIP3   OH268680   5.384   3.559  13.145  0.2654  0.1771  0.1266
15730TIP3    H168681   5.437   3.557  13.225  1.8758  0.3730 -0.8822
15730TIP3    H268682   5.331   3.480  13.149  2.3611 -1.3333  0.1185
15731TIP3   OH268683   4.113   4.907  11.972 -0.0502 -0.4078  0.2916
15731TIP3    H168684   4.025   4.938  11.955  0.2563  0.6456  0.5559
15731TIP3    H268685   4.113   4.882  12.065 -0.2288 -0.9619  0.1428
15732TIP3   OH268686   5.253   2.653   1.477 -0.3540  0.0385  0.0752
15732TIP3    H168687   5.301   2.631   1.556 -1.6341  0.3105  0.9633
15732TIP3    H268688   5.161   2.656   1.504 -0.7074  1.4167 -1.1265
15733TIP3   OH268689   3.507   3.538   0.266 -0.0356 -0.3382  0.8382
15733TIP3    H168690   3.574   3.481   0.303 -1.3720 -2.5132  0.0859
15733TIP3    H268691   3.441   3.545   0.335  0.3843  0.8511  1.1473
15734TIP3   OH268692   5.341   4.138  15.597 -1.0397  0.3444  0.1367
15734TIP3    H168693   5.311   4.053  15.629  1.6986 -0.4624  0.8303
15734TIP3    H268694   5.341   4.129  15.502 -2.2345  0.1574  0.1323
15735TIP3   OH268695   6.166   6.702  15.440 -0.5359 -0.1370  0.2845
15735TIP3    H168696   6.250   6.656  15.431 -0.3995  0.0978  0.3479
15735TIP3    H268697   6.126   6.663  15.517  0.4891  1.2496  1.5629
15736TIP3   OH268698   3.248   5.541   1.802  0.3325 -0.2242 -0.0253
15736TIP3    H168699   3.192   5.570   1.874 -1.1723 -2.3629 -0.2259
15736TIP3    H268700   3.262   5.448   1.819  1.1301 -0.4638 -1.7725
15737TIP3   OH268701   0.859   2.882  14.405  0.1606  0.1686  0.1275
15737TIP3    H168702   0.844   2.789  14.391  1.9965 -0.7997  3.4059
15737TIP3    H268703   0.776   2.916  14.436 -0.3850 -0.4735 -0.5985
15738TIP3   OH268704   0.226   5.802  14.543  0.1515  0.2868 -0.0898
15738TIP3    H168705   0.251   5.894  14.532  0.9913  0.1324  0.4786
15738TIP3    H268706   0.177   5.782  14.463  3.1420  0.1930 -2.0442
15739TIP3   OH268707   2.999   1.966   0.785  0.0987 -0.5212  0.0714
15739TIP3    H168708   3.065   2.028   0.754 -0.2598 -0.7716 -1.2617
15739TIP3    H268709   2.927   2.020   0.815  1.1447 -0.2190  2.2094
15740TIP3   OH268710   2.666   5.500  15.145 -0.9621 -1.0514  0.2082
15740TIP3    H168711   2.602   5.566  15.173 -0.4238 -0.0825 -0.7636
15740TIP3    H268712   2.741   5.514  15.202 -0.8751 -0.8598  0.0492
15741TIP3   OH268713   0.359   1.769  10.974 -0.2403  0.6350 -0.5930
15741TIP3    H168714   0.348   1.703  10.906 -0.8237  0.6582 -0.5208
15741TIP3    H268715   0.331   1.726  11.055 -0.5759  0.9579 -0.5380
15742TIP3   OH268716   5.255   2.011  13.248 -0.4097  0.2746 -0.4616
15742TIP3    H168717   5.308   1.975  13.319  1.4694  0.5571 -1.6506
15742TIP3    H268718   5.225   2.096  13.281  2.2656  1.4200 -0.6939
15743TIP3   OH268719   1.106   1.823  15.310  0.7055  0.3181  0.4325
15743TIP3    H168720   1.187   1.781  15.281 -0.3013 -1.0459 -0.5239
15743TIP3    H268721   1.101   1.804  15.404  0.8893 -0.6707  0.2520
15744TIP3   OH268722   0.711   4.717   5.236 -0.1699  0.1584  0.1933
15744TIP3    H168723   0.744   4.674   5.315  0.4616 -0.3914 -0.3559
15744TIP3    H268724   0.616   4.706   5.240 -0.1630  0.3197  0.9750
15745TIP3   OH268725   6.111   6.218  15.099 -0.1412  0.2560  0.2653
15745TIP3    H168726   6.087   6.125  15.098  2.4877 -0.4840 -0.7436
15745TIP3    H268727   6.062   6.255  15.025 -0.5479 -0.5069  0.1288
15746TIP3   OH268728   4.465   5.526   3.631 -0.1510 -0.5924  0.4918
15746TIP3    H168729   4.398   5.536   3.698  0.0098 -0.4187  0.6249
15746TIP3    H268730   4.532   5.590   3.654 -0.8787  0.7054 -0.7889
15747TIP3   OH268731   4.658   5.493  14.310 -0.2825  0.5132  0.1498
15747TIP3    H168732   4.644   5.437  14.234 -2.9295  1.2242 -0.0065
15747TIP3    H268733   4.698   5.572  14.275 -0.6030  0.4521 -0.3621
15748TIP3   OH268734   1.752   0.039  12.358  0.3617 -0.3618  0.2561
15748TIP3    H168735   1.830   0.089  12.334  0.2820 -0.2142  0.3035
15748TIP3    H268736   1.780  -0.053  12.354  0.2922 -0.3594 -0.6419
15749TIP3   OH268737   3.028   2.211  12.544 -0.0370  0.2266 -0.1032
15749TIP3    H168738   3.109   2.249  12.512  0.4969  0.0776  1.0049
15749TIP3    H268739   2.961   2.240  12.482  0.8963  0.1174 -1.1885
15750TIP3   OH268740   1.608   6.245   5.987 -0.2615 -0.0674  0.3290
15750TIP3    H168741   1.640   6.336   5.988  1.0750 -0.5201  0.8442
15750TIP3    H268742   1.685   6.193   6.007 -1.6569 -1.1176  3.7060
15751TIP3   OH268743   6.814   0.103  13.814  0.2261  0.0911 -0.0251
15751TIP3    H168744   6.843   0.100  13.906 -3.2896 -1.3377  1.2341
15751TIP3    H268745   6.841   0.019  13.778  1.0917  0.4036 -0.1061
15752TIP3   OH268746   1.680   0.615   4.110  0.1214 -0.0507 -0.0428
15752TIP3    H168747   1.738   0.637   4.037 -0.4639 -0.1590 -0.5520
15752TIP3    H268748   1.734   0.564   4.169  0.3934 -0.6704 -0.8025
15753TIP3   OH268749   5.520   3.402  17.262 -0.5272 -0.0432 -0.4371
15753TIP3    H168750   5.446   3.440  17.215 -0.0027  0.2567 -1.0304
15753TIP3    H268751   5.534   3.317  17.220 -0.2782  0.0783 -0.6078
15754TIP3   OH268752   0.109   3.920   5.341 -0.7032 -0.5357  0.0413
15754TIP3    H168753   0.151   4.003   5.316  0.8186 -1.0292  0.8115
15754TIP3    H268754   0.146   3.855   5.282 -0.9152 -0.8756  0.2775
15755TIP3   OH268755   2.978   4.755  14.699  0.5200  0.1875  0.5727
15755TIP3    H168756   2.901   4.775  14.647  0.5718  0.0180  0.4288
15755TIP3    H268757   3.040   4.717  14.637 -0.7237 -3.4849  1.2967
15756TIP3   OH268758   2.901   3.010   4.278 -0.4110 -0.0625 -0.1792
15756TIP3    H168759   2.972   3.035   4.219  0.3355  1.5759  1.3098
15756TIP3    H268760   2.825   3.060   4.246 -0.5371 -0.7075 -0.9120
15757TIP3   OH268761   4.173   4.127  13.684  0.3282 -0.7015 -0.2444
15757TIP3    H168762   4.151   4.210  13.642 -0.9725 -1.2093 -0.6147
15757TIP3    H268763   4.259   4.142  13.724 -0.3861  1.2017  0.7129
15758TIP3   OH268764   0.301   4.467   3.431 -0.1604 -0.0033  0.3935
15758TIP3    H168765   0.303   4.511   3.346  0.6264  0.3239  0.5703
15758TIP3    H268766   0.215   4.425   3.435 -1.6482  2.8351  0.8448
15759TIP3   OH268767   4.025   4.932  12.533  0.1669  0.1258 -0.1505
15759TIP3    H168768   4.038   4.990  12.458  1.4068 -0.2897 -0.2822
15759TIP3    H268769   3.941   4.890  12.517 -0.7434  1.8265 -0.0812
15760TIP3   OH268770   1.622   4.509  16.664 -0.6214 -0.1833 -0.2491
15760TIP3    H168771   1.663   4.425  16.684 -1.1477 -0.6676 -1.1676
15760TIP3    H268772   1.685   4.554  16.608 -0.9500 -0.5665 -0.9381
15761TIP3   OH268773   0.527   6.274  14.567 -0.2507 -0.3286  0.1079
15761TIP3    H168774   0.603   6.298  14.515 -0.3765 -2.0063 -0.8825
15761TIP3    H268775   0.553   6.294  14.657 -0.0168  2.5647 -0.4839
15762TIP3   OH268776   5.452   4.286  12.290 -0.3972 -0.5061 -0.0376
15762TIP3    H168777   5.497   4.368  12.310 -0.6261 -0.1589 -0.9030
15762TIP3    H268778   5.360   4.310  12.281 -0.2565 -0.5088 -1.9989
15763TIP3   OH268779   5.116   3.325   6.195  0.1489  0.2659 -0.0744
15763TIP3    H168780   5.036   3.293   6.237  0.7165 -1.9630 -0.5585
15763TIP3    H268781   5.158   3.380   6.261 -0.4807 -0.6904  1.1639
15764TIP3   OH268782   0.312   5.998   1.272 -0.2076 -0.5061 -0.1993
15764TIP3    H168783   0.346   5.991   1.183 -0.2279 -0.8045 -0.1829
15764TIP3    H268784   0.261   6.079   1.271  2.9904  1.7435  0.5907
15765TIP3   OH268785   4.074   3.923  15.246  0.1712 -0.0225  0.5329
15765TIP3    H168786   4.013   3.949  15.315 -2.5661 -1.7744 -1.0586
15765TIP3    H268787   4.115   3.843  15.279  0.0312  0.0036  0.7712
15766TIP3   OH268788   3.763   2.313   1.994  0.3128 -0.0648 -0.3687
15766TIP3    H168789   3.785   2.358   1.912  0.1962 -1.8117 -1.4056
15766TIP3    H268790   3.799   2.369   2.062  1.0097  1.1018 -1.6437
15767TIP3   OH268791   2.048   1.548  11.022 -0.4076  0.4988 -0.1651
15767TIP3    H168792   2.014   1.464  10.991 -0.0324 -0.0187  0.7931
15767TIP3    H268793   2.072   1.595  10.941 -1.5748  0.1111 -0.7575
15768TIP3   OH268794   4.028   2.238   0.830  0.0337 -0.4231 -0.5335
15768TIP3    H168795   3.962   2.307   0.825  0.8366  0.7530  2.4154
15768TIP3    H268796   3.978   2.156   0.834 -1.2445  0.3756  0.6531
15769TIP3   OH268797   5.329   4.004  17.087 -0.0617  0.0423 -0.5240
15769TIP3    H168798   5.277   4.034  17.161 -1.0593  0.1181 -1.2269
15769TIP3    H268799   5.405   4.062  17.085 -1.6412  2.2294 -1.5072
15770TIP3   OH268800   2.424   2.530  11.764  0.7209 -0.2959 -0.8889
15770TIP3    H168801   2.384   2.601  11.714 -2.6146  0.5398  2.4617
15770TIP3    H268802   2.356   2.462  11.767  0.9133 -0.4713  1.9078
15771TIP3   OH268803   3.051   6.096   1.832 -0.7189 -0.9811  0.0415
15771TIP3    H168804   3.051   6.085   1.737  4.3731  1.1583 -0.5574
15771TIP3    H268805   3.005   6.179   1.847 -1.6702 -1.3996 -0.4873
15772TIP3   OH268806   3.304   1.474   6.036 -0.4155 -0.3418 -0.5535
15772TIP3    H168807   3.215   1.450   6.062 -1.0187  1.3608 -0.9457
15772TIP3    H268808   3.359   1.439   6.106 -1.5098 -0.3938  0.3121
15773TIP3   OH268809   6.670   4.655   5.091  0.3170 -0.3975 -1.3132
15773TIP3    H168810   6.715   4.584   5.045 -2.5601 -1.2977 -2.9808
15773TIP3    H268811   6.599   4.681   5.032  0.1173  2.6298  0.0736
15774TIP3   OH268812   3.988   0.432   3.670 -0.2091  0.6473 -0.2646
15774TIP3    H168813   3.927   0.357   3.667 -0.9116  1.2089 -0.4063
15774TIP3    H268814   4.061   0.405   3.615 -0.6508  0.2248 -0.6629
15775TIP3   OH268815   3.111   5.980  16.406 -0.1658 -0.1907  0.2430
15775TIP3    H168816   3.016   5.985  16.418 -0.2701 -3.2014  1.6485
15775TIP3    H268817   3.122   5.925  16.328  0.3396 -1.9391  1.4925
15776TIP3   OH268818   0.202   2.061  14.622 -1.1546  0.2084  0.4992
15776TIP3    H168819   0.284   2.016  14.605 -0.8916  0.4634  1.0635
15776TIP3    H268820   0.210   2.092  14.712 -1.7016  0.5917  0.4214
15777TIP3   OH268821   6.605   6.614  14.858 -0.0524 -0.5912 -0.2106
15777TIP3    H168822   6.519   6.648  14.835 -1.3996 -0.5479  4.1005
15777TIP3    H268823   6.592   6.522  14.876  1.3235 -1.0772 -1.4486
15778TIP3   OH268824   4.138   6.556   6.565 -0.7324 -0.6527  0.2137
15778TIP3    H168825   4.116   6.464   6.576  0.4902 -0.9008  0.6756
15778TIP3    H268826   4.110   6.597   6.647 -0.1541 -0.8352  0.5042
15779TIP3   OH268827   6.134   1.096   1.136  0.0421  0.5208 -0.6165
15779TIP3    H168828   6.100   1.162   1.074 -0.9975 -0.3313 -0.9905
15779TIP3    H268829   6.168   1.147   1.209 -1.4905  1.4799 -0.5220
15780TIP3   OH268830   2.030   3.350  13.451 -0.0840  0.0416 -0.2707
15780TIP3    H168831   1.975   3.413  13.498 -1.1361 -1.8091  1.1537
15780TIP3    H268832   2.040   3.387  13.363  0.8798  3.0251  0.9676
15781TIP3   OH268833   2.443   6.679  13.446 -0.0580 -0.2310  0.1311
15781TIP3    H168834   2.415   6.731  13.521 -2.6286 -0.0639 -0.8374
15781TIP3    H268835   2.453   6.591  13.480  0.3767  0.1373  0.9789
15782TIP3   OH268836   6.517   2.651  14.046  0.5298 -0.5071 -0.0447
15782TIP3    H168837   6.569   2.648  13.966  0.1538  1.3989 -0.4118
15782TIP3    H268838   6.548   2.729  14.092 -0.4680 -0.5886  0.8100
15783TIP3   OH268839   2.188   2.862   4.469 -0.0398  0.1327  0.0032
15783TIP3    H168840   2.121   2.803   4.435  1.6660 -1.3744 -0.9109
15783TIP3    H268841   2.240   2.807   4.528 -0.2774  1.5768  1.6345
15784TIP3   OH268842   6.812   4.656  15.924  0.5608 -0.0258  0.1522
15784TIP3    H168843   6.821   4.563  15.944  1.1014 -0.1093 -0.4400
15784TIP3    H268844   6.780   4.695  16.005  2.3482 -0.3954  1.0825
15785TIP3   OH268845   6.749   5.732  11.915  0.1749  0.5650 -0.3091
15785TIP3    H168846   6.677   5.795  11.906  0.5410  1.2079  0.9429
15785TIP3    H268847   6.717   5.668  11.979  0.6455  0.7579  0.1213
15786TIP3   OH268848   6.235   1.164   3.831  0.2305 -0.1312  0.1256
15786TIP3    H168849   6.317   1.189   3.789  0.0002 -0.3839 -0.4849
15786TIP3    H268850   6.240   1.069   3.838 -0.4016 -0.2441 -0.7641
15787TIP3   OH268851   1.137   4.307   4.565 -0.3650 -0.1381  0.5407
15787TIP3    H168852   1.177   4.227   4.531 -0.6425 -0.0421 -0.0215
15787TIP3    H268853   1.188   4.328   4.643  0.1664 -0.4636  0.2878
15788TIP3   OH268854   5.201   5.913   1.833  0.4934  0.1655  0.6598
15788TIP3    H168855   5.137   5.918   1.905 -1.5356 -2.3023 -0.7873
15788TIP3    H268856   5.254   5.837   1.853  1.0494  0.4733  0.3784
15789TIP3   OH268857   1.559   2.640   4.840 -0.0040  0.3575 -0.0516
15789TIP3    H168858   1.637   2.631   4.784 -0.9159 -0.4619 -1.2525
15789TIP3    H268859   1.522   2.725   4.816  1.5705  1.6884  1.9721
15790TIP3   OH268860   6.594   0.748  11.161  0.2080  0.0123  0.2518
15790TIP3    H168861   6.660   0.710  11.219  0.3995  0.2052  0.1652
15790TIP3    H268862   6.555   0.819  11.212  0.0975 -0.0760  0.2890
15791TIP3   OH268863   3.638   6.341   1.454 -0.5015  0.7499 -0.4826
15791TIP3    H168864   3.637   6.349   1.549 -0.8803  2.1279 -0.5825
15791TIP3    H268865   3.702   6.406   1.425  1.9274 -1.6934 -1.0531
15792TIP3   OH268866   0.693   0.618  17.185  0.0931 -0.0404 -0.6371
15792TIP3    H168867   0.699   0.708  17.218 -1.9425  0.4864 -1.5656
15792TIP3    H268868   0.742   0.619  17.103 -0.7879  0.5074 -1.1632
15793TIP3   OH268869   3.841   1.724   4.177 -0.4026 -0.0792 -0.3376
15793TIP3    H168870   3.885   1.667   4.240 -1.5271 -0.0983  0.4683
15793TIP3    H268871   3.814   1.665   4.107 -1.5913 -0.5821  0.5087
15794TIP3   OH268872   4.767   1.406  15.883 -0.3221  0.1437  0.0746
15794TIP3    H168873   4.772   1.332  15.823 -2.0509  0.2037 -0.1886
15794TIP3    H268874   4.833   1.387  15.950  1.3825 -0.1087 -1.6025
15795TIP3   OH268875   5.475   3.920  12.995  0.3514 -0.5338  0.2765
15795TIP3    H168876   5.441   3.984  12.933  1.4134 -0.5548 -0.3601
15795TIP3    H268877   5.407   3.852  12.999 -0.0429 -0.1818 -0.3317
15796TIP3   OH268878   5.238   1.065  10.881 -0.7868 -0.1757  0.0985
15796TIP3    H168879   5.187   1.076  10.801 -1.6159  0.1276  0.6537
15796TIP3    H268880   5.319   1.114  10.866 -0.7961 -0.3836 -0.6597
15797TIP3   OH268881   1.367   5.020   2.824 -0.0383  0.3114  0.1795
15797TIP3    H168882   1.383   4.940   2.774  1.1113  0.0511  0.9088
15797TIP3    H268883   1.403   5.090   2.768 -2.3484  0.5515 -1.1200
15798TIP3   OH268884   2.436   1.496  11.375 -0.0073  0.1760 -0.6336
15798TIP3    H168885   2.362   1.493  11.314  0.1303  2.0917 -0.9382
15798TIP3    H268886   2.425   1.577  11.423  1.8818  0.5057 -0.6772
15799TIP3   OH268887   3.206   6.403   1.717 -0.1837 -0.1575 -0.1192
15799TIP3    H168888   3.127   6.451   1.690 -1.6832 -1.6255  1.4093
15799TIP3    H268889   3.245   6.374   1.635 -1.3094  0.4811 -0.9207
15800TIP3   OH268890   6.469   2.195  14.263 -0.1385 -0.1229 -0.3992
15800TIP3    H168891   6.436   2.211  14.351  0.7993  2.9888 -0.4956
15800TIP3    H268892   6.530   2.267  14.246  0.8180 -1.4069 -3.0717
15801TIP3   OH268893   4.724   2.223   2.198  0.3689  0.5610 -0.0729
15801TIP3    H168894   4.731   2.304   2.148  0.8460 -1.5531 -3.7939
15801TIP3    H268895   4.630   2.206   2.203  0.3226  0.6237 -0.6402
15802TIP3   OH268896   6.008   4.624   1.382 -0.2502  0.6499  0.0130
15802TIP3    H168897   5.917   4.596   1.394 -0.2350  0.1058 -0.9795
15802TIP3    H268898   6.014   4.643   1.288  0.0739  2.8459  0.4423
15803TIP3   OH268899   3.074   5.615  11.958 -0.8399  0.0982 -0.6182
15803TIP3    H168900   3.089   5.526  11.989 -0.1671  0.5957  0.5477
15803TIP3    H268901   3.154   5.639  11.911  0.1148  0.9844  1.3323
15804TIP3   OH268902   3.191   5.524   4.972  0.2061 -0.1690 -0.5727
15804TIP3    H168903   3.096   5.525   4.961  0.2485  1.4902 -1.0409
15804TIP3    H268904   3.204   5.510   5.066 -0.4990 -0.3167 -0.4923
15805TIP3   OH268905   5.307   1.585  15.101 -0.3099 -0.6143  0.1931
15805TIP3    H168906   5.221   1.569  15.063 -0.5616 -0.0879  0.5421
15805TIP3    H268907   5.336   1.667  15.063 -0.0563 -0.6761  0.2469
15806TIP3   OH268908   1.150   4.547   4.477 -0.7296 -0.1870  0.2035
15806TIP3    H168909   1.134   4.464   4.521  0.4017 -0.1618  0.6917
15806TIP3    H268910   1.202   4.524   4.400  2.0838  0.2983  1.8313
15807TIP3   OH268911   0.011   2.723  12.183  0.1050 -0.1838 -0.0553
15807TIP3    H168912   0.013   2.642  12.233 -1.7038 -0.4824 -0.4098
15807TIP3    H268913   0.048   2.789  12.242 -0.6310 -0.8005  1.1260
15808TIP3   OH268914   1.807   1.081   0.021  0.0426 -0.6127  0.2286
15808TIP3    H168915   1.818   1.138  -0.056 -0.7212 -0.6039  0.1161
15808TIP3    H268916   1.738   1.124   0.072  0.4036 -0.7293  0.8204
15809TIP3   OH268917   2.392   3.877   3.699 -0.3480  0.8738  0.8092
15809TIP3    H168918   2.312   3.922   3.673 -0.5142 -0.2600 -0.7451
15809TIP3    H268919   2.439   3.862   3.617  0.1925 -0.8420  1.3921
15810TIP3   OH268920   2.042   5.135   0.868  0.7818 -0.4454 -0.5364
15810TIP3    H168921   2.011   5.200   0.806  0.3239 -0.3517 -0.2116
15810TIP3    H268922   1.976   5.066   0.866  0.0933  0.1318  0.7651
15811TIP3   OH268923   6.107   5.617  12.506  0.4850 -0.4543  0.1551
15811TIP3    H168924   6.071   5.581  12.425 -0.5889  0.3967  0.2273
15811TIP3    H268925   6.113   5.541  12.564  0.1146 -0.8701 -0.3281
15812TIP3   OH268926   4.733   4.788  13.956 -0.1480  0.7672 -0.4815
15812TIP3    H168927   4.791   4.784  14.032 -0.5791 -0.2824 -0.1808
15812TIP3    H268928   4.751   4.706  13.909  0.0706  1.3746 -1.4864
15813TIP3   OH268929   5.144   4.709  11.522  0.0139  0.4130  0.3783
15813TIP3    H168930   5.151   4.621  11.486 -0.7526  0.1941  0.7397
15813TIP3    H268931   5.231   4.728  11.557  0.0155 -0.4600  0.8715
15814TIP3   OH268932   0.126   5.559  17.181  0.1888 -0.0760 -0.6261
15814TIP3    H168933   0.101   5.651  17.169  1.2081  0.0581 -2.0553
15814TIP3    H268934   0.194   5.562  17.249  1.4839  0.4935 -1.8884
15815TIP3   OH268935   2.847   3.636   4.904  0.0133  0.3888 -0.4111
15815TIP3    H168936   2.838   3.717   4.853  0.5960 -0.0944 -1.3103
15815TIP3    H268937   2.933   3.642   4.945  0.4846 -0.2126 -1.2900
15816TIP3   OH268938   3.295   2.566  15.406 -0.3897 -0.2419 -0.0322
15816TIP3    H168939   3.349   2.507  15.353 -0.9059 -1.3913  0.6740
15816TIP3    H268940   3.343   2.649  15.406  2.4848 -1.6915  2.1464
15817TIP3   OH268941   2.578   6.690  15.432 -0.2645 -0.0479 -0.4203
15817TIP3    H168942   2.601   6.693  15.525 -0.9893 -0.8594 -0.2010
15817TIP3    H268943   2.552   6.780  15.411 -0.6279  0.0210  0.3054
15818TIP3   OH268944   1.770   0.329  12.195 -0.1358  0.0928  0.2278
15818TIP3    H168945   1.824   0.309  12.272 -0.3219  1.2689  0.6931
15818TIP3    H268946   1.774   0.250  12.142  0.7047 -0.4384  1.0376
15819TIP3   OH268947   1.516   3.184   1.912 -0.1082  0.3166 -0.7322
15819TIP3    H168948   1.534   3.265   1.959 -0.0306  0.6770 -1.3667
15819TIP3    H268949   1.454   3.136   1.967  1.3645 -0.1152  0.6351
15820TIP3   OH268950   6.330   0.297  11.603 -0.2874  0.5591 -0.0593
15820TIP3    H168951   6.388   0.236  11.647 -0.4040 -0.1991 -0.9102
15820TIP3    H268952   6.363   0.384  11.625 -0.4477  0.2154  1.6183
15821TIP3   OH268953   1.868   1.043  13.634 -0.5746 -0.0471  0.0426
15821TIP3    H168954   1.779   1.040  13.669 -1.6195  0.2009 -2.4162
15821TIP3    H268955   1.887   1.136  13.626 -0.7715 -0.0840 -0.9772
15822TIP3   OH268956   1.768   2.443  17.133  0.6744  0.5652  0.4280
15822TIP3    H168957   1.720   2.367  17.165 -1.2945  1.7205  0.4060
15822TIP3    H268958   1.727   2.518  17.177  2.4009  1.6533  0.2933
15823TIP3   OH268959   4.546   4.433  16.805  0.0713  0.5699 -0.2953
15823TIP3    H168960   4.621   4.422  16.863  1.9501  2.4799 -2.1668
15823TIP3    H268961   4.507   4.516  16.831 -0.3361  0.4341 -0.4597
15824TIP3   OH268962   0.352   0.049  16.108 -0.3922 -0.3711 -0.1274
15824TIP3    H168963   0.334   0.003  16.026 -0.7553 -1.2755  0.4538
15824TIP3    H268964   0.443   0.027  16.128 -0.8949 -1.8212  0.7399
15825TIP3   OH268965   5.107   6.694   1.056 -0.1021  0.3656  0.3254
15825TIP3    H168966   5.033   6.752   1.043 -0.4284 -0.4019 -1.5624
15825TIP3    H268967   5.069   6.613   1.091  0.1795  0.7873  1.6596
15826TIP3   OH268968   0.753   0.371   0.560  0.3993 -0.6816 -0.4448
15826TIP3    H168969   0.811   0.299   0.539  1.0174 -0.2786 -0.1425
15826TIP3    H268970   0.792   0.412   0.637  0.6832  0.6577 -1.2625
15827TIP3   OH268971   3.054   5.416   3.595  0.0108 -0.1327  0.0552
15827TIP3    H168972   3.128   5.365   3.628  0.4761  0.7913  0.4696
15827TIP3    H268973   3.094   5.493   3.555 -0.6386 -0.4550 -1.2643
15828TIP3   OH268974   5.017   1.011  17.005  0.3949  0.5151 -0.4803
15828TIP3    H168975   4.979   0.924  17.021  0.0344  0.9408  1.1381
15828TIP3    H268976   5.112   0.997  17.006  0.3461 -0.0960 -1.8111
15829TIP3   OH268977   4.807   3.717  14.815 -0.3591  0.5995  0.3246
15829TIP3    H168978   4.781   3.646  14.756 -0.4976 -0.2143  1.3317
15829TIP3    H268979   4.724   3.757  14.842 -0.5192 -0.7076  1.9636
15830TIP3   OH268980   5.334   2.498  15.982  0.5264 -0.0934 -0.0135
15830TIP3    H168981   5.367   2.451  15.906 -0.5269  1.7408 -1.7090
15830TIP3    H268982   5.239   2.486  15.978  0.3505  1.0612  0.2689
15831TIP3   OH268983   3.890   6.357  17.188 -0.1982  0.4666 -0.4704
15831TIP3    H168984   3.928   6.360  17.276 -1.6835 -3.2992  0.4646
15831TIP3    H268985   3.797   6.372  17.202 -0.1495  2.3117 -1.8116
15832TIP3   OH268986   1.917   5.717  16.351 -0.9615  0.3321  0.1068
15832TIP3    H168987   1.899   5.747  16.262 -1.7033  2.1221  0.8072
15832TIP3    H268988   1.844   5.751  16.403 -0.5248 -0.6348  1.4277
15833TIP3   OH268989   5.355   2.520   6.113  0.2240 -0.3172  0.4544
15833TIP3    H168990   5.400   2.477   6.186 -0.9046 -0.8487  0.8630
15833TIP3    H268991   5.311   2.596   6.153  1.3730  0.6654 -0.0834
15834TIP3   OH268992   3.859   2.952  13.841  0.1329 -0.0647 -0.5519
15834TIP3    H168993   3.814   2.952  13.756 -1.3518 -0.6016  0.2060
15834TIP3    H268994   3.834   3.035  13.882 -0.0013 -0.2669 -0.2185
15835TIP3   OH268995   0.533   5.969   4.984 -0.3042  0.2163 -0.0028
15835TIP3    H168996   0.509   5.992   5.073  2.8760  2.0258  0.5596
15835TIP3    H268997   0.592   5.894   4.993 -1.3340 -0.7256 -0.7973
15836TIP3   OH268998   2.868   6.391   2.882 -0.1995 -0.4518 -0.8006
15836TIP3    H168999   2.857   6.318   2.943  2.0534  1.7462  2.5631
15836TIP3    H269000   2.798   6.451   2.905  1.2523  0.8375  0.5141
15837TIP3   OH269001   0.007   3.957  11.415  0.1201  0.3991 -0.0380
15837TIP3    H169002   0.038   3.903  11.342  0.3076  1.1419 -0.5251
15837TIP3    H269003  -0.072   3.998  11.381  0.1229  0.6252  0.2336
15838TIP3   OH269004   0.485   4.051   0.065 -0.3978  0.4055 -0.3096
15838TIP3    H169005   0.545   4.032  -0.007  0.4300 -0.3784  0.5663
15838TIP3    H269006   0.532   4.114   0.120 -0.3285 -0.2615  0.4117
15839TIP3   OH269007   2.147   0.395  12.406 -0.6221  0.2094  0.0553
15839TIP3    H169008   2.190   0.411  12.322  0.8804 -0.4545  0.6745
15839TIP3    H269009   2.201   0.441  12.470 -0.6872 -0.8391  0.8850
15840TIP3   OH269010   6.332   6.411  15.075 -0.0830  0.0248  0.1488
15840TIP3    H169011   6.301   6.321  15.063  0.3148 -0.2665  1.2198
15840TIP3    H269012   6.426   6.407  15.058 -0.4223  0.7302 -2.1759
15841TIP3   OH269013   0.436   6.718   0.698 -0.4021 -0.5868 -0.0277
15841TIP3    H169014   0.469   6.796   0.653 -0.5774 -0.5479 -0.0912
15841TIP3    H269015   0.389   6.753   0.774 -0.9368 -0.6008 -0.3474
15842TIP3   OH269016   3.227   5.211  12.162  0.2028 -0.0625  0.4915
15842TIP3    H169017   3.320   5.226  12.175  0.1811 -0.0715  0.6733
15842TIP3    H269018   3.192   5.203  12.251 -0.1876  1.2198  0.4753
15843TIP3   OH269019   2.427   1.123   5.106  0.2819  0.4558 -0.3448
15843TIP3    H169020   2.506   1.170   5.133  0.0708 -0.0987  1.3777
15843TIP3    H269021   2.458   1.035   5.084  0.1470  0.2321  0.3530
15844TIP3   OH269022   4.922   5.949  12.016 -0.7272 -0.0063 -0.1024
15844TIP3    H169023   4.856   5.901  11.966  0.3588 -0.7169 -0.8955
15844TIP3    H269024   4.983   5.981  11.950 -0.2187  0.5505  0.6263
15845TIP3   OH269025   0.168   2.604   0.254  0.1338  0.0130  0.8793
15845TIP3    H169026   0.147   2.516   0.222 -1.3033  0.1649  1.3414
15845TIP3    H269027   0.199   2.651   0.177  0.6300 -0.8090  0.5672
15846TIP3   OH269028   6.738   2.255  15.834 -0.3442  0.1961 -0.5406
15846TIP3    H169029   6.723   2.320  15.765 -1.3665 -0.4603 -0.9710
15846TIP3    H269030   6.659   2.200  15.832 -0.4172  0.1930  1.1957
15847TIP3   OH269031   1.850   2.543  12.162 -0.3841 -0.2010 -0.2948
15847TIP3    H169032   1.920   2.605  12.178  0.3369 -0.5020 -2.1041
15847TIP3    H269033   1.771   2.587  12.195  0.5624  0.2279  1.5685
15848TIP3   OH269034   4.163   3.979   4.115  0.1442 -0.0818  0.1688
15848TIP3    H169035   4.109   3.905   4.087  0.2246 -1.0418  2.3338
15848TIP3    H269036   4.118   4.013   4.192  1.0273  1.0590  0.2041
15849TIP3   OH269037   5.901   5.396  12.854 -0.2345 -0.5322 -0.6829
15849TIP3    H169038   5.873   5.348  12.776  1.1366 -0.6178 -1.1616
15849TIP3    H269039   5.968   5.341  12.894 -0.5926 -0.2675  0.2963
15850TIP3   OH269040   6.138   6.130  16.853  0.0435 -0.2437 -0.4611
15850TIP3    H169041   6.102   6.098  16.935  0.6073  1.0591  0.3238
15850TIP3    H269042   6.098   6.216  16.841  2.6243  1.1912  0.3434
15851TIP3   OH269043   2.358   5.962   3.550 -0.3551  0.5466  0.1995
15851TIP3    H169044   2.362   6.041   3.605  0.4827  0.2751  0.5388
15851TIP3    H269045   2.330   5.893   3.610  1.5911  0.0235  0.5795
15852TIP3   OH269046   4.114   5.792   6.525 -0.1339 -0.4542  0.4560
15852TIP3    H169047   4.096   5.712   6.476  0.4857 -1.0140  1.1156
15852TIP3    H269048   4.123   5.763   6.616  0.9781  0.2258  0.5852
15853TIP3   OH269049   5.132   0.889  11.071  0.3222  0.2595  0.4397
15853TIP3    H169050   5.178   0.940  11.004  0.5894 -1.1751 -0.5171
15853TIP3    H269051   5.182   0.808  11.077 -0.2244 -0.0050  1.7630
15854TIP3   OH269052   1.617   1.367  13.491 -0.0015  0.1261  0.1663
15854TIP3    H169053   1.559   1.376  13.416 -0.8843  2.0120  1.0087
15854TIP3    H269054   1.687   1.309  13.461 -0.3981  0.7138 -2.0510
15855TIP3   OH269055   3.050   5.180   2.688  0.0327  0.1060  0.0092
15855TIP3    H169056   3.099   5.103   2.714  1.0057  0.9513  0.7825
15855TIP3    H269057   3.071   5.246   2.755 -0.7057  1.0612 -0.6610
15856TIP3   OH269058   1.880   3.232  15.975  0.4370 -0.2868  0.1120
15856TIP3    H169059   1.908   3.323  15.966 -0.1912  0.0429  1.3836
15856TIP3    H269060   1.854   3.206  15.886 -0.1258  1.0116 -0.1208
15857TIP3   OH269061   5.386   2.127   3.908 -0.0981  0.9792  0.3175
15857TIP3    H169062   5.466   2.094   3.867 -1.1929  0.0858 -1.1778
15857TIP3    H269063   5.326   2.052   3.909 -0.9481  1.6375  1.3939
15858TIP3   OH269064   2.302   2.287   3.130  0.7762 -0.0926  0.3194
15858TIP3    H169065   2.370   2.354   3.138  2.1611 -1.5221  1.0757
15858TIP3    H269066   2.347   2.211   3.094 -0.6286 -0.8056 -0.0025
15859TIP3   OH269067   2.478   6.048  15.864  0.3853 -0.0007  0.2275
15859TIP3    H169068   2.506   6.137  15.843  1.3000  0.2523  2.2929
15859TIP3    H269069   2.548   5.992  15.830  2.4994  0.4865  3.3591
15860TIP3   OH269070   6.069   0.248   5.237  0.3740 -0.1147  0.1642
15860TIP3    H169071   6.076   0.256   5.333 -2.2372  0.3629  0.3799
15860TIP3    H269072   6.158   0.267   5.206  1.0077  1.0692  2.4174
15861TIP3   OH269073   6.210   2.205   2.905  0.1690 -0.0352  0.1844
15861TIP3    H169074   6.137   2.215   2.843  0.2614 -0.9979 -0.0952
15861TIP3    H269075   6.284   2.180   2.850  0.1364 -1.3914  0.7060
15862TIP3   OH269076   2.108   5.981   3.948 -0.5319 -0.0781  0.2765
15862TIP3    H169077   2.117   5.922   3.873 -0.6929 -0.4925  0.5780
15862TIP3    H269078   2.073   5.926   4.018  3.0819 -0.7211  1.8330
15863TIP3   OH269079   1.594   0.772   2.579 -0.1248  0.0966  0.0845
15863TIP3    H169080   1.561   0.688   2.546 -1.7913  0.9032 -0.4467
15863TIP3    H269081   1.540   0.838   2.534  1.2364  1.4648  0.3746
15864TIP3   OH269082   4.702   1.175  12.462 -0.0204 -0.5008 -0.5100
15864TIP3    H169083   4.757   1.253  12.455  0.7537 -0.9025  0.7383
15864TIP3    H269084   4.736   1.116  12.395 -0.2182 -0.0051 -1.0563
15865TIP3   OH269085   6.405   4.974   3.459 -0.2860 -0.6079  0.4701
15865TIP3    H169086   6.425   4.890   3.500  0.7847 -0.4169  0.3478
15865TIP3    H269087   6.476   4.989   3.397 -0.4911  0.3646  0.4495
15866TIP3   OH269088   1.926   2.167  15.809  0.0868  0.4615 -0.8924
15866TIP3    H169089   1.943   2.138  15.898 -2.0734 -1.3837 -0.9694
15866TIP3    H269090   1.868   2.100  15.773 -0.2833  1.9004 -3.2180
15867TIP3   OH269091   1.346   6.067  11.522 -0.3317  0.7079 -0.4061
15867TIP3    H169092   1.309   6.068  11.610 -0.5352  2.1973 -0.4811
15867TIP3    H269093   1.358   6.160  11.500 -0.1601  0.3586 -1.8952
15868TIP3   OH269094   0.094   3.472   1.425 -0.1080  0.1552  0.0903
15868TIP3    H169095   0.001   3.459   1.404  0.4910  1.0373 -3.9836
15868TIP3    H269096   0.139   3.402   1.377  1.4785  1.5992 -0.6054
15869TIP3   OH269097   0.352   2.468  16.529  0.1598  0.3469 -0.3055
15869TIP3    H169098   0.276   2.521  16.554  1.2041  0.7868  2.1643
15869TIP3    H269099   0.350   2.469  16.433 -2.5866  0.8196 -0.3407
15870TIP3   OH269100   0.291   4.336  16.721  0.4823 -0.5593 -0.0572
15870TIP3    H169101   0.241   4.410  16.685  0.5885 -0.8825 -0.8889
15870TIP3    H269102   0.373   4.375  16.751  1.1379 -0.5183 -1.7751
15871TIP3   OH269103   6.279   6.495   6.552  0.0076  0.0842  0.0285
15871TIP3    H169104   6.261   6.413   6.505  2.6858 -0.5505 -0.1147
15871TIP3    H269105   6.372   6.512   6.534  0.1059  1.9427  1.9137
15872TIP3   OH269106   3.023   4.736   1.107 -0.1033  0.0229 -0.5949
15872TIP3    H169107   3.054   4.694   1.188 -0.7487 -0.0230 -0.3699
15872TIP3    H269108   3.103   4.750   1.056  0.4496  1.0354  0.5110
15873TIP3   OH269109   5.118   2.437  14.490 -0.1122 -0.1663 -0.1842
15873TIP3    H169110   5.025   2.451  14.509 -0.1955 -1.4334  0.4102
15873TIP3    H269111   5.164   2.497  14.549 -0.5390  0.8011 -0.8026
15874TIP3   OH269112   5.416   2.899   1.240  0.1410 -0.4702 -0.3836
15874TIP3    H169113   5.329   2.887   1.203 -0.2181  2.2426 -0.6226
15874TIP3    H269114   5.452   2.974   1.193  1.5468  0.1061  1.4855
15875TIP3   OH269115   6.706   1.705  12.718 -0.4418 -0.2699  0.2254
15875TIP3    H169116   6.713   1.684  12.811 -0.1909 -1.0066  0.0424
15875TIP3    H269117   6.615   1.735  12.707  0.1322  1.9979  1.1230
15876TIP3   OH269118   6.377   4.728   2.963  0.2022 -0.3349  0.5002
15876TIP3    H169119   6.349   4.768   3.045  1.0027 -0.3378  0.7743
15876TIP3    H269120   6.322   4.649   2.955 -1.1788  0.6199  0.1038
15877TIP3   OH269121   0.577   3.538   4.340 -0.6276 -0.5053 -0.3727
15877TIP3    H169122   0.656   3.484   4.346 -1.8479 -2.2289  3.4455
15877TIP3    H269123   0.511   3.488   4.388 -4.1725  0.7856 -3.4521
15878TIP3   OH269124   4.584   5.153  12.858  0.7015  0.9772 -0.4684
15878TIP3    H169125   4.528   5.230  12.874 -1.4318 -0.7395  0.8960
15878TIP3    H269126   4.555   5.120  12.773 -1.7373 -0.8211  0.9004
15879TIP3   OH269127   4.150   2.197  15.876 -0.0506  0.3368 -0.4358
15879TIP3    H169128   4.119   2.113  15.910 -0.5750  0.8729  0.4574
15879TIP3    H269129   4.180   2.244  15.954 -0.3646  1.2259 -0.8422
15880TIP3   OH269130   6.208   4.912  15.985 -0.1788  0.7404  0.4251
15880TIP3    H169131   6.248   4.837  16.027  0.3310 -0.9000 -2.6691
15880TIP3    H269132   6.272   4.982  15.995 -0.7009  0.9174  3.4274
15881TIP3   OH269133   3.893   5.476   2.905  0.2038  0.0144 -0.4305
15881TIP3    H169134   3.972   5.484   2.958 -0.8269 -0.3572  1.2179
15881TIP3    H269135   3.868   5.566   2.886  0.5290  0.1493 -0.2356
15882TIP3   OH269136   6.171   1.932  11.779  0.3031  0.2466 -0.6217
15882TIP3    H169137   6.171   1.852  11.726  1.4055 -0.3893  0.3049
15882TIP3    H269138   6.084   1.969  11.766 -0.4893 -1.4887 -0.4988
15883TIP3   OH269139   1.177   2.110  12.091 -0.7148 -0.0663 -0.3580
15883TIP3    H169140   1.145   2.151  12.011 -2.5355  0.8301  0.7621
15883TIP3    H269141   1.101   2.066  12.128 -0.7873  2.1360  2.4378
15884TIP3   OH269142   3.486   3.326  15.777 -0.5829 -0.0557 -0.0953
15884TIP3    H169143   3.448   3.238  15.785 -2.6049  0.8172  0.5944
15884TIP3    H269144   3.411   3.385  15.782  0.9497  1.8791  2.6631
15885TIP3   OH269145   3.330   4.073   3.165  0.1533  0.1715  0.1228
15885TIP3    H169146   3.424   4.056   3.176  0.7110  2.5534 -0.2548
15885TIP3    H269147   3.311   4.141   3.229 -1.5408 -0.7968  0.7039
15886TIP3   OH269148   5.419   5.309  15.007  0.2019 -0.5021  0.4269
15886TIP3    H169149   5.391   5.273  14.923 -1.4381  1.0130  0.2450
15886TIP3    H269150   5.486   5.373  14.985 -0.6513  0.3340  0.1494
15887TIP3   OH269151   0.432   1.572   3.325  0.3846 -0.0648  0.3337
15887TIP3    H169152   0.418   1.514   3.400 -2.5995 -0.0785 -0.1231
15887TIP3    H269153   0.417   1.660   3.359  0.8796  0.1071  0.1260
15888TIP3   OH269154   1.665   0.676  13.434  0.4469  0.2809  0.4746
15888TIP3    H169155   1.699   0.591  13.406  1.4670  0.6809  0.4303
15888TIP3    H269156   1.726   0.705  13.501 -0.1507  0.7811  0.8080
15889TIP3   OH269157   1.573   5.979   1.498  0.0040 -0.4056  0.5131
15889TIP3    H169158   1.493   5.931   1.521  1.7063 -2.7133  2.0034
15889TIP3    H269159   1.639   5.911   1.486  1.4428  1.3044 -2.4058
15890TIP3   OH269160   2.272   4.393  14.788  0.5615 -0.6742 -0.7478
15890TIP3    H169161   2.276   4.482  14.753 -0.3860 -0.6361 -0.7601
15890TIP3    H269162   2.186   4.360  14.763  0.3893 -1.1328  0.3590
15891TIP3   OH269163   4.524   3.516  10.947 -0.1278  0.1804  0.3741
15891TIP3    H169164   4.445   3.565  10.970 -2.2230 -1.4923 -2.6747
15891TIP3    H269165   4.577   3.577  10.896 -1.3573  0.2162 -0.9177
15892TIP3   OH269166   5.813   5.115  13.672  0.6197  0.8032  0.0822
15892TIP3    H169167   5.899   5.076  13.660  1.0979  1.4990  1.1270
15892TIP3    H269168   5.775   5.069  13.747  0.4777  1.1379  0.2224
15893TIP3   OH269169   4.780   5.776   6.148  0.3356 -0.9210 -0.1284
15893TIP3    H169170   4.813   5.720   6.077  0.9000 -1.1105  0.2824
15893TIP3    H269171   4.759   5.859   6.104  1.4005 -0.7767 -0.3978
15894TIP3   OH269172   3.571   2.295  14.961 -0.2681 -0.6292  0.0518
15894TIP3    H169173   3.487   2.252  14.946 -0.4564  0.3493 -2.0087
15894TIP3    H269174   3.613   2.243  15.030 -2.1204 -1.7272  0.4085
15895TIP3   OH269175   3.777   1.408   5.406  0.2381  0.2414  0.1951
15895TIP3    H169176   3.807   1.368   5.324 -0.6100 -2.1747  0.9838
15895TIP3    H269177   3.850   1.395   5.467 -0.1003 -0.2590  0.4977
15896TIP3   OH269178   3.063   1.921  15.561 -0.4660  0.6006  0.2023
15896TIP3    H169179   3.094   1.890  15.476  1.8577  2.2089  0.3770
15896TIP3    H269180   3.119   1.876  15.625 -1.7889 -0.1267  0.9079
15897TIP3   OH269181   4.090   5.815  15.711  0.4052 -0.0777  0.4585
15897TIP3    H169182   3.997   5.798  15.694  0.2868  0.0183  1.0056
15897TIP3    H269183   4.130   5.813  15.624 -0.2091  0.5305  0.1522
15898TIP3   OH269184   6.556   0.541   5.893 -0.3827  0.8573  0.5740
15898TIP3    H169185   6.472   0.494   5.895 -0.0720  0.2476 -0.1685
15898TIP3    H269186   6.540   0.614   5.833 -0.2331  0.4287  0.0034
15899TIP3   OH269187   2.944   2.406  14.646 -0.6057 -0.6214  0.1509
15899TIP3    H169188   2.982   2.475  14.700  1.6503 -1.6858  0.0508
15899TIP3    H269189   2.990   2.327  14.674 -1.4951 -1.6924 -1.3105
15900TIP3   OH269190   3.525   4.766  14.012 -0.4790  0.1741 -0.4860
15900TIP3    H169191   3.604   4.720  14.042  0.8418  2.7846  0.2882
15900TIP3    H269192   3.529   4.759  13.916  1.4102  1.2488 -0.5414
15901TIP3   OH269193   1.512   5.524  11.583 -0.2639  0.3408  0.1977
15901TIP3    H169194   1.565   5.523  11.503  1.2042 -0.4179  1.1364
15901TIP3    H269195   1.486   5.616  11.594 -1.5661  0.2756 -1.7866
15902TIP3   OH269196   6.470   3.540  11.133  0.5331 -0.1423  0.1836
15902TIP3    H169197   6.504   3.591  11.207 -0.3745  0.3848  0.2451
15902TIP3    H269198   6.543   3.483  11.109  0.6794 -0.7249  1.8442
15903TIP3   OH269199   2.747   4.912   1.064 -0.6810  0.2611  0.4864
15903TIP3    H169200   2.713   4.877   1.146  0.2140 -1.1651  0.2656
15903TIP3    H269201   2.841   4.922   1.079 -0.5139  0.0116 -0.3520
15904TIP3   OH269202   5.219   5.999  15.602  0.2739 -0.5630 -0.5104
15904TIP3    H169203   5.231   5.999  15.507  0.9607  0.9629 -0.4472
15904TIP3    H269204   5.305   6.024  15.637 -0.2309 -0.1690  0.4734
15905TIP3   OH269205   6.434   2.613   3.960  0.1398  0.3333 -0.2261
15905TIP3    H169206   6.387   2.629   4.042 -0.4257 -0.5501 -0.3539
15905TIP3    H269207   6.405   2.683   3.902 -0.0425  0.5294  0.0990
15906TIP3   OH269208   5.687   2.910   6.769 -0.0708 -0.2410 -0.3806
15906TIP3    H169209   5.718   2.833   6.721 -1.1968 -1.0095  0.0744
15906TIP3    H269210   5.628   2.954   6.708  0.1369 -0.0525 -0.4444
15907TIP3   OH269211   0.251   0.822  16.703 -0.3769  0.5192  0.2612
15907TIP3    H169212   0.305   0.864  16.636  0.5148 -1.0686 -0.0828
15907TIP3    H269213   0.313   0.771  16.755 -1.3869 -0.3070  0.6862
15908TIP3   OH269214   0.773   4.904   4.844  0.1969  0.2997 -1.1160
15908TIP3    H169215   0.744   4.978   4.791 -1.7415  1.1786  0.9746
15908TIP3    H269216   0.800   4.944   4.927  0.5840 -1.2135 -0.4794
15909TIP3   OH269217   1.155   3.000   2.856  0.2690  0.1526  0.1078
15909TIP3    H169218   1.087   2.961   2.801  1.4310  1.0785 -2.1403
15909TIP3    H269219   1.220   2.931   2.868  1.3842  0.6922 -2.2200
15910TIP3   OH269220   6.422   2.998   3.223 -0.3483 -0.0164  0.4168
15910TIP3    H169221   6.510   2.977   3.194 -0.5711 -0.6717  0.1735
15910TIP3    H269222   6.394   3.071   3.168  0.1933  0.4713  0.7863
15911TIP3   OH269223   1.307   0.840  11.998 -0.9321 -0.2966  0.2708
15911TIP3    H169224   1.364   0.856  11.923 -0.2226  0.6772  1.0077
15911TIP3    H269225   1.228   0.890  11.979 -0.6580  0.1420  0.2847
15912TIP3   OH269226   6.313   2.899  16.865 -0.0917 -0.6056 -0.4010
15912TIP3    H169227   6.322   2.828  16.928 -1.0413 -1.6076 -1.3595
15912TIP3    H269228   6.255   2.962  16.907  0.8865 -0.3020  0.5223
15913TIP3   OH269229   6.430   5.138  14.039 -0.4375 -0.1400 -0.5141
15913TIP3    H169230   6.519   5.170  14.055 -1.5052  3.2044 -0.3137
15913TIP3    H269231   6.404   5.098  14.122  0.7845 -0.9915 -0.5114
15914TIP3   OH269232   5.254   5.019  15.269  0.0911 -0.1977  0.2147
15914TIP3    H169233   5.292   5.106  15.259  0.8226 -0.6649 -1.3932
15914TIP3    H269234   5.164   5.034  15.296  0.1533  1.0531 -0.2491
15915TIP3   OH269235   5.776   4.938   1.443 -0.5989  0.1103  0.3548
15915TIP3    H169236   5.866   4.908   1.460 -0.2002 -0.3575 -2.2498
15915TIP3    H269237   5.721   4.871   1.483  0.1596  0.4685  2.1047
15916TIP3   OH269238   3.878   6.064  13.102 -0.1994 -0.2382  0.3219
15916TIP3    H169239   3.849   6.087  13.014  1.9002  0.6114 -0.2113
15916TIP3    H269240   3.910   6.146  13.139 -0.9366 -0.6104  1.8517
15917TIP3   OH269241   2.239   0.973  14.081 -0.2448  0.2049  0.2912
15917TIP3    H169242   2.329   0.977  14.113 -0.2253  2.1467  0.0724
15917TIP3    H269243   2.248   0.955  13.987  0.0260  2.3096 -0.1180
15918TIP3   OH269244   2.209   1.280   5.591 -0.1230  0.1329  1.0445
15918TIP3    H169245   2.214   1.361   5.643 -0.8762 -0.0132  1.3601
15918TIP3    H269246   2.217   1.309   5.500  0.9568  0.4169  1.2122
15919TIP3   OH269247   3.486   3.199  16.851 -0.3449  0.0756  0.5111
15919TIP3    H169248   3.401   3.214  16.894 -0.4887  1.6150 -0.2615
15919TIP3    H269249   3.546   3.256  16.898 -0.2052  0.6653 -0.3695
15920TIP3   OH269250   5.717   4.614   6.441  0.4076  0.7265 -0.0936
15920TIP3    H169251   5.757   4.658   6.516  0.4773  0.0688  0.2644
15920TIP3    H269252   5.698   4.684   6.379  0.6430  1.2385  0.4067
15921TIP3   OH269253   1.942   4.992  16.364  0.3889  0.2227  0.6036
15921TIP3    H169254   1.846   4.985  16.371  0.2612  2.3165  1.5177
15921TIP3    H269255   1.967   5.050  16.436  2.2393  0.5571 -0.2678
15922TIP3   OH269256   2.882   2.317  15.212  0.2478  0.0598  0.5628
15922TIP3    H169257   2.812   2.381  15.202 -0.6219 -1.1600 -2.1633
15922TIP3    H269258   2.918   2.306  15.123  2.7902 -0.5975  1.5713
15923TIP3   OH269259   4.465   4.514   3.215 -0.2613  0.3248 -0.0386
15923TIP3    H169260   4.557   4.493   3.199 -0.3761 -0.6076  0.4298
15923TIP3    H269261   4.432   4.439   3.265 -1.8210 -0.3747 -1.9886
15924TIP3   OH269262   4.788   5.912  13.402  0.3158 -0.3362  0.6839
15924TIP3    H169263   4.709   5.875  13.440  0.5581 -3.7422 -1.6443
15924TIP3    H269264   4.846   5.837  13.390  1.8818  1.1671 -2.3332
15925TIP3   OH269265   0.452   6.219   3.898 -0.2906 -0.3168  0.3381
15925TIP3    H169266   0.495   6.155   3.955 -1.7601 -0.8125  0.9565
15925TIP3    H269267   0.449   6.300   3.950  0.0011 -0.2424  0.2410
15926TIP3   OH269268   6.172   0.971  15.476  0.1565 -0.3259  0.5947
15926TIP3    H169269   6.079   0.973  15.455  0.3972 -1.1309 -0.6497
15926TIP3    H269270   6.202   1.061  15.463 -0.3657 -0.1498  0.6151
15927TIP3   OH269271   2.448   3.978  14.851 -0.1284 -0.2012 -0.2493
15927TIP3    H169272   2.497   3.898  14.868 -2.3058 -1.6370 -0.2370
15927TIP3    H269273   2.436   3.979  14.756 -2.7561 -1.6909 -0.0307
15928TIP3   OH269274   4.415   3.191   1.732 -0.1537  0.1851  0.0562
15928TIP3    H169275   4.508   3.177   1.750 -0.1954 -0.1891 -0.0219
15928TIP3    H269276   4.383   3.106   1.701 -0.7432  0.0430  1.0091
15929TIP3   OH269277   6.274   1.393   2.167 -0.4077 -0.0338  0.4105
15929TIP3    H169278   6.231   1.422   2.248 -1.6105  1.6614 -0.7904
15929TIP3    H269279   6.219   1.426   2.097  2.2036  1.2079 -1.2166
15930TIP3   OH269280   0.624   5.559  16.050  0.0845  0.2499  0.3542
15930TIP3    H169281   0.538   5.521  16.069  0.3452 -0.4007  0.2726
15930TIP3    H269282   0.636   5.545  15.956  0.2892  0.3056  0.3726
15931TIP3   OH269283   5.466   4.493   3.552  0.3412  0.3607  0.4331
15931TIP3    H169284   5.392   4.538   3.592 -0.0340 -0.2067  0.3767
15931TIP3    H269285   5.539   4.555   3.562 -0.4569  1.5685 -0.8368
15932TIP3   OH269286   1.436   3.625   0.766  0.3942 -0.5239 -0.1943
15932TIP3    H169287   1.457   3.553   0.825 -2.3381 -1.6424 -0.4655
15932TIP3    H269288   1.376   3.587   0.702  1.6942  1.1381 -2.5741
15933TIP3   OH269289   4.545   4.279   4.096 -0.3022  0.0008  0.4335
15933TIP3    H169290   4.571   4.304   4.185 -1.2523 -0.5922  0.8975
15933TIP3    H269291   4.496   4.198   4.108  1.9757 -1.6914 -0.9155
15934TIP3   OH269292   2.333   5.562  12.856 -0.2960 -0.1468 -0.4199
15934TIP3    H169293   2.264   5.565  12.923  1.5571  0.7711  1.5553
15934TIP3    H269294   2.335   5.651  12.820  1.8954  0.8352  1.8391
15935TIP3   OH269295   5.497   2.603   6.724  0.3146  0.5030  0.1174
15935TIP3    H169296   5.455   2.687   6.740  1.4845  1.0136  0.6810
15935TIP3    H269297   5.430   2.538   6.744 -0.6311  1.2942 -0.4096
15936TIP3   OH269298   3.978   3.870   6.143  0.3774  0.3804  0.4350
15936TIP3    H169299   3.924   3.871   6.063  1.2894  1.4254 -0.1888
15936TIP3    H269300   4.018   3.783   6.143 -0.0795  0.1631  0.0670
15937TIP3   OH269301   4.299   0.105  12.715  0.2657 -0.0436 -0.1713
15937TIP3    H169302   4.219   0.083  12.763 -0.6226  0.0333 -1.5496
15937TIP3    H269303   4.285   0.068  12.627 -0.0531  3.2928 -1.7059
15938TIP3   OH269304   3.133   2.798   1.872  0.4528  0.4900 -0.0939
15938TIP3    H169305   3.179   2.881   1.879 -0.3533  0.7776  3.1377
15938TIP3    H269306   3.193   2.733   1.909 -0.3780  0.3238  1.0277
15939TIP3   OH269307   0.594   3.080  15.775 -0.1197  0.4784  0.0091
15939TIP3    H169308   0.569   3.055  15.686  0.3624  0.6430 -0.1744
15939TIP3    H269309   0.591   2.998  15.824  2.0689 -0.1094 -0.7246
15940TIP3   OH269310   3.727   2.369  14.244 -0.6437 -0.3444  0.2149
15940TIP3    H169311   3.785   2.443  14.263 -2.3490  0.2093  4.2191
15940TIP3    H269312   3.761   2.298  14.298 -0.9938 -1.4856 -1.0268
15941TIP3   OH269313   4.534   0.172   4.394  0.0368 -0.3326 -0.1978
15941TIP3    H169314   4.587   0.247   4.420 -0.3129 -0.7607  1.8814
15941TIP3    H269315   4.478   0.154   4.469 -1.9330 -0.9210 -1.7084
15942TIP3   OH269316   1.569   0.392   3.555  0.0900 -0.2319 -0.0148
15942TIP3    H169317   1.506   0.357   3.618  1.0972  0.3013  1.3572
15942TIP3    H269318   1.645   0.415   3.609 -0.0120  2.8010 -0.9952
15943TIP3   OH269319   3.995   6.535  14.511 -0.5775 -0.0372 -0.1805
15943TIP3    H169320   3.974   6.455  14.559 -0.9108  0.4247  0.4719
15943TIP3    H269321   3.926   6.543  14.445  1.2264 -1.9980 -2.4906
15944TIP3   OH269322   3.949   5.944   1.929  0.1072 -0.0939 -0.5181
15944TIP3    H169323   3.884   5.996   1.883  1.1231  1.2932 -0.4706
15944TIP3    H269324   4.033   5.976   1.896  0.8871  0.7788  2.0302
15945TIP3   OH269325   2.218   2.176   0.196 -0.2509  0.5195  0.2339
15945TIP3    H169326   2.151   2.231   0.155 -0.8582 -1.2111 -1.2705
15945TIP3    H269327   2.301   2.221   0.180 -0.8458  1.6109  0.1847
15946TIP3   OH269328   0.316   4.620  14.505  0.1165  0.3481  0.5706
15946TIP3    H169329   0.300   4.567  14.583 -0.4849 -0.0388  0.1983
15946TIP3    H269330   0.410   4.634  14.503  0.2216 -0.2960  0.9446
15947TIP3   OH269331   6.348   0.680   6.695  0.1468  0.0475  0.2477
15947TIP3    H169332   6.382   0.649   6.611 -1.0744 -0.8191  0.0482
15947TIP3    H269333   6.283   0.615   6.720 -2.4188  2.3129 -0.0915
15948TIP3   OH269334   2.014   2.684   0.566  0.6069  0.7422 -0.6236
15948TIP3    H169335   1.942   2.745   0.583  0.8519  0.8628 -0.0108
15948TIP3    H269336   2.073   2.733   0.507  0.3730  0.7780 -0.8293
15949TIP3   OH269337   6.089   5.356  13.667  0.4408  0.2838  0.2532
15949TIP3    H169338   6.128   5.305  13.737 -0.9961 -1.2225  0.0115
15949TIP3    H269339   6.106   5.306  13.588  0.9527  1.3383 -0.3286
15950TIP3   OH269340   4.032   1.857  13.254 -0.1346 -0.1515  0.7105
15950TIP3    H169341   4.030   1.789  13.321 -1.1414 -1.5212 -0.6387
15950TIP3    H269342   4.108   1.834  13.200  1.8904  2.0762  2.4172
15951TIP3   OH269343   2.357   5.857  16.393 -0.3003  0.6524 -0.2579
15951TIP3    H169344   2.336   5.928  16.332  1.8742 -0.2734 -2.2603
15951TIP3    H269345   2.387   5.901  16.472 -2.2792  1.9123 -0.1508
15952TIP3   OH269346   1.471   1.070   5.852  0.5139  0.4940  0.5313
15952TIP3    H169347   1.520   1.002   5.805  0.8382  0.7363  0.5160
15952TIP3    H269348   1.506   1.068   5.941 -0.0659  0.0687  0.7543
15953TIP3   OH269349   5.011   5.492   3.534 -0.2173  0.0200  1.0361
15953TIP3    H169350   5.010   5.498   3.629  1.7982 -0.7569  1.1337
15953TIP3    H269351   5.086   5.544   3.507 -1.1806  0.8303 -0.2120
15954TIP3   OH269352   1.199   5.210  11.787  0.3357  0.0964 -0.2816
15954TIP3    H169353   1.158   5.159  11.717  0.3445  0.0791 -0.2747
15954TIP3    H269354   1.282   5.240  11.749 -0.2857  1.2714 -0.7576
15955TIP3   OH269355   5.797   2.862  14.415 -0.2464  0.4548  0.0412
15955TIP3    H169356   5.785   2.887  14.323  0.1625  0.5975  0.0233
15955TIP3    H269357   5.723   2.900  14.461 -2.5303 -2.6072 -0.7479
15956TIP3   OH269358   2.979   2.047  16.621 -0.5042  0.0327  0.0524
15956TIP3    H169359   3.058   2.095  16.596 -0.2405 -0.6401 -0.4135
15956TIP3    H269360   2.908   2.092  16.576 -0.3911  0.6147  0.4387
15957TIP3   OH269361   1.768   0.540  16.842  0.5450 -0.3074 -0.1238
15957TIP3    H169362   1.765   0.513  16.751  0.4877 -2.8297  0.5747
15957TIP3    H269363   1.689   0.593  16.854 -0.0861 -0.9690 -1.2331
15958TIP3   OH269364   3.621   2.120  13.599  0.4363  0.2246  0.2340
15958TIP3    H169365   3.536   2.128  13.641  0.3270 -1.0912  0.3040
15958TIP3    H269366   3.606   2.146  13.508  0.0101  0.2156  0.3023
15959TIP3   OH269367   5.159   1.201   0.425  0.4417 -0.4006 -0.0979
15959TIP3    H169368   5.160   1.106   0.436  0.5453 -0.5700 -1.4069
15959TIP3    H269369   5.105   1.216   0.348  0.7173  0.5847 -0.1122
15960TIP3   OH269370   4.048   1.965  11.089 -0.2371  0.4940  0.1009
15960TIP3    H169371   4.119   1.966  11.154  0.4175  0.4004 -0.5913
15960TIP3    H269372   4.063   2.044  11.037 -0.4151  0.2727 -0.2899
15961TIP3   OH269373   3.172   5.873   1.186 -0.2015 -0.1380 -0.1927
15961TIP3    H169374   3.244   5.878   1.249  1.4043 -0.2274 -1.9632
15961TIP3    H269375   3.135   5.961   1.184 -0.0110 -0.0319  0.5290
15962TIP3   OH269376   1.636   1.825  15.517 -0.0513  0.2377  0.1478
15962TIP3    H169377   1.644   1.742  15.566  0.9260  0.0819 -0.2563
15962TIP3    H269378   1.654   1.801  15.426 -2.4637  0.4086 -0.4451
15963TIP3   OH269379   4.273   0.508   6.018 -0.1699 -0.5256  0.1912
15963TIP3    H169380   4.251   0.446   6.087 -1.4965 -1.4522 -0.9941
15963TIP3    H269381   4.189   0.525   5.974  0.0710  2.3983  0.6728
15964TIP3   OH269382   1.709   0.706   5.492  0.0122  0.0743 -0.9434
15964TIP3    H169383   1.694   0.800   5.501  0.6549  0.3221 -2.2495
15964TIP3    H269384   1.719   0.692   5.398  0.3564 -1.2290 -0.7314
15965TIP3   OH269385   0.982   6.669   3.046 -0.5953 -0.1628 -0.2066
15965TIP3    H169386   1.035   6.748   3.059  0.3882 -0.8851  0.3337
15965TIP3    H269387   1.027   6.601   3.097 -1.7570 -0.9361 -0.1588
15966TIP3   OH269388   4.230   6.129  12.539  0.2453  0.0086  0.2194
15966TIP3    H169389   4.200   6.039  12.530 -1.6176  0.7395 -2.0321
15966TIP3    H269390   4.243   6.159  12.448  1.7832  1.7336  0.9359
15967TIP3   OH269391   3.680   3.709   2.752 -0.8560 -0.0385 -0.2528
15967TIP3    H169392   3.591   3.685   2.778 -0.1807 -1.8910  0.4624
15967TIP3    H269393   3.701   3.652   2.679  0.6290 -1.4547  1.2011
15968TIP3   OH269394   6.696   1.739  16.081  0.0370  0.5116 -0.3701
15968TIP3    H169395   6.617   1.720  16.029 -0.1020  0.3716 -0.1121
15968TIP3    H269396   6.664   1.744  16.171  0.5653 -1.1981 -0.0571
15969TIP3   OH269397   2.955   0.907  12.865 -0.5009 -0.3518  0.2082
15969TIP3    H169398   2.915   0.922  12.950  1.3820  0.2920  1.0498
15969TIP3    H269399   2.882   0.899  12.804 -1.8647  0.3437  1.6940
15970TIP3   OH269400   5.231   6.104   6.082 -0.1206 -0.5205  0.1867
15970TIP3    H169401   5.257   6.082   5.993  0.3656  0.9401 -0.0617
15970TIP3    H269402   5.312   6.101   6.133  0.6490  3.3638 -0.4539
15971TIP3   OH269403   0.227   4.981   3.976  0.0772 -0.3830 -0.1338
15971TIP3    H169404   0.305   4.961   4.027  1.0132  1.8887 -0.5424
15971TIP3    H269405   0.232   4.922   3.901 -0.3050 -2.4228  1.3594
15972TIP3   OH269406   0.323   1.091  16.704 -0.0128 -0.5586 -0.3513
15972TIP3    H169407   0.258   1.158  16.681  0.0154 -0.6816 -0.7836
15972TIP3    H269408   0.273   1.022  16.747 -0.0145 -0.1708  0.2970
15973TIP3   OH269409   2.190   5.228   1.678  0.7755  0.3788  0.0427
15973TIP3    H169410   2.156   5.140   1.664  1.6576  0.0331  0.0556
15973TIP3    H269411   2.124   5.286   1.639  0.4427 -0.3066 -0.4205
15974TIP3   OH269412   5.162   4.096  16.429  0.3663 -0.5097 -0.2616
15974TIP3    H169413   5.219   4.094  16.352  0.3222  3.1467 -0.5423
15974TIP3    H269414   5.222   4.101  16.503  0.3914 -3.3286  0.0185
15975TIP3   OH269415   2.418   1.702  12.324  0.1914  0.2831  0.3454
15975TIP3    H169416   2.424   1.608  12.306 -1.2255  0.5457 -1.8143
15975TIP3    H269417   2.472   1.714  12.402 -0.1355 -2.4292  1.1111
15976TIP3   OH269418   2.172   2.806  11.331  0.1456 -0.1232  0.4085
15976TIP3    H169419   2.224   2.747  11.386  2.5669  1.9744  0.5847
15976TIP3    H269420   2.088   2.761  11.320  1.6128 -3.2929  0.9571
15977TIP3   OH269421   2.030   4.359  12.472  0.5543  0.4185  0.5908
15977TIP3    H169422   1.992   4.380  12.387 -0.5828 -1.3374  0.6200
15977TIP3    H269423   2.033   4.443  12.518  1.6871  1.5006 -1.3325
15978TIP3   OH269424   0.111   1.705  14.146  0.1705  0.1621 -0.1255
15978TIP3    H169425   0.131   1.763  14.219 -1.8035  1.0139 -0.1824
15978TIP3    H269426   0.195   1.688  14.104  1.0316  1.5579  0.9524
15979TIP3   OH269427   2.365   1.275  16.684  0.1815  0.0372 -0.1729
15979TIP3    H169428   2.355   1.367  16.707  2.2311  0.2689 -0.0623
15979TIP3    H269429   2.361   1.273  16.588  1.6651  0.4943 -0.2724
15980TIP3   OH269430   3.633   4.944   0.083  0.1801 -0.0993 -0.0254
15980TIP3    H169431   3.615   5.014   0.020 -1.3514  0.5893  1.1231
15980TIP3    H269432   3.607   4.980   0.168  0.1956 -1.7490  0.7213
15981TIP3   OH269433   5.122   6.663   0.015 -0.5547 -0.4039  0.3361
15981TIP3    H169434   5.214   6.683   0.032 -1.0741  1.0922  1.6696
15981TIP3    H269435   5.104   6.584   0.066 -0.9566  1.5661  3.5374
15982TIP3   OH269436   4.354   0.016  14.365  0.0133  0.2650 -0.1124
15982TIP3    H169437   4.385  -0.048  14.300 -0.2783  0.7101 -0.6990
15982TIP3    H269438   4.258   0.011  14.359 -0.0160  0.2910  0.3104
15983TIP3   OH269439   6.678   0.966   5.387  0.1401 -0.0380 -0.8261
15983TIP3    H169440   6.637   0.969   5.301 -0.4092 -0.6032 -0.5927
15983TIP3    H269441   6.613   1.003   5.446 -1.4439 -3.7836  0.0434
15984TIP3   OH269442   0.928   3.569  16.695 -0.0050 -0.0718 -0.5594
15984TIP3    H169443   0.894   3.480  16.707  1.2135 -0.2984  1.8660
15984TIP3    H269444   1.021   3.556  16.674  0.5999  0.5961  1.5139
15985TIP3   OH269445   5.171   3.038   0.865 -0.0489  0.3312 -0.3451
15985TIP3    H169446   5.091   3.055   0.814  0.6120 -1.7236 -2.2314
15985TIP3    H269447   5.242   3.074   0.812  0.4175  1.1206  0.7692
15986TIP3   OH269448   2.850   0.641   1.405  0.7047 -0.2182 -0.5892
15986TIP3    H169449   2.762   0.667   1.376  0.4876 -0.0095  0.2400
15986TIP3    H269450   2.843   0.632   1.500  2.5132  3.8298  0.1503
15987TIP3   OH269451   0.994   1.111   1.784 -0.2466  0.2162 -0.1507
15987TIP3    H169452   0.907   1.141   1.811 -0.1560  0.8683 -0.5617
15987TIP3    H269453   0.984   1.017   1.770 -0.5969  0.0783  0.9473
15988TIP3   OH269454   5.580   1.239  13.773  0.3073 -0.1157 -0.5217
15988TIP3    H169455   5.594   1.316  13.718 -1.3690  0.2078 -0.5693
15988TIP3    H269456   5.655   1.237  13.833 -0.4536  2.6170  0.6623
15989TIP3   OH269457   3.462   1.794  12.368  0.3591 -0.0254 -0.3940
15989TIP3    H169458   3.539   1.844  12.342  0.5144  1.1814  2.0438
15989TIP3    H269459   3.395   1.814  12.303  2.2903 -1.9052 -3.1687
15990TIP3   OH269460   2.736   1.856   3.145 -0.6999 -0.4722  0.4277
15990TIP3    H169461   2.654   1.871   3.193 -0.6146 -2.8998  1.4743
15990TIP3    H269462   2.707   1.825   3.059 -0.8419  0.2245  0.2118
15991TIP3   OH269463   0.416   5.795  16.690 -0.1335  0.2759 -0.0918
15991TIP3    H169464   0.351   5.757  16.749  1.0367 -2.1855 -0.2507
15991TIP3    H269465   0.398   5.754  16.605  0.2084  1.3279 -0.6830
15992TIP3   OH269466   5.647   4.645   3.224 -0.1624 -0.3015  0.1898
15992TIP3    H169467   5.703   4.708   3.178 -1.8350 -0.9575 -3.0255
15992TIP3    H269468   5.639   4.571   3.164 -3.0989 -0.9705  1.2350
15993TIP3   OH269469   3.546   5.155   0.345  0.2235  0.2646  0.1887
15993TIP3    H169470   3.632   5.157   0.387 -0.0555  1.2238  0.7540
15993TIP3    H269471   3.517   5.247   0.345 -1.2923 -0.1729  1.0823
15994TIP3   OH269472   3.941   3.441  14.614 -0.4462  0.7828  0.0290
15994TIP3    H169473   3.946   3.467  14.522 -0.4808 -0.1806 -0.2582
15994TIP3    H269474   3.858   3.477  14.646 -0.3876  1.2001 -0.2875
15995TIP3   OH269475   5.479   0.835   0.844  0.0265  0.3977  0.0923
15995TIP3    H169476   5.570   0.814   0.867  1.2517  3.8174 -0.9680
15995TIP3    H269477   5.430   0.824   0.925  2.0801  1.5516  1.5914
15996TIP3   OH269478   2.686   4.636   2.623 -0.1439 -0.3932 -0.5150
15996TIP3    H169479   2.780   4.626   2.606  0.1365 -2.2131  1.7159
15996TIP3    H269480   2.648   4.553   2.595 -1.1149  0.2891 -1.3011
15997TIP3   OH269481   1.620   0.951   5.518 -0.0416  0.0072 -0.2065
15997TIP3    H169482   1.622   1.046   5.509 -0.7133  0.1844  1.2316
15997TIP3    H269483   1.557   0.921   5.453  0.1318  0.5497 -0.6246
15998TIP3   OH269484   0.144   0.101  14.041 -0.2207 -0.6200  0.3116
15998TIP3    H169485   0.126   0.181  14.089 -1.4645  0.3791 -1.6704
15998TIP3    H269486   0.217   0.060  14.087 -0.2570  1.1009  1.9889
15999TIP3   OH269487   1.277   5.872   2.246 -0.0545 -0.0523 -0.2253
15999TIP3    H169488   1.189   5.890   2.213 -1.0979 -2.6078  0.8586
15999TIP3    H269489   1.322   5.830   2.173 -0.1931  0.0671 -0.3781
16000TIP3   OH269490   3.545   4.096  15.863  0.4266 -0.3155 -0.2565
16000TIP3    H169491   3.623   4.113  15.915 -0.4311 -0.2752  1.0657
16000TIP3    H269492   3.546   4.163  15.795  0.3543  1.1483  1.1405
16001TIP3   OH269493   3.708   0.102  11.134  0.6885 -0.4692 -0.6435
16001TIP3    H169494   3.772   0.032  11.146  0.3676 -0.8038 -0.8377
16001TIP3    H269495   3.624   0.062  11.158  0.5544 -0.0313 -0.3714
16002TIP3   OH269496   4.572   2.266   1.499 -0.0781 -0.2690 -0.0879
16002TIP3    H169497   4.612   2.180   1.486  3.1127  0.8997  1.0293
16002TIP3    H269498   4.508   2.252   1.568 -0.5574 -1.9683 -0.8154
16003TIP3   OH269499   5.325   5.209   0.495 -0.2431 -0.2623  0.0811
16003TIP3    H169500   5.232   5.221   0.478 -0.1324 -0.4873 -0.7037
16003TIP3    H269501   5.358   5.159   0.420  0.1960 -1.5941  1.1127
16004TIP3   OH269502   5.703   2.901   4.945 -0.0587 -0.4623  0.5878
16004TIP3    H169503   5.636   2.899   4.877  0.9741  1.2499 -0.5437
16004TIP3    H269504   5.786   2.911   4.898  1.1929 -3.5819  1.8747
16005TIP3   OH269505   5.907   5.024  13.138 -0.1627 -0.1749 -0.2955
16005TIP3    H169506   5.885   5.028  13.045  0.0376 -1.6499 -0.4393
16005TIP3    H269507   5.977   5.087  13.150  0.0547 -0.2326 -1.2238
16006TIP3   OH269508   6.388   1.625   5.875  0.2661  0.6626  0.3673
16006TIP3    H169509   6.372   1.615   5.969  1.3745 -1.1929  0.4031
16006TIP3    H269510   6.475   1.588   5.861 -0.1877  0.2037 -1.5106
16007TIP3   OH269511   6.097   6.437  14.407  0.3267  0.0865  0.0619
16007TIP3    H169512   6.058   6.421  14.321  3.1567  1.2703 -1.5970
16007TIP3    H269513   6.096   6.532  14.417  0.9931  0.0278  0.8271
16008TIP3   OH269514   6.732   1.960   3.436  0.1835  0.1676  0.4265
16008TIP3    H169515   6.722   2.013   3.515 -1.1787  1.6692 -0.6842
16008TIP3    H269516   6.643   1.949   3.403  0.0916 -4.4048  1.4720
16009TIP3   OH269517   4.728   0.342  10.946 -0.5999  0.2878  0.6748
16009TIP3    H169518   4.807   0.374  10.902  0.2803  0.7360  2.4824
16009TIP3    H269519   4.678   0.422  10.966 -1.3190  0.0374 -0.0606
16010TIP3   OH269520   6.009   5.335  14.336  0.8614  0.8592 -0.1175
16010TIP3    H169521   6.038   5.425  14.348 -0.4299  1.3268 -0.3190
16010TIP3    H269522   5.938   5.324  14.400  0.1891  0.3931 -0.9164
16011TIP3   OH269523   0.020   6.651  10.772 -0.0777  0.4759 -0.4297
16011TIP3    H169524   0.001   6.583  10.708  0.6460 -0.6292  0.4862
16011TIP3    H269525   0.006   6.733  10.725  0.0851 -0.2989 -1.8806
16012TIP3   OH269526   4.322   2.142   3.028 -0.3704  0.4723 -0.1931
16012TIP3    H169527   4.386   2.161   3.097  0.2596 -0.9095 -0.3785
16012TIP3    H269528   4.333   2.213   2.965  2.7299 -0.9283 -1.4301
16013TIP3   OH269529   3.288   5.753   0.359 -0.0467  0.3352  0.3523
16013TIP3    H169530   3.303   5.703   0.438  0.9701  0.7394  0.4252
16013TIP3    H269531   3.350   5.826   0.364 -0.5029  0.7952 -0.4401
16014TIP3   OH269532   5.570   2.166   5.560 -0.4677  0.3393  0.1987
16014TIP3    H169533   5.518   2.190   5.636 -1.5694  2.5919 -1.1821
16014TIP3    H269534   5.653   2.211   5.573  0.2363 -1.1109  1.0918
16015TIP3   OH269535   4.212   5.227  10.502  0.3695 -0.3234 -0.8671
16015TIP3    H169536   4.210   5.288  10.429 -1.1583  2.1115  1.0635
16015TIP3    H269537   4.291   5.249  10.550 -1.0425  1.5339  0.7998
16016TIP3   OH269538   3.313   3.068   0.626 -0.3248 -0.1001 -0.3857
16016TIP3    H169539   3.318   3.163   0.641  1.3318 -0.2183 -0.0893
16016TIP3    H269540   3.366   3.029   0.695 -1.8630 -1.3508  0.1576
16017TIP3   OH269541   3.444   2.447  13.040  0.1301  0.1183 -0.1150
16017TIP3    H169542   3.455   2.464  13.134  0.8436 -1.4765  0.1280
16017TIP3    H269543   3.442   2.352  13.033 -0.1028  0.2129 -1.7071
16018TIP3   OH269544   4.085   5.510  13.445  0.1820  0.0798  0.6104
16018TIP3    H169545   4.028   5.582  13.470  0.4969  0.3867  0.4652
16018TIP3    H269546   4.031   5.432  13.453 -0.2217  0.3540  0.5784
16019TIP3   OH269547   4.754   2.997  16.018 -0.0246 -0.4298  0.0235
16019TIP3    H169548   4.659   2.997  16.015 -0.0188 -0.9789 -0.1886
16019TIP3    H269549   4.781   3.047  15.941 -0.1724  2.6657  1.8303
16020TIP3   OH269550   0.141   0.538   0.484  0.5697  0.3689 -0.8531
16020TIP3    H169551   0.054   0.511   0.513  0.3062  1.1397 -0.8901
16020TIP3    H269552   0.164   0.611   0.542  1.4381 -0.1966 -0.4741
16021TIP3   OH269553   0.149   4.133  13.049 -0.1763 -0.2132 -0.1677
16021TIP3    H169554   0.229   4.167  13.008  0.0714  0.5790  0.9172
16021TIP3    H269555   0.106   4.083  12.980  0.9431 -0.1306 -0.9564
16022TIP3   OH269556   2.330   4.891   5.303 -0.0826 -0.5669 -0.4829
16022TIP3    H169557   2.254   4.859   5.255 -0.1026 -0.8653 -0.2519
16022TIP3    H269558   2.388   4.815   5.309  0.3093 -0.2994 -0.8062
16023TIP3   OH269559   2.610   1.855  17.053 -0.5381  0.2045  0.6342
16023TIP3    H169560   2.524   1.889  17.077 -0.2835  0.5067  1.1151
16023TIP3    H269561   2.667   1.931  17.052  0.2785 -0.3301  2.8142
16024TIP3   OH269562   1.905   4.430   3.063 -0.1229  0.3450  0.3343
16024TIP3    H169563   1.934   4.401   3.149 -0.3240 -0.6371  0.0861
16024TIP3    H269564   1.903   4.525   3.069  1.7102  0.3934  0.8193
16025TIP3   OH269565   5.276   3.983   5.186 -0.3457 -0.4381  0.0466
16025TIP3    H169566   5.269   4.016   5.096  1.2259  0.3021  0.1604
16025TIP3    H269567   5.186   3.963   5.211 -1.2343  2.3213 -0.6132
16026TIP3   OH269568   6.429   6.415  16.407 -0.8291 -0.2024  0.2236
16026TIP3    H169569   6.427   6.339  16.465  0.3054 -0.2472  0.2341
16026TIP3    H269570   6.521   6.442  16.405 -0.9175  0.1147 -1.1377
16027TIP3   OH269571   5.644   1.503  14.068 -0.2867  0.6259  0.5986
16027TIP3    H169572   5.665   1.410  14.060  1.3283  0.7994  2.1400
16027TIP3    H269573   5.635   1.518  14.162 -0.5904  2.0169  0.3771
16028TIP3   OH269574   6.685   4.155  12.810  0.0771 -0.6223  0.1083
16028TIP3    H169575   6.761   4.099  12.797  0.0390 -0.3502 -1.5063
16028TIP3    H269576   6.611   4.103  12.780 -0.2294 -0.4417  0.5347
16029TIP3   OH269577   5.029   6.318  14.636 -0.4768  0.4626 -0.1126
16029TIP3    H169578   5.022   6.371  14.715 -0.3317  1.0111 -0.4613
16029TIP3    H269579   4.960   6.351  14.579  0.6100  1.3651 -0.9487
16030TIP3   OH269580   3.426   0.313   2.391 -0.4649  0.0909 -0.2876
16030TIP3    H169581   3.407   0.281   2.479 -0.6765 -0.2202 -0.4436
16030TIP3    H269582   3.512   0.355   2.399 -0.6430  0.3843  0.1427
16031TIP3   OH269583   6.077   2.315   3.398 -0.3629  0.3723  0.2882
16031TIP3    H169584   6.055   2.405   3.421 -0.0242  0.6732 -0.5352
16031TIP3    H269585   6.137   2.323   3.324  0.3426 -0.5028  0.7341
16032TIP3   OH269586   4.734   4.454   3.199  0.3471 -0.2106  0.3517
16032TIP3    H169587   4.796   4.414   3.259  0.3010  1.6141  1.6974
16032TIP3    H269588   4.788   4.492   3.130  0.6358  0.1421  0.7667
16033TIP3   OH269589   2.394   6.317  16.027  0.5956  0.3442  0.2911
16033TIP3    H169590   2.302   6.331  16.006  0.8155  1.6323  0.0994
16033TIP3    H269591   2.438   6.317  15.942  0.7972 -0.0427  0.3968
16034TIP3   OH269592   5.937   0.001  15.760 -0.7211 -0.1822  0.8015
16034TIP3    H169593   5.978  -0.048  15.830  0.5215  0.3667  0.4821
16034TIP3    H269594   5.908  -0.065  15.697  0.4028 -0.5560  0.6559
16035TIP3   OH269595   4.085   6.565   0.821  0.1219  0.5765  0.2520
16035TIP3    H169596   4.177   6.539   0.820  0.1684  0.7376 -0.5869
16035TIP3    H269597   4.038   6.485   0.797  0.0937  0.6683  0.0018
16036TIP3   OH269598   5.945   1.677   5.621  0.0035  0.2076 -0.3463
16036TIP3    H169599   6.003   1.652   5.549 -2.6440 -0.5596 -2.3424
16036TIP3    H269600   5.874   1.726   5.580 -0.0149  2.6479  2.2298
16037TIP3   OH269601   2.075   2.172  11.825 -0.7115  0.0432  0.2747
16037TIP3    H169602   2.101   2.093  11.872  0.2284  1.3014  2.0014
16037TIP3    H269603   2.022   2.221  11.889 -0.2426  1.3593 -0.3144
16038TIP3   OH269604   2.031   1.864  16.885  0.3055  1.0020  0.6440
16038TIP3    H169605   1.940   1.842  16.905  0.3512  1.2243  1.0952
16038TIP3    H269606   2.057   1.925  16.954  0.9793  0.4763  0.8633
16039TIP3   OH269607   6.299   5.525  13.628  0.2695 -0.2228  0.1377
16039TIP3    H169608   6.213   5.485  13.618 -0.0758  0.7363 -0.9182
16039TIP3    H269609   6.286   5.595  13.692  0.0118  0.5782 -0.7688
16040TIP3   OH269610   2.842   2.724   6.582  0.2922  0.2529  0.3414
16040TIP3    H169611   2.801   2.774   6.512  0.2293  1.0383  0.9388
16040TIP3    H269612   2.836   2.633   6.552 -2.2405  0.2838  0.6006
16041TIP3   OH269613   6.237   5.062  13.461  0.5111 -0.4952  0.2176
16041TIP3    H169614   6.280   4.980  13.484 -0.1597 -0.6637  0.9115
16041TIP3    H269615   6.299   5.130  13.486  0.2725 -0.7229  1.4670
16042TIP3   OH269616   2.146   2.913   0.481 -0.4540 -0.1583  0.4783
16042TIP3    H169617   2.122   2.903   0.388  1.8501 -3.6562  0.0880
16042TIP3    H269618   2.209   2.985   0.481  0.6209 -1.0368 -0.9711
16043TIP3   OH269619   5.766   6.154  13.727 -0.2660  0.1942 -0.3341
16043TIP3    H169620   5.808   6.135  13.643  0.3615  0.7670 -0.1608
16043TIP3    H269621   5.677   6.179  13.704 -0.5315 -1.0360 -0.7121
16044TIP3   OH269622   4.111   3.479  12.403  0.0443  0.3723 -0.2462
16044TIP3    H169623   4.081   3.484  12.312  1.5978  1.4617 -0.7435
16044TIP3    H269624   4.206   3.465  12.396  0.8963  4.2922  1.0488
16045TIP3   OH269625   0.510   3.364  12.000 -0.5209 -0.3872 -0.0841
16045TIP3    H169626   0.460   3.295  12.044  0.4768 -0.4186  1.0410
16045TIP3    H269627   0.489   3.353  11.907 -1.1851 -1.5338  0.1790
16046TIP3   OH269628   2.842   0.143  12.982 -0.1803 -0.2960 -0.4088
16046TIP3    H169629   2.782   0.182  13.045 -0.7504 -1.0896 -0.4481
16046TIP3    H269630   2.904   0.093  13.035  0.5836  0.6609 -0.3550
16047TIP3   OH269631   2.373   6.178   2.088  0.3388 -0.0079  0.7054
16047TIP3    H169632   2.388   6.113   2.157  0.5364 -0.3871  0.3099
16047TIP3    H269633   2.340   6.127   2.014 -1.4706  0.5966  1.0444
16048TIP3   OH269634   4.563   0.607   5.487 -0.1474 -0.1310 -0.4387
16048TIP3    H169635   4.623   0.682   5.491 -1.3638  0.8116  1.5764
16048TIP3    H269636   4.619   0.532   5.506  0.8165  0.4413 -0.8966
16049TIP3   OH269637   2.305   1.508  16.886  0.4788  0.1963 -0.1851
16049TIP3    H169638   2.387   1.547  16.915  0.3246  0.2374  0.1981
16049TIP3    H269639   2.267   1.573  16.826  0.0377  0.8189  0.7435
16050TIP3   OH269640   1.212   0.883  15.787 -0.4565 -0.2113 -0.1961
16050TIP3    H169641   1.124   0.861  15.756  0.5639 -1.8741 -2.1464
16050TIP3    H269642   1.222   0.833  15.868 -1.3847  0.1694  0.1599
16051TIP3   OH269643   1.825   1.825   3.373  0.2119  0.7714 -0.2109
16051TIP3    H169644   1.748   1.813   3.428  0.5335  0.6483  0.2181
16051TIP3    H269645   1.805   1.904   3.322 -1.1055 -0.4587 -1.6832
16052TIP3   OH269646   1.589   3.764  16.193 -0.0880 -0.0320  0.5247
16052TIP3    H169647   1.559   3.766  16.102  2.1511  0.6063 -0.2437
16052TIP3    H269648   1.591   3.855  16.220  0.7363 -0.0937  0.6885
16053TIP3   OH269649   4.591   5.615   3.948  0.3128 -0.1097 -0.3689
16053TIP3    H169650   4.616   5.681   4.014 -1.1734 -0.2787  0.4015
16053TIP3    H269651   4.630   5.647   3.867  2.8446 -0.2650  0.6780
16054TIP3   OH269652   5.814   4.676  16.446  0.4872  0.4250 -0.5252
16054TIP3    H169653   5.859   4.610  16.497  0.7186  0.8505 -0.1675
16054TIP3    H269654   5.778   4.629  16.371 -1.5747 -0.5968  1.0123
16055TIP3   OH269655   5.639   5.338   3.249 -0.2527  0.0688  0.1780
16055TIP3    H169656   5.611   5.411   3.194  0.2991 -0.9154 -1.4825
16055TIP3    H269657   5.665   5.270   3.187 -1.8226 -1.9881  1.6203
16056TIP3   OH269658   0.496   2.422   0.681 -0.0746 -0.4324 -0.0527
16056TIP3    H169659   0.542   2.490   0.731 -3.4013  0.8319  1.5550
16056TIP3    H269660   0.441   2.470   0.619 -0.3510 -1.8219 -0.9445
16057TIP3   OH269661   5.759   1.574  12.815  0.4036  0.2387  0.3077
16057TIP3    H169662   5.714   1.558  12.898  0.5661  1.3435  0.6253
16057TIP3    H269663   5.739   1.665  12.794 -1.1326 -0.4886 -1.7890
16058TIP3   OH269664   3.540   6.805  17.031  0.1578 -0.0750 -0.5860
16058TIP3    H169665   3.619   6.752  17.040 -0.2213 -0.5190  0.1890
16058TIP3    H269666   3.490   6.788  17.111 -0.2155  1.0455 -0.5671
16059TIP3   OH269667   6.436   3.231  14.730  0.2120 -0.5718 -0.0962
16059TIP3    H169668   6.457   3.219  14.823 -2.5488 -0.9289  0.5933
16059TIP3    H269669   6.460   3.147  14.690  2.1650 -0.1410  0.0910
16060TIP3   OH269670   5.027   1.226   4.162 -0.0367  0.0151 -0.3022
16060TIP3    H169671   5.081   1.212   4.239 -0.2689 -0.0117 -0.1428
16060TIP3    H269672   4.946   1.264   4.196 -0.2047 -0.1508 -0.5133
16061TIP3   OH269673   1.673   0.646   5.029  0.0356 -0.4572 -0.0786
16061TIP3    H169674   1.625   0.728   5.025 -1.5669 -1.2715  1.4617
16061TIP3    H269675   1.611   0.580   4.998  1.1580 -1.1856 -0.8937
16062TIP3   OH269676   5.870   4.053  14.872 -0.1545  0.1193 -0.0396
16062TIP3    H169677   5.895   3.969  14.832 -0.6731 -0.4998  0.8879
16062TIP3    H269678   5.780   4.038  14.903  0.8318 -0.0950  3.0094
16063TIP3   OH269679   4.017   5.620   6.259  0.1531 -0.2452  0.8268
16063TIP3    H169680   3.933   5.592   6.222  0.4285 -0.0533  0.0353
16063TIP3    H269681   4.019   5.581   6.346  0.6007 -2.8272 -0.2532
16064TIP3   OH269682   5.808   0.471   5.486 -0.8059  0.0375  0.3339
16064TIP3    H169683   5.801   0.402   5.552  2.5271  0.8801  1.7644
16064TIP3    H269684   5.814   0.552   5.537  1.3803  0.7691 -0.9735
16065TIP3   OH269685   3.592   2.808  10.736 -0.1479  0.6822 -0.5623
16065TIP3    H169686   3.533   2.783  10.664  0.8269 -0.8857 -0.8492
16065TIP3    H269687   3.540   2.796  10.815 -0.1636 -0.9885 -0.7923
16066TIP3   OH269688   4.459   0.812   1.825  0.4595 -0.0786  0.2628
16066TIP3    H169689   4.457   0.777   1.736 -1.3940 -1.9028  0.9335
16066TIP3    H269690   4.522   0.757   1.871 -1.2819 -1.6484  0.9173
16067TIP3   OH269691   3.754   0.572  11.382 -0.0127 -0.5561  0.5508
16067TIP3    H169692   3.725   0.543  11.295 -1.2611 -2.1310  1.4483
16067TIP3    H269693   3.849   0.583  11.372 -0.0394 -1.3323 -0.8648
16068TIP3   OH269694   5.789   5.971   4.084  0.2628 -0.5743  0.4450
16068TIP3    H169695   5.744   6.053   4.101 -0.4159 -0.9090  0.2781
16068TIP3    H269696   5.871   5.996   4.041  0.6757  0.1007  1.5761
16069TIP3   OH269697   2.483   3.137   3.097  0.4271  0.2949  0.6447
16069TIP3    H169698   2.566   3.140   3.144 -0.2717  0.9846  1.9084
16069TIP3    H269699   2.419   3.110   3.164 -0.7172  2.0369  0.3097
16070TIP3   OH269700   1.832   4.342  10.500 -0.2619  0.1347 -0.1237
16070TIP3    H169701   1.778   4.416  10.529 -0.3935  0.0123 -0.0528
16070TIP3    H269702   1.779   4.299  10.433 -0.6755 -0.5512  0.6268
16071TIP3   OH269703   5.807   6.588   2.632 -0.1089  0.1304  0.0416
16071TIP3    H169704   5.766   6.540   2.561  1.1646 -0.4701 -0.3120
16071TIP3    H269705   5.825   6.522   2.699  1.2254  0.1805 -0.2505
16072TIP3   OH269706   3.383   0.621   0.747 -0.0379 -0.4636 -0.4894
16072TIP3    H169707   3.288   0.633   0.751  0.2419  2.2465 -0.0176
16072TIP3    H269708   3.419   0.700   0.788  2.4459 -1.0295 -1.3804
16073TIP3   OH269709   2.856   4.010   5.366  0.2230 -0.2804  0.5408
16073TIP3    H169710   2.825   4.052   5.445 -0.4183 -3.0604  1.9099
16073TIP3    H269711   2.804   4.049   5.296 -1.1053  0.3705  1.8437
16074TIP3   OH269712   0.026   2.896  10.517  0.6560  0.3533 -0.2302
16074TIP3    H169713  -0.002   2.827  10.457  0.5955  1.9967 -2.1806
16074TIP3    H269714  -0.048   2.906  10.578  1.3805 -2.4773  1.3097
16075TIP3   OH269715   6.490   3.374   1.106 -0.8400  0.1158 -0.8311
16075TIP3    H169716   6.475   3.407   1.017  0.0976  0.5342 -0.8480
16075TIP3    H269717   6.520   3.284   1.094  0.9110  0.6839 -1.0716
16076TIP3   OH269718   1.140   2.874  14.400  0.2283  0.0725 -0.0258
16076TIP3    H169719   1.044   2.870  14.395  0.2587 -1.1916 -0.1505
16076TIP3    H269720   1.169   2.799  14.348  1.2978  0.5883 -0.1921
16077TIP3   OH269721   0.034   0.963  11.005 -0.0412  0.3470  0.4951
16077TIP3    H169722  -0.049   0.917  11.002 -0.3978  0.9955  0.0974
16077TIP3    H269723   0.100   0.896  10.987 -0.5531  0.0203 -0.2224
16078TIP3   OH269724   0.329   6.797  10.810 -0.3025  0.1962 -0.0965
16078TIP3    H169725   0.326   6.792  10.905  1.4863 -0.2063 -0.0327
16078TIP3    H269726   0.297   6.885  10.789 -1.0916  0.1443  0.8314
16079TIP3   OH269727   5.969   4.667   1.093 -0.1626 -0.3465 -0.3917
16079TIP3    H169728   5.909   4.613   1.041 -1.7322 -0.8496  1.8067
16079TIP3    H269729   5.915   4.740   1.123  0.4393 -0.5402  1.2346
16080TIP3   OH269730   6.527   1.867   3.948 -0.1789 -0.7332 -0.1933
16080TIP3    H169731   6.461   1.819   3.999 -0.4095 -0.4983 -0.2688
16080TIP3    H269732   6.496   1.862   3.858 -0.2048 -0.4437 -0.2014
16081TIP3   OH269733   6.584   6.454   1.084 -0.4053 -0.3507  0.5819
16081TIP3    H169734   6.552   6.426   0.999  3.3423  2.9865 -2.2826
16081TIP3    H269735   6.558   6.546   1.090  1.2132  0.0596  2.0381
16082TIP3   OH269736   3.202   4.918  12.019  0.4099  0.6038 -0.1598
16082TIP3    H169737   3.108   4.933  12.014  0.1537  0.1899  2.3346
16082TIP3    H269738   3.240   5.005  12.026  0.2627  0.7818 -1.3488
16083TIP3   OH269739   3.373   2.197  13.702 -0.3342  0.5038 -0.1588
16083TIP3    H169740   3.344   2.288  13.696  1.1797  1.0790  0.6773
16083TIP3    H269741   3.382   2.181  13.796 -1.3069 -0.7765 -0.2557
16084TIP3   OH269742   3.854   2.089  10.594  0.6543  0.2352  0.0010
16084TIP3    H169743   3.898   2.048  10.520  0.9052 -0.3077  0.4403
16084TIP3    H269744   3.896   2.174  10.604  0.1808  0.5767 -0.8746
16085TIP3   OH269745   6.673   5.053  14.841 -0.5527 -1.0504 -0.2952
16085TIP3    H169746   6.742   5.004  14.885 -1.3889  0.1569  2.6157
16085TIP3    H269747   6.592   5.010  14.867 -1.2125  0.9223  1.1927
16086TIP3   OH269748   5.015   1.674   4.625 -0.5141 -0.2557 -0.0658
16086TIP3    H169749   5.059   1.648   4.706  0.5618 -0.6358 -0.7542
16086TIP3    H269750   4.976   1.593   4.593 -0.6388 -0.1764 -0.1134
16087TIP3   OH269751   2.039   6.773  15.197  0.7171 -0.1839  0.5573
16087TIP3    H169752   1.991   6.777  15.115  0.8080 -0.1439  0.5063
16087TIP3    H269753   2.087   6.691  15.193  1.1674  0.0835  0.3223
16088TIP3   OH269754   1.733   6.736   1.084  0.4146 -0.0146 -0.0774
16088TIP3    H169755   1.676   6.734   1.007 -0.4680  0.3789  0.5557
16088TIP3    H269756   1.732   6.646   1.117  2.9238 -0.9031 -1.9958
16089TIP3   OH269757   1.186   5.793  13.055  0.3006  0.0685  0.6720
16089TIP3    H169758   1.180   5.888  13.065 -0.9674 -0.1570  2.5234
16089TIP3    H269759   1.191   5.779  12.961  0.5983  1.9698  0.3674
16090TIP3   OH269760   4.924   2.547   3.106 -0.0937 -0.3255 -0.6349
16090TIP3    H169761   4.889   2.539   3.017  0.6943  0.1655 -0.9990
16090TIP3    H269762   5.010   2.588   3.094  0.4968 -1.2631  0.2616
16091TIP3   OH269763   3.815   5.595   4.496  0.0429  0.1798  0.2130
16091TIP3    H169764   3.906   5.622   4.513  0.3948 -0.4919 -0.5315
16091TIP3    H269765   3.794   5.633   4.412 -0.0778 -0.3485 -0.0005
16092TIP3   OH269766   0.983   2.584   4.465  0.0399  0.2337 -0.7118
16092TIP3    H169767   1.047   2.596   4.394  0.3726  0.1853 -0.4223
16092TIP3    H269768   0.899   2.603   4.424  0.3056  0.9907 -0.9247
16093TIP3   OH269769   1.013   2.506  15.770  0.3181 -0.1037 -0.2131
16093TIP3    H169770   1.025   2.588  15.722 -2.5576  0.9270  0.6122
16093TIP3    H269771   1.102   2.476  15.788  1.5017  2.7603 -0.6897
16094TIP3   OH269772   1.680   5.498  14.833 -0.2097  0.1972 -0.1930
16094TIP3    H169773   1.730   5.434  14.884 -2.2194 -0.4155  1.1050
16094TIP3    H269774   1.615   5.446  14.787 -0.7255  1.1423 -0.5475
16095TIP3   OH269775   4.320   1.359  17.057 -0.1220  0.3361 -0.2735
16095TIP3    H169776   4.349   1.448  17.039 -0.4221  0.6999  0.9364
16095TIP3    H269777   4.341   1.345  17.150 -1.6946 -0.1993  0.0332
16096TIP3   OH269778   2.552   3.790  13.125  0.5145  0.0448 -0.5594
16096TIP3    H169779   2.645   3.807  13.141  0.3186  0.4582  0.1810
16096TIP3    H269780   2.524   3.861  13.068  0.9286 -0.7571 -1.8011
16097TIP3   OH269781   2.990   5.313   6.239 -0.4534 -0.0611  0.2049
16097TIP3    H169782   3.030   5.269   6.314  2.4094  1.6640 -0.1663
16097TIP3    H269783   2.998   5.406   6.259 -0.4744  0.4216 -1.8402
16098TIP3   OH269784   5.636   2.025  12.679 -0.4179  0.4115 -0.3751
16098TIP3    H169785   5.661   2.102  12.731 -0.2848  2.0620 -2.7387
16098TIP3    H269786   5.689   2.030  12.600 -1.7987 -1.0448 -1.4705
16099TIP3   OH269787   1.785   3.685  15.475 -0.1008  0.6550  0.0212
16099TIP3    H169788   1.776   3.780  15.463 -2.4613  0.2300 -2.6217
16099TIP3    H269789   1.862   3.661  15.423  0.2157  1.0499  0.3026
16100TIP3   OH269790   0.213   1.093   1.239  0.5117 -0.0120 -0.6168
16100TIP3    H169791   0.209   1.180   1.280 -0.5010  0.1585 -1.0475
16100TIP3    H269792   0.261   1.107   1.158  2.0453 -0.2449  0.2130
16101TIP3   OH269793   5.108   1.833  11.056  0.5518 -0.5960 -0.0791
16101TIP3    H169794   5.122   1.836  10.961  2.5638 -0.8064  0.1705
16101TIP3    H269795   5.188   1.795  11.091 -0.2282 -0.6891  1.7155
16102TIP3   OH269796   3.829   5.121  15.404  0.6559  0.5548 -0.3419
16102TIP3    H169797   3.754   5.122  15.464 -0.3617  1.2880 -1.5874
16102TIP3    H269798   3.870   5.036  15.419 -0.4561  0.1127  0.3215
16103TIP3   OH269799   4.371   1.350  13.696  0.0405 -0.3078  0.6374
16103TIP3    H169800   4.407   1.325  13.782  0.4126 -0.0423  0.5656
16103TIP3    H269801   4.405   1.438  13.682 -1.8291  0.5638  1.2258
16104TIP3   OH269802   0.709   1.112   3.888  0.1480 -0.0319  0.1504
16104TIP3    H169803   0.740   1.113   3.797  0.9320  1.2674  0.3921
16104TIP3    H269804   0.700   1.205   3.910 -0.8614 -0.3480  1.1341
16105TIP3   OH269805   1.218   1.110  12.829  0.1576 -0.2477  0.1804
16105TIP3    H169806   1.273   1.188  12.834  3.2514 -2.2270  0.1358
16105TIP3    H269807   1.263   1.054  12.765 -1.7310 -2.2061  0.4542
16106TIP3   OH269808   3.941   4.269  12.512  0.5243 -0.2682 -0.1389
16106TIP3    H169809   4.007   4.258  12.444  1.2658 -0.9636  0.6739
16106TIP3    H269810   3.954   4.358  12.545  0.7341 -0.2389 -0.3027
16107TIP3   OH269811   4.191   6.630  15.365  0.2166  0.0228 -0.0465
16107TIP3    H169812   4.153   6.612  15.279  0.6664 -0.7766 -0.0891
16107TIP3    H269813   4.171   6.552  15.417  2.5925 -0.8888 -0.3525
16108TIP3   OH269814   6.608   2.123   3.995  0.0673 -0.4134 -0.2340
16108TIP3    H169815   6.568   2.036   3.994 -0.2206 -0.2758 -0.8760
16108TIP3    H269816   6.615   2.148   3.903 -1.2406  0.8875 -0.0151
16109TIP3   OH269817   2.784   2.127   0.352  0.6830  1.1390 -0.4400
16109TIP3    H169818   2.764   2.163   0.438 -0.7231  0.1574 -0.3212
16109TIP3    H269819   2.847   2.056   0.370 -0.1743  0.4436 -0.1081
16110TIP3   OH269820   5.108   4.001  12.074  0.6813 -0.4239 -0.5439
16110TIP3    H169821   5.045   3.983  12.144 -0.0903  0.6903 -0.9225
16110TIP3    H269822   5.181   3.942  12.092  0.5734 -0.0625  1.2819
16111TIP3   OH269823   2.311   1.524   5.769 -0.2741  0.0554 -0.0459
16111TIP3    H169824   2.291   1.589   5.836  0.5255 -0.5525  0.8087
16111TIP3    H269825   2.373   1.568   5.710  1.8687 -0.5148  1.6580
16112TIP3   OH269826   1.324   4.935   3.772  0.7581 -0.1592  0.4879
16112TIP3    H169827   1.234   4.929   3.803  0.0043  1.4980 -1.1410
16112TIP3    H269828   1.315   4.958   3.679  2.8631 -0.6248  0.1257
16113TIP3   OH269829   6.074   3.276  16.025  0.3575  0.4769 -0.6634
16113TIP3    H169830   6.078   3.289  16.120 -0.1256 -0.6523 -0.4800
16113TIP3    H269831   6.162   3.298  15.995  0.7102  0.1949  0.1258
16114TIP3   OH269832   2.197   6.619   2.825 -0.4115 -0.3894  0.1191
16114TIP3    H169833   2.121   6.646   2.774 -2.1515 -1.0387  2.2051
16114TIP3    H269834   2.160   6.586   2.907  2.2094  0.3812  1.7133
16115TIP3   OH269835   4.153   1.788   3.783 -0.1661  0.5505 -0.6390
16115TIP3    H169836   4.152   1.812   3.876  1.3408 -0.8122 -0.2192
16115TIP3    H269837   4.064   1.805   3.753 -0.6165  1.2726  0.9792
16116TIP3   OH269838   0.831   0.199   5.557 -0.0454 -0.5767 -0.0580
16116TIP3    H169839   0.768   0.257   5.514  0.6306 -0.3400 -0.7467
16116TIP3    H269840   0.834   0.230   5.648 -2.1207 -1.6247  0.4358
16117TIP3   OH269841   2.387   3.712   5.248 -0.2926 -0.3692  0.4142
16117TIP3    H169842   2.313   3.659   5.219 -0.1869  0.0713 -0.6827
16117TIP3    H269843   2.463   3.675   5.203  0.1229 -0.6193  1.2933
16118TIP3   OH269844   4.850   3.682  16.235  0.2021  0.1317 -0.2042
16118TIP3    H169845   4.922   3.656  16.293  2.0547  2.7850 -1.1314
16118TIP3    H269846   4.870   3.639  16.152 -1.0398 -1.6045  0.3593
16119TIP3   OH269847   3.927   1.949  13.825 -0.0390 -0.5350 -0.3526
16119TIP3    H169848   3.943   1.904  13.908  1.3882 -2.4194 -1.5808
16119TIP3    H269849   3.877   1.887  13.773 -1.2909  0.7936 -0.8002
16120TIP3   OH269850   1.648   6.557  16.437 -0.5854  0.2600  0.2959
16120TIP3    H169851   1.683   6.500  16.506 -1.5302  0.2839  0.8158
16120TIP3    H269852   1.620   6.636  16.483  0.0899  0.8765 -0.3258
16121TIP3   OH269853   0.861   5.238  15.335  0.3136  0.3065 -0.1955
16121TIP3    H169854   0.849   5.333  15.337  0.1644  0.2757  1.4930
16121TIP3    H269855   0.895   5.221  15.247  1.3725  2.0336 -0.1837
16122TIP3   OH269856   4.427   3.333  12.305  0.1288  0.3190 -0.8684
16122TIP3    H169857   4.440   3.239  12.316 -3.2316 -0.3354 -1.5176
16122TIP3    H269858   4.406   3.345  12.213  0.0315  1.6362 -0.7054
16123TIP3   OH269859   0.013   0.093  12.118 -0.1649  0.6544 -0.0360
16123TIP3    H169860   0.063   0.018  12.085 -3.0906 -0.0706 -3.4864
16123TIP3    H269861   0.071   0.168  12.105  0.8700 -0.3792 -1.8925
16124TIP3   OH269862   5.057   4.311   4.054  0.1751 -0.1475 -0.2446
16124TIP3    H169863   5.011   4.248   4.110 -0.1535 -0.5917 -0.9987
16124TIP3    H269864   5.124   4.260   4.010  0.1730  0.1183 -0.5566
16125TIP3   OH269865   3.783   4.029  12.393 -0.0153 -0.3259 -0.4341
16125TIP3    H169866   3.786   4.072  12.478  0.1414 -1.0870 -0.0421
16125TIP3    H269867   3.776   4.100  12.330  1.7732  0.3753  0.1005
16126TIP3   OH269868   5.255   3.660   4.209  0.0576 -0.1944 -0.0011
16126TIP3    H169869   5.304   3.637   4.288  0.7002  0.7307 -0.1155
16126TIP3    H269870   5.309   3.726   4.165 -0.9725  0.3599 -0.4719
16127TIP3   OH269871   2.067   6.300   3.101 -0.3247 -0.3198  0.0702
16127TIP3    H169872   1.979   6.290   3.064 -0.3238 -1.7327  0.3923
16127TIP3    H269873   2.106   6.214   3.093  0.6487  0.0242  0.9280
16128TIP3   OH269874   3.366   0.519   1.521 -0.5343  0.2938 -0.7584
16128TIP3    H169875   3.452   0.529   1.562 -1.4443 -1.5985  1.8792
16128TIP3    H269876   3.325   0.605   1.532  0.8320  1.1279 -1.7608
16129TIP3   OH269877   3.296   1.813  16.796 -0.0507  0.2365 -0.3730
16129TIP3    H169878   3.391   1.807  16.801  0.0636  0.9570 -1.3603
16129TIP3    H269879   3.280   1.903  16.768 -1.0134  0.0441 -0.4547
16130TIP3   OH269880   1.649   1.758  14.198 -0.1736 -0.9859 -0.8021
16130TIP3    H169881   1.627   1.702  14.273 -3.4601  0.2924 -0.6263
16130TIP3    H269882   1.614   1.844  14.222  0.2376 -0.1112 -3.0962
16131TIP3   OH269883   1.262   2.717   5.067  0.6054  0.0975 -0.2147
16131TIP3    H169884   1.356   2.702   5.079  0.2192 -2.5073  0.2679
16131TIP3    H269885   1.233   2.755   5.150  1.0868 -0.0273  0.0129
16132TIP3   OH269886   0.433   5.241  11.953 -0.2429 -0.0091  0.1183
16132TIP3    H169887   0.345   5.276  11.944 -0.1204  1.7682  3.9579
16132TIP3    H269888   0.421   5.156  11.995 -0.1552  0.7363  1.7083
16133TIP3   OH269889   2.623   2.082   1.189  0.3771  0.3852 -0.7644
16133TIP3    H169890   2.597   2.094   1.280  1.5603  0.2485 -0.3986
16133TIP3    H269891   2.623   2.170   1.152  1.2398  0.6021 -0.2554
16134TIP3   OH269892   0.717   2.124  15.843 -0.0458  0.2853 -0.3400
16134TIP3    H169893   0.653   2.067  15.800 -0.5941  0.5023  0.1769
16134TIP3    H269894   0.697   2.212  15.810  0.4282  0.2572 -0.7002
16135TIP3   OH269895   2.038   6.734  11.878  0.1256 -0.1011 -0.7085
16135TIP3    H169896   1.998   6.657  11.838 -2.8891  0.5991  0.6333
16135TIP3    H269897   2.034   6.801  11.810 -1.8510  0.1629 -0.3897
16136TIP3   OH269898   1.405   4.160  11.019 -0.3971 -0.6563  0.4219
16136TIP3    H169899   1.421   4.066  11.032 -2.3379 -0.9529  0.9609
16136TIP3    H269900   1.313   4.165  10.993 -0.3521  1.1157  0.5059
16137TIP3   OH269901   0.179   2.956   0.309 -0.6979  0.1671 -0.0605
16137TIP3    H169902   0.212   2.984   0.224 -0.4247 -0.5366 -0.1952
16137TIP3    H269903   0.092   2.921   0.290 -1.1572  1.1502  0.1502
16138TIP3   OH269904   1.044   1.549  12.730 -0.0293 -0.3984 -0.3691
16138TIP3    H169905   1.139   1.534  12.727 -0.0274 -0.2385 -1.9471
16138TIP3    H269906   1.008   1.479  12.676 -0.8138 -0.3784  0.1151
16139TIP3   OH269907   6.054   4.009  16.015 -0.0877 -0.4861  0.0720
16139TIP3    H169908   5.959   4.010  16.002 -0.4930 -2.1791  2.2129
16139TIP3    H269909   6.090   4.010  15.926 -1.9971  1.8140 -0.8045
16140TIP3   OH269910   1.978   4.424  16.335  0.5029 -0.0856 -0.5399
16140TIP3    H169911   1.957   4.504  16.287  0.5321  0.3995  0.2322
16140TIP3    H269912   2.050   4.450  16.393  0.8596 -0.8122 -0.6484
16141TIP3   OH269913   4.537   2.504  16.288  0.1406  0.4323 -0.0212
16141TIP3    H169914   4.609   2.445  16.308  0.9665  0.8395 -1.6333
16141TIP3    H269915   4.524   2.554  16.368  0.5898 -0.7171  0.7937
16142TIP3   OH269916   6.149   0.115   3.689 -0.6911 -0.4145  0.4079
16142TIP3    H169917   6.100   0.158   3.618 -2.1507 -0.8190  1.1380
16142TIP3    H269918   6.111   0.150   3.769  2.2887  1.6203  1.1331
16143TIP3   OH269919   2.202   1.232  16.175 -0.4451 -0.0851  0.0688
16143TIP3    H169920   2.293   1.202  16.177 -0.3128  0.1688  3.8764
16143TIP3    H269921   2.167   1.195  16.093  2.7881 -0.9063 -1.1052
16144TIP3   OH269922   3.926   0.625  12.486  0.4277 -0.6344 -0.1426
16144TIP3    H169923   3.846   0.659  12.446 -0.0834 -2.1866 -0.5308
16144TIP3    H269924   3.992   0.691  12.467 -0.2851 -0.3337 -1.7330
16145TIP3   OH269925   6.327   3.854  11.751 -0.1225  0.3739  0.4159
16145TIP3    H169926   6.329   3.920  11.821 -0.1385 -1.1754  1.9497
16145TIP3    H269927   6.405   3.800  11.767 -1.0190 -1.0170  0.2767
16146TIP3   OH269928   2.354   4.506  16.686  0.4892  0.3317  0.0688
16146TIP3    H169929   2.338   4.571  16.755 -0.7899 -0.4241  0.5232
16146TIP3    H269930   2.395   4.433  16.732 -0.6651 -0.3085  0.1161
16147TIP3   OH269931   1.688   6.363   1.917 -0.1259  0.1341  0.1229
16147TIP3    H169932   1.679   6.308   1.839 -0.7449  0.3959  0.0013
16147TIP3    H269933   1.598   6.385   1.941  0.1097  1.9556 -0.4638
16148TIP3   OH269934   1.089   6.458  14.084  0.8638  0.1222  0.0965
16148TIP3    H169935   1.010   6.419  14.121 -0.1667 -0.1741 -2.2351
16148TIP3    H269936   1.126   6.511  14.155 -1.6478  0.6020  1.1454
16149TIP3   OH269937   1.911   0.409  15.984 -0.2985 -0.3931 -0.0908
16149TIP3    H169938   1.907   0.378  15.893  0.2623 -0.8897  0.0465
16149TIP3    H269939   1.926   0.503  15.977 -1.5174 -0.2140 -0.5163
16150TIP3   OH269940   2.573   2.717   0.380  0.5782 -0.6267  0.0189
16150TIP3    H169941   2.646   2.779   0.383  2.1044 -2.3416 -0.3917
16150TIP3    H269942   2.598   2.652   0.315 -2.3029 -0.1546 -1.7508
16151TIP3   OH269943   2.025   2.326  12.849 -0.1031 -0.0981 -0.3834
16151TIP3    H169944   1.965   2.352  12.919 -0.4629  0.5867 -0.9404
16151TIP3    H269945   2.086   2.265  12.892 -1.2835 -0.9329  0.1418
16152TIP3   OH269946   4.133   1.672   2.173 -0.9364  0.4891  0.5061
16152TIP3    H169947   4.157   1.648   2.262  0.9589  0.5620  0.0687
16152TIP3    H269948   4.106   1.589   2.133 -1.3140  0.3713  0.9948
16153TIP3   OH269949   5.230   2.321   4.073  0.1650  0.4650  0.1675
16153TIP3    H169950   5.242   2.284   4.161  1.3672 -2.8273 -1.2179
16153TIP3    H269951   5.258   2.251   4.014 -1.1614  2.3275 -2.8928
16154TIP3   OH269952   3.024   4.620   4.711 -0.7785  0.4893  0.2166
16154TIP3    H169953   2.985   4.532   4.704 -0.5230  0.2077  1.9113
16154TIP3    H269954   2.963   4.677   4.663 -0.3744 -0.7361 -1.8977
16155TIP3   OH269955   4.561   4.884   5.761 -0.3119  0.0220 -0.4825
16155TIP3    H169956   4.591   4.830   5.834 -0.4281  0.9747  0.2911
16155TIP3    H269957   4.467   4.894   5.775 -0.5537 -0.7459 -1.4231
16156TIP3   OH269958   4.688   3.169  11.108  0.2742  0.2061 -0.2379
16156TIP3    H169959   4.627   3.186  11.180 -0.2950  2.3453 -1.1594
16156TIP3    H269960   4.634   3.136  11.037  0.3330  1.1911 -0.7451
16157TIP3   OH269961   4.762   2.101  12.657 -0.7092  0.3106  0.4940
16157TIP3    H169962   4.772   2.074  12.749  0.6879 -0.7874  0.0493
16157TIP3    H269963   4.732   2.022  12.612  1.7044 -0.0947 -0.5220
16158TIP3   OH269964   1.134   4.972  17.003  0.6431  0.3250  0.2555
16158TIP3    H169965   1.099   4.893  17.044  0.8599 -0.2208 -0.5884
16158TIP3    H269966   1.229   4.963  17.010  0.7554 -0.6717 -1.9527
16159TIP3   OH269967   0.415   1.450   0.396 -0.0958 -0.5313  0.1191
16159TIP3    H169968   0.504   1.472   0.370  0.1771 -1.9000 -0.1956
16159TIP3    H269969   0.423   1.423   0.487 -0.1221 -1.0064 -0.0173
16160TIP3   OH269970   1.893   0.310   6.486 -0.5627 -0.5419  0.0121
16160TIP3    H169971   1.871   0.283   6.575 -1.0652 -0.1285  0.0161
16160TIP3    H269972   1.983   0.282   6.474  0.0840  0.9011  1.2388
16161TIP3   OH269973   3.475   4.779   3.889 -0.3339  0.3881 -0.0850
16161TIP3    H169974   3.446   4.831   3.815 -0.9112 -0.9711 -0.8500
16161TIP3    H269975   3.571   4.785   3.886 -0.3811  1.1066 -0.3524
16162TIP3   OH269976   2.411   0.305   5.471 -0.0207  0.1357  0.1623
16162TIP3    H169977   2.437   0.273   5.384  0.4330  1.3972 -0.1854
16162TIP3    H269978   2.482   0.275   5.528 -0.1962 -0.4903  0.0584
16163TIP3   OH269979   6.384   4.210   2.433  0.3598 -0.1490 -0.3886
16163TIP3    H169980   6.327   4.161   2.373 -0.7338 -0.7303  1.0693
16163TIP3    H269981   6.375   4.165   2.517  1.0951  1.2236  0.4641
16164TIP3   OH269982   4.080   2.413   1.948  0.6602 -0.5022  0.0786
16164TIP3    H169983   4.073   2.401   2.042  2.3628 -1.2524  0.1476
16164TIP3    H269984   4.060   2.327   1.911 -1.0603  0.0352 -0.3515
16165TIP3   OH269985   3.396   4.494  16.842 -0.5552 -0.3730  0.3137
16165TIP3    H169986   3.326   4.458  16.896 -0.9418  0.7264  0.5751
16165TIP3    H269987   3.366   4.582  16.820  0.9478  0.2946  0.8142
16166TIP3   OH269988   2.113   3.757  13.460 -0.4832  0.2254 -0.1589
16166TIP3    H169989   2.166   3.811  13.400  0.6878 -1.5283 -0.7797
16166TIP3    H269990   2.139   3.786  13.547  3.0840 -1.8279 -0.3497
16167TIP3   OH269991   6.080   4.047   5.512 -0.5405  0.1314  0.2086
16167TIP3    H169992   6.168   4.021   5.539 -0.1410  1.2670  0.0653
16167TIP3    H269993   6.095   4.115   5.445 -1.5055 -1.2005 -1.4275
16168TIP3   OH269994   4.658   4.323   0.408 -0.2664  0.5248  0.5799
16168TIP3    H169995   4.650   4.342   0.315  0.9040 -0.8382  0.1609
16168TIP3    H269996   4.630   4.404   0.452  0.5923  1.7181 -0.9726
16169TIP3   OH269997   2.981   5.876  15.878 -0.1669  0.2482 -0.1156
16169TIP3    H169998   2.908   5.859  15.937 -0.6612 -1.8890 -1.2332
16169TIP3    H269999   2.968   5.815  15.805  0.2687  2.8748 -2.5931
16170TIP3   OH270000   1.114   6.579  15.544 -1.0343  0.1739 -0.2171
16170TIP3    H170001   1.151   6.498  15.579 -1.2652 -0.1775 -0.7595
16170TIP3    H270002   1.035   6.551  15.497 -1.1701  0.7246 -0.3257
16171TIP3   OH270003   0.003   6.613   1.991 -0.3605  0.7952 -0.2473
16171TIP3    H170004  -0.088   6.642   1.985 -0.1098  1.3261 -2.6590
16171TIP3    H270005   0.053   6.694   2.002  0.0833  1.1178 -3.5673
16172TIP3   OH270006   1.101   1.515   2.846  0.2355 -0.2596  0.2218
16172TIP3    H170007   1.041   1.501   2.772  0.3698  1.7020 -0.3436
16172TIP3    H270008   1.044   1.542   2.918  0.1510 -1.6937  0.7063
16173TIP3   OH270009   1.421   2.885  11.259  0.4560  0.3996  0.8817
16173TIP3    H170010   1.330   2.907  11.281 -0.1330 -2.1302  1.2390
16173TIP3    H270011   1.427   2.900  11.165 -0.5904 -0.1891  0.7072
16174TIP3   OH270012   1.653   0.772   2.232  0.0023  0.5520 -0.1898
16174TIP3    H170013   1.731   0.824   2.252 -0.1867  0.3187  1.2661
16174TIP3    H270014   1.580   0.822   2.269 -0.1275 -0.9468  1.7124
16175TIP3   OH270015   1.473   4.184  16.623 -0.0407 -0.1290  0.4878
16175TIP3    H170016   1.558   4.153  16.654 -1.0216 -0.9079  2.6403
16175TIP3    H270017   1.432   4.221  16.701 -1.3825  0.9373 -0.6739
16176TIP3   OH270018   4.634   3.021  13.456  0.7149 -0.0087  0.7155
16176TIP3    H170019   4.648   3.081  13.383  0.7282 -1.9709 -0.9973
16176TIP3    H270020   4.547   3.044  13.489  0.2659  0.2647 -0.5959
16177TIP3   OH270021   2.978   1.960   5.906  0.2339 -0.0826 -0.3366
16177TIP3    H170022   3.026   1.961   5.823 -1.1501 -0.1472 -1.1800
16177TIP3    H270023   3.036   2.004   5.968  0.9413  0.7634 -1.5511
16178TIP3   OH270024   4.297   4.274   2.220  0.0156 -0.1738 -0.3281
16178TIP3    H170025   4.248   4.334   2.164  0.8785  1.6746  0.8236
16178TIP3    H270026   4.361   4.329   2.265 -0.0419 -1.7356  1.8110
16179TIP3   OH270027   1.379   4.296  15.471  0.7286 -0.3087 -0.1118
16179TIP3    H170028   1.338   4.215  15.442  0.6384 -0.6000  0.7976
16179TIP3    H270029   1.321   4.330  15.539  1.8951 -0.6700  1.1246
16180TIP3   OH270030   4.292   4.073  12.912 -0.4651 -0.3318 -0.2958
16180TIP3    H170031   4.371   4.035  12.873 -0.2794 -0.1278 -0.1192
16180TIP3    H270032   4.234   4.088  12.838 -0.5432 -0.9609 -0.3729
16181TIP3   OH270033   1.684   1.243   5.539  0.6017 -0.2336 -0.2490
16181TIP3    H170034   1.737   1.279   5.467  0.0410  0.7331 -0.1978
16181TIP3    H270035   1.594   1.269   5.518  0.0569 -2.1651 -0.5311
16182TIP3   OH270036   2.751   2.541  15.258  0.5648 -0.1003  0.1495
16182TIP3    H170037   2.831   2.579  15.293  0.3308  0.2264  0.3297
16182TIP3    H270038   2.701   2.514  15.335  0.1893  0.3304  0.0588
16183TIP3   OH270039   4.983   2.979   0.572  0.3986  0.0593 -0.1013
16183TIP3    H170040   5.022   3.066   0.565 -0.4302  0.4227 -0.3024
16183TIP3    H270041   5.001   2.937   0.488  1.6113 -0.3179  0.3321
16184TIP3   OH270042   5.120   5.940   5.254  0.0538 -0.6197 -0.2354
16184TIP3    H170043   5.192   5.877   5.253  1.3490  0.8080 -0.4168
16184TIP3    H270044   5.082   5.930   5.341  1.3875 -0.4444  0.4055
16185TIP3   OH270045   2.530   5.023  16.120  0.0056  0.3312 -0.0972
16185TIP3    H170046   2.504   5.010  16.029  0.5306 -0.8317 -0.1013
16185TIP3    H270047   2.569   5.110  16.122 -1.2133  0.9165 -0.6939
16186TIP3   OH270048   5.580   1.877   2.831 -0.3264  0.1157 -0.4174
16186TIP3    H170049   5.547   1.904   2.917  0.7409  0.4458 -0.0870
16186TIP3    H270050   5.625   1.794   2.848 -0.5497 -0.0751 -0.7552
16187TIP3   OH270051   2.918   4.960  12.762 -0.4659 -0.4333  0.1875
16187TIP3    H170052   2.992   4.990  12.815 -0.6842  1.0206 -0.2842
16187TIP3    H270053   2.897   5.035  12.706 -1.3488 -1.3407 -0.7289
16188TIP3   OH270054   1.135   6.305  12.261 -0.2164 -0.0911 -0.4149
16188TIP3    H170055   1.147   6.400  12.271  0.6921 -0.3938  2.0877
16188TIP3    H270056   1.079   6.296  12.184 -0.2695  2.4661 -0.7710
16189TIP3   OH270057   5.757   2.111  11.081  0.5544  0.0503  0.1353
16189TIP3    H170058   5.753   2.043  11.015 -4.5999 -0.6929  0.8078
16189TIP3    H270059   5.723   2.070  11.161 -1.2498  2.8827  1.0002
16190TIP3   OH270060   3.310   2.231  16.984 -0.3199 -0.0215  0.2648
16190TIP3    H170061   3.310   2.175  17.062 -0.8836  1.2364  1.2023
16190TIP3    H270062   3.376   2.297  17.003 -0.4697  0.2990 -0.3249
16191TIP3   OH270063   1.085   2.694   1.585 -0.0833  0.5424 -0.2582
16191TIP3    H170064   1.110   2.626   1.522 -0.2251 -0.1447  0.4107
16191TIP3    H270065   1.139   2.769   1.562  0.9489 -0.1747 -0.2797
16192TIP3   OH270066   3.742   0.585  14.176  0.0318  0.2813  0.6826
16192TIP3    H170067   3.748   0.674  14.210  0.2233  0.8502 -0.7478
16192TIP3    H270068   3.759   0.594  14.082  0.1815 -1.2861  0.5264
16193TIP3   OH270069   4.700   1.050   3.339  0.4659  0.1154  0.4430
16193TIP3    H170070   4.627   0.989   3.329 -0.4327  1.0671  0.8900
16193TIP3    H270071   4.692   1.109   3.264 -0.9028  1.8625  1.8816
16194TIP3   OH270072   0.859   5.145   2.820  0.4123 -0.0253 -0.6139
16194TIP3    H170073   0.802   5.214   2.855 -0.0992 -0.0581 -1.3627
16194TIP3    H270074   0.948   5.178   2.835  0.1848  0.4666 -0.3013
16195TIP3   OH270075   3.541   1.851  14.909 -0.0635 -0.2525 -0.1418
16195TIP3    H170076   3.460   1.851  14.858  0.2322  0.3210 -0.6163
16195TIP3    H270077   3.585   1.769  14.885  0.1555  0.0942 -0.9406
16196TIP3   OH270078   2.176   0.163   4.322 -0.0283  0.1070 -0.1261
16196TIP3    H170079   2.180   0.212   4.404  0.3174 -0.3201  0.1123
16196TIP3    H270080   2.255   0.109   4.322 -0.8950 -1.1776  0.0614
16197TIP3   OH270081   2.493   2.165  14.572  0.7684  0.5105  0.7994
16197TIP3    H170082   2.403   2.180  14.603 -0.0941 -2.2616 -0.0938
16197TIP3    H270083   2.490   2.189  14.480 -0.1904 -2.9362 -0.2180
16198TIP3   OH270084   1.998   2.204   4.654  0.2234  0.8519 -0.3031
16198TIP3    H170085   2.042   2.169   4.732  1.2104  0.1630 -1.1374
16198TIP3    H270086   1.967   2.126   4.607 -0.3800  1.2634 -0.5960
16199TIP3   OH270087   5.578   5.346   3.508  0.6501 -0.2108  0.0056
16199TIP3    H170088   5.589   5.313   3.419  0.8586 -0.7200  0.2205
16199TIP3    H270089   5.534   5.431   3.497  2.7339  0.8533 -0.7273
16200TIP3   OH270090   5.620   5.755   2.829 -0.1538  0.2268 -0.0727
16200TIP3    H170091   5.530   5.737   2.854  0.0379  0.7073  1.0067
16200TIP3    H270092   5.647   5.827   2.885 -0.0106  2.0647 -2.3323
16201TIP3   OH270093   3.175   2.042   2.512 -0.6775  0.2376  0.6760
16201TIP3    H170094   3.266   2.016   2.528 -0.2362  1.0960 -0.2673
16201TIP3    H270095   3.124   1.962   2.521  0.2249 -0.3175  0.8913
16202TIP3   OH270096   0.890   0.276   4.106  0.5762 -0.1224 -0.3282
16202TIP3    H170097   0.799   0.249   4.111  0.9909 -1.3560  2.8484
16202TIP3    H270098   0.928   0.219   4.038 -1.0831  0.9626 -2.2637
16203TIP3   OH270099   1.466   6.330   3.002 -0.1491 -0.7656 -0.3447
16203TIP3    H170100   1.489   6.377   3.082 -1.5739 -2.1559  0.9541
16203TIP3    H270101   1.429   6.396   2.944  0.0010  0.1025  0.5290
16204TIP3   OH270102   3.391   1.275  14.702  0.0788 -0.8088 -0.8456
16204TIP3    H170103   3.480   1.285  14.735 -0.0738 -1.3055 -0.2692
16204TIP3    H270104   3.352   1.207  14.757 -1.4516  1.0623  0.5081
16205TIP3   OH270105   1.789   0.303  13.110 -0.4719 -0.4085 -0.5450
16205TIP3    H170106   1.778   0.380  13.054 -0.9722 -0.2181 -0.1875
16205TIP3    H270107   1.773   0.229  13.051  0.1371 -0.2547 -0.9222
16206TIP3   OH270108   0.552   0.109  15.496 -0.0207 -0.4917 -0.3285
16206TIP3    H170109   0.497   0.085  15.421  0.4499  0.2343 -0.9182
16206TIP3    H270110   0.641   0.088  15.468  0.2160  0.3029 -0.1973
16207TIP3   OH270111   4.257   2.525  15.692 -0.5088  0.1613 -0.0119
16207TIP3    H170112   4.176   2.475  15.690 -0.9249  0.7580  1.0343
16207TIP3    H270113   4.257   2.574  15.610 -0.1333 -1.4382 -1.0223
16208TIP3   OH270114   1.815   0.613   5.258  0.2180 -0.7823  0.0875
16208TIP3    H170115   1.817   0.519   5.274 -2.1618 -0.7763  0.7539
16208TIP3    H270116   1.791   0.621   5.165  0.9016 -0.8145 -0.0972
16209TIP3   OH270117   5.676   4.305   3.631 -0.2791  0.1213 -0.4649
16209TIP3    H170118   5.589   4.342   3.639 -0.0656  0.6925 -0.7795
16209TIP3    H270119   5.732   4.362   3.684  0.0362  0.2149 -0.8941
16210TIP3   OH270120   5.598   4.485  14.671  0.0548  0.2721 -0.0900
16210TIP3    H170121   5.663   4.442  14.616  0.9259  0.8549  0.4531
16210TIP3    H270122   5.557   4.551  14.615  0.7485  0.6786 -0.1351
16211TIP3   OH270123   0.759   3.127  13.796  0.0511  0.2076  0.3198
16211TIP3    H170124   0.712   3.208  13.774 -0.4310 -0.4560 -1.2395
16211TIP3    H270125   0.693   3.069  13.833 -0.2558 -0.4556 -1.1809
16212TIP3   OH270126   1.472   4.915  11.798 -0.0268 -0.3088  0.4062
16212TIP3    H170127   1.552   4.866  11.778 -0.4657 -0.5622 -0.8086
16212TIP3    H270128   1.452   4.963  11.718  0.4541  2.0265  1.5657
16213TIP3   OH270129   0.496   2.344  16.855 -0.0466  0.6885 -0.8413
16213TIP3    H170130   0.541   2.423  16.883  0.4745  0.5661 -1.3170
16213TIP3    H270131   0.521   2.277  16.919 -1.3029  1.1336  0.1613
16214TIP3   OH270132   0.747   0.815   5.395 -0.2201 -0.1736 -0.7762
16214TIP3    H170133   0.714   0.853   5.313  1.1606  3.5178  0.1872
16214TIP3    H270134   0.675   0.824   5.457 -0.5681 -1.0486 -1.0436
16215TIP3   OH270135   5.778   5.145   2.793  0.0068 -0.2472 -0.0570
16215TIP3    H170136   5.841   5.202   2.749 -0.1595  1.0157  1.2524
16215TIP3    H270137   5.805   5.057   2.769  0.6769  0.3456 -1.6170
16216TIP3   OH270138   3.035   6.386  13.199  0.0123  0.0362  0.0137
16216TIP3    H170139   2.993   6.302  13.181  0.7679 -0.5844  1.0466
16216TIP3    H270140   2.965   6.441  13.234 -0.1598 -0.6670  0.7964
16217TIP3   OH270141   0.665   5.123   4.678  0.6800 -0.4990  0.0724
16217TIP3    H170142   0.658   5.161   4.765 -1.9320 -0.7054  0.0239
16217TIP3    H270143   0.704   5.192   4.625 -0.5346  0.7938  0.7925
16218TIP3   OH270144   5.378   1.459  13.225 -0.3352  0.2460  0.2150
16218TIP3    H170145   5.459   1.510  13.234 -0.1594 -0.1490  0.9247
16218TIP3    H270146   5.310   1.525  13.213  0.2826  0.5316 -2.0737
16219TIP3   OH270147   6.536   1.209   1.662  0.0751 -0.3884 -0.1513
16219TIP3    H170148   6.520   1.188   1.754  0.2265 -0.7073 -0.1989
16219TIP3    H270149   6.516   1.303   1.655 -0.6164 -0.5168  0.0506
16220TIP3   OH270150   3.531   5.978   3.142  0.3945 -0.6194  0.0801
16220TIP3    H170151   3.514   5.883   3.148  2.5928 -1.0929 -0.5603
16220TIP3    H270152   3.594   5.996   3.211 -0.4374  0.5381  0.5795
16221TIP3   OH270153   0.946   1.130  16.675 -0.1609  0.9179  0.2155
16221TIP3    H170154   0.992   1.209  16.703 -0.7323  2.0801 -1.9062
16221TIP3    H270155   0.853   1.153  16.679 -0.3165  0.6162 -0.9910
16222TIP3   OH270156   1.733   6.334   2.804  0.6609 -0.4892  0.4106
16222TIP3    H170157   1.804   6.317   2.743  0.7455 -0.9502  0.6356
16222TIP3    H270158   1.656   6.296   2.764  0.8828 -1.6049  0.9949
16223TIP3   OH270159   6.257   6.337  12.526 -0.0294 -0.0733 -0.3089
16223TIP3    H170160   6.220   6.415  12.567 -0.4105 -0.4104 -0.0021
16223TIP3    H270161   6.182   6.279  12.515  0.6072 -1.3587  1.6447
16224TIP3   OH270162   3.924   4.952  16.476  0.4673  0.3525  0.8411
16224TIP3    H170163   3.962   4.865  16.465 -2.1260 -0.7814  0.0657
16224TIP3    H270164   3.935   4.994  16.391 -0.3361 -0.1074  0.5107
16225TIP3   OH270165   0.777   4.475  13.318 -0.2619 -0.4183 -0.7587
16225TIP3    H170166   0.790   4.538  13.247 -2.0306  2.2861  1.0760
16225TIP3    H270167   0.862   4.467  13.360 -0.2114  2.0066 -0.2155
16226TIP3   OH270168   2.640   0.624  13.266  0.5049  0.4608 -0.0986
16226TIP3    H170169   2.673   0.660  13.348  0.0299  0.3308  0.1529
16226TIP3    H270170   2.547   0.609  13.282  0.6244 -0.5869 -0.3014
16227TIP3   OH270171   6.465   3.573  17.185  0.1335  0.2610  0.0247
16227TIP3    H170172   6.516   3.639  17.231  0.1100 -0.9497  1.8959
16227TIP3    H270173   6.405   3.623  17.130  0.4233  1.7810  1.0242
16228TIP3   OH270174   0.683   5.763  15.610 -0.0297  0.2664 -0.3000
16228TIP3    H170175   0.744   5.694  15.581 -1.5158 -0.4915 -1.8201
16228TIP3    H270176   0.596   5.725  15.594 -0.9435  1.0988  2.3050
16229TIP3   OH270177   1.794   6.290   2.385  0.2124  0.3386  0.3945
16229TIP3    H170178   1.741   6.315   2.310 -0.8360 -0.5820  0.8067
16229TIP3    H270179   1.857   6.226   2.351  1.6550  1.9984 -0.2609
16230TIP3   OH270180   5.015   4.942  10.443  0.8151 -0.2608  0.5313
16230TIP3    H170181   4.928   4.903  10.434  1.7227 -2.0984 -1.3643
16230TIP3    H270182   5.005   5.009  10.510 -2.0740 -0.3120  0.2778
16231TIP3   OH270183   0.915   6.027   2.792  0.5947 -0.3523 -0.2910
16231TIP3    H170184   0.850   6.018   2.723  1.3851 -0.6859 -1.0136
16231TIP3    H270185   0.988   5.972   2.764  2.1797  1.8176 -0.7394
16232TIP3   OH270186   4.157   3.196   3.862  0.6471 -0.8637  0.1374
16232TIP3    H170187   4.076   3.234   3.829  0.9832  0.9444  1.2516
16232TIP3    H270188   4.140   3.178   3.954  1.9526  1.0515  0.8147
16233TIP3   OH270189   6.814   0.700  10.733  0.1887 -0.5443  0.3267
16233TIP3    H170190   6.816   0.636  10.662 -1.4073  0.4990 -0.7300
16233TIP3    H270191   6.721   0.713  10.751  0.5517 -0.9160  2.7865
16234TIP3   OH270192   1.365   4.863   5.384 -0.5883  0.6185 -0.1640
16234TIP3    H170193   1.433   4.821   5.437 -0.8002 -1.0398 -1.1449
16234TIP3    H270194   1.410   4.936   5.341  0.4266 -0.0812 -0.3240
16235TIP3   OH270195   6.368   4.126   5.603 -0.8345  0.4108 -0.4077
16235TIP3    H170196   6.346   4.202   5.550 -2.6355 -0.0203 -0.3687
16235TIP3    H270197   6.440   4.084   5.556  0.2057  2.1064 -0.4118
16236TIP3   OH270198   1.009   5.281   4.639  0.2607  0.2541  0.4109
16236TIP3    H170199   0.941   5.296   4.573 -0.6149 -0.7647  1.0650
16236TIP3    H270200   0.994   5.349   4.704 -0.9990 -0.7655  1.2227
16237TIP3   OH270201   2.668   2.917   4.531  0.1547  0.6602  0.5046
16237TIP3    H170202   2.763   2.915   4.524  0.1716  0.0126  0.8348
16237TIP3    H270203   2.639   2.946   4.444  0.6426  0.4890  0.2767
16238TIP3   OH270204   3.361   1.351   4.440  0.3117 -0.3859 -0.3478
16238TIP3    H170205   3.382   1.411   4.511 -0.7588 -1.7651  1.2314
16238TIP3    H270206   3.353   1.407   4.362  0.8646  1.2707  0.7363
16239TIP3   OH270207   5.273   6.575  13.697 -0.4628  0.0492 -0.2345
16239TIP3    H170208   5.313   6.595  13.612 -1.8894 -3.8300 -2.0528
16239TIP3    H270209   5.197   6.632  13.702 -0.1822  0.5494 -1.4180
16240TIP3   OH270210   3.393   2.823   4.874  0.5709  0.1711 -0.4538
16240TIP3    H170211   3.460   2.807   4.808  0.5882  0.7872 -0.5884
16240TIP3    H270212   3.388   2.918   4.882 -1.2287  0.1961 -1.4361
16241TIP3   OH270213   0.380   3.634  16.415 -0.1404  0.1924 -0.4555
16241TIP3    H170214   0.310   3.676  16.365  1.8049  2.1948 -1.6698
16241TIP3    H270215   0.419   3.571  16.354  0.1758  0.3158 -0.3852
16242TIP3   OH270216   2.176   4.982   0.130  0.2539  0.1872 -0.2126
16242TIP3    H170217   2.251   4.993   0.189  0.1877 -2.9004  0.5780
16242TIP3    H270218   2.103   4.961   0.188 -0.5993  0.3816 -1.1886
16243TIP3   OH270219   4.649   5.729   4.841 -0.7268  0.0801 -0.0045
16243TIP3    H170220   4.744   5.739   4.847 -0.7310  1.1700 -1.3021
16243TIP3    H270221   4.625   5.776   4.761 -2.3641 -0.1770  0.3038
16244TIP3   OH270222   0.835   2.998   6.167  0.2817 -0.1449 -0.6926
16244TIP3    H170223   0.874   2.922   6.211  0.5572  0.4694  0.1511
16244TIP3    H270224   0.840   2.977   6.074  3.2319  0.1378 -0.7033
16245TIP3   OH270225   5.112   2.177  16.812 -0.2016  0.1267 -0.0493
16245TIP3    H170226   5.193   2.205  16.770 -0.3805 -2.3539 -2.3047
16245TIP3    H270227   5.136   2.100  16.864 -0.8123  0.4851  0.7964
16246TIP3   OH270228   5.510   6.437   0.154 -0.1692 -0.4999  0.1384
16246TIP3    H170229   5.596   6.473   0.132 -1.2168  2.7424  0.8413
16246TIP3    H270230   5.520   6.404   0.243  0.5500 -0.9798 -0.1106
16247TIP3   OH270231   0.495   2.488  10.739  0.7200  0.5732 -0.4072
16247TIP3    H170232   0.467   2.535  10.818  0.0242 -0.9034  0.2690
16247TIP3    H270233   0.543   2.413  10.772 -1.0101 -1.0107 -1.2663
16248TIP3   OH270234   3.494   5.921   0.855 -0.4259  0.1825  0.0698
16248TIP3    H170235   3.488   5.939   0.761 -0.2196  2.1921  0.4056
16248TIP3    H270236   3.404   5.901   0.881 -0.4624 -0.5090 -0.5692
16249TIP3   OH270237   3.193   4.756   3.859 -0.3249 -0.2326  0.1079
16249TIP3    H170238   3.255   4.829   3.855  1.0567 -1.4086 -1.0027
16249TIP3    H270239   3.107   4.797   3.856  0.4001  1.2934 -2.4917
16250TIP3   OH270240   5.371   2.882  14.101  0.2501  0.4127 -0.0779
16250TIP3    H170241   5.282   2.856  14.123  0.6650 -0.1697  1.0154
16250TIP3    H270242   5.373   2.884  14.006 -0.8152  0.0296 -0.1183
16251TIP3   OH270243   0.794   3.099   5.199  0.4923 -0.0845 -0.1064
16251TIP3    H170244   0.878   3.119   5.159  0.5881 -0.4755 -0.1075
16251TIP3    H270245   0.815   3.038   5.270  0.2162 -0.1616 -0.0895
16252TIP3   OH270246   5.928   4.149   4.132 -0.0257 -0.8943 -0.3458
16252TIP3    H170247   5.952   4.120   4.044  1.3747  1.8584 -0.9842
16252TIP3    H270248   5.995   4.112   4.189  1.0558  0.0314 -0.9723
16253TIP3   OH270249   2.557   0.504   6.323  0.1517  0.4414  0.0911
16253TIP3    H170250   2.485   0.540   6.375 -1.2083 -1.8727 -0.0811
16253TIP3    H270251   2.634   0.511   6.380 -1.2485 -1.8866  2.5047
16254TIP3   OH270252   1.818   4.865  14.358 -0.2858  0.1263  0.0732
16254TIP3    H170253   1.770   4.866  14.440 -0.8575  2.1195 -0.2256
16254TIP3    H270254   1.767   4.921  14.299 -1.6066 -3.5992 -2.7319
16255TIP3   OH270255   3.282   2.713   2.125 -0.0675 -0.2486  0.2485
16255TIP3    H170256   3.229   2.676   2.195 -1.9423  1.5919 -0.0817
16255TIP3    H270257   3.250   2.803   2.116  3.3210  1.0864  0.1550
16256TIP3   OH270258   6.094   4.486   5.507 -0.1113  0.3901  0.0228
16256TIP3    H170259   6.025   4.473   5.572  0.3199 -0.5910  0.3171
16256TIP3    H270260   6.175   4.488   5.558  0.1327  0.8458 -0.3743
16257TIP3   OH270261   4.462   5.317   3.223 -0.1584 -0.7857  0.1507
16257TIP3    H170262   4.426   5.372   3.292 -0.3089 -1.4593  0.6101
16257TIP3    H270263   4.394   5.253   3.204  0.8771 -2.2828  1.2706
16258TIP3   OH270264   3.293   4.577  14.172  0.2625  0.0359  0.5064
16258TIP3    H170265   3.339   4.582  14.088 -1.3961  0.2104 -0.4494
16258TIP3    H270266   3.305   4.486  14.200 -1.5412 -0.8744 -1.4079
16259TIP3   OH270267   3.749   4.994   6.183  0.2950 -0.2978  0.3534
16259TIP3    H170268   3.700   5.076   6.186  1.0468  0.1640  0.3004
16259TIP3    H270269   3.734   4.954   6.269  1.3127  0.7302  1.0375
16260TIP3   OH270270   3.642   1.754  13.458 -0.4623 -0.0449  0.4062
16260TIP3    H170271   3.703   1.824  13.433  0.6840 -0.8215  0.9253
16260TIP3    H270272   3.666   1.680  13.403 -1.3626 -0.1888  0.1872
16261TIP3   OH270273   1.467   1.510  12.256  0.1959 -0.0930  0.2192
16261TIP3    H170274   1.382   1.554  12.256 -0.2654 -0.9687  0.2387
16261TIP3    H270275   1.484   1.491  12.348 -0.5785 -1.7694  0.0489
16262TIP3   OH270276   1.746   2.457   6.055 -0.2543 -0.9296  0.2409
16262TIP3    H170277   1.819   2.444   5.995  1.9027  2.6695  1.7709
16262TIP3    H270278   1.767   2.402   6.131  1.5574  0.7741  1.0761
16263TIP3   OH270279   6.367   2.565  16.300 -0.1182  0.7515 -0.1413
16263TIP3    H170280   6.367   2.657  16.329  0.1897  0.4479  0.8734
16263TIP3    H270281   6.449   2.554  16.253 -0.1139  0.9764 -0.1885
16264TIP3   OH270282   0.807   1.507   5.753 -0.3406 -0.1202 -0.7316
16264TIP3    H170283   0.828   1.584   5.701  1.8734  1.3033  1.9577
16264TIP3    H270284   0.884   1.450   5.745 -0.9064 -0.9069 -0.7363
16265TIP3   OH270285   6.238   3.221   0.794 -0.0718 -0.8035 -0.0144
16265TIP3    H170286   6.154   3.235   0.837 -0.2439 -0.4206 -0.4731
16265TIP3    H270287   6.216   3.196   0.705  0.2854 -1.6517  0.1198
16266TIP3   OH270288   5.171   1.189   5.696 -0.1261  0.2966 -0.1253
16266TIP3    H170289   5.107   1.239   5.647  0.4567  0.7326 -0.4516
16266TIP3    H270290   5.219   1.254   5.747 -0.9670 -0.1745  1.3418
16267TIP3   OH270291   2.638   0.726  14.767  0.2441  0.2992 -0.6087
16267TIP3    H170292   2.662   0.790  14.834 -1.2484  1.3373 -0.9962
16267TIP3    H270293   2.607   0.650  14.817  0.4854  0.5097 -0.1317
16268TIP3   OH270294   2.641   2.901   3.281  0.4560  0.2368  0.6110
16268TIP3    H170295   2.708   2.854   3.330 -0.1561 -0.4519  0.8075
16268TIP3    H270296   2.663   2.886   3.189  1.3351  1.1433  0.6500
16269TIP3   OH270297   6.602   3.936  14.341  0.1728  0.3973 -0.2007
16269TIP3    H170298   6.640   3.979  14.418  3.0505 -1.9476 -0.0893
16269TIP3    H270299   6.639   3.984  14.267  0.6732  0.2019 -0.0847
16270TIP3   OH270300   4.140   3.019   1.515 -0.2084  0.0005  0.0117
16270TIP3    H170301   4.199   3.074   1.462 -0.4560 -1.1995 -1.5938
16270TIP3    H270302   4.198   2.972   1.574  0.0655  1.4739  0.9775
16271TIP3   OH270303   2.617   6.429  10.303  0.4862 -0.4016 -0.3316
16271TIP3    H170304   2.677   6.493  10.342 -0.4246 -0.1689  0.7441
16271TIP3    H270305   2.560   6.481  10.246 -0.2721 -0.2195  0.5644
16272TIP3   OH270306   3.856   3.834   5.041 -0.6423  0.3160 -0.1056
16272TIP3    H170307   3.845   3.841   4.946  2.5917 -1.4403 -0.7706
16272TIP3    H270308   3.935   3.885   5.059  0.2575 -1.4269  1.1770
16273TIP3   OH270309   0.239   2.115   6.688  0.0275 -0.0118  0.4806
16273TIP3    H170310   0.167   2.097   6.749  0.3444 -0.1549  0.8092
16273TIP3    H270311   0.260   2.030   6.650  0.8288 -0.1718  1.2697
16274TIP3   OH270312   1.191   0.444  16.095 -0.3460  0.1382 -0.2259
16274TIP3    H170313   1.268   0.387  16.096  0.0974  0.7325  0.1435
16274TIP3    H270314   1.222   0.525  16.054 -0.6652  0.5278  0.3028
16275TIP3   OH270315   6.591   3.370  16.401 -1.2398  0.2860 -0.2474
16275TIP3    H170316   6.559   3.295  16.352 -1.4853  1.5264 -2.0724
16275TIP3    H270317   6.652   3.333  16.465 -1.6028 -1.4731 -0.8770
16276TIP3   OH270318   5.346   4.914  13.510 -0.0773 -0.0966  0.0702
16276TIP3    H170319   5.370   5.004  13.535  0.8342 -0.0911 -0.7586
16276TIP3    H270320   5.327   4.920  13.416  0.8967 -0.9346 -0.1909
16277TIP3   OH270321   2.774   4.324   5.443 -0.0555 -0.5076 -0.3835
16277TIP3    H170322   2.861   4.316   5.483 -0.9429  0.3444  1.8699
16277TIP3    H270323   2.717   4.273   5.499 -1.3603  0.6346 -0.6285
16278TIP3   OH270324   1.435   0.089  14.313  0.1117  0.4682 -0.1821
16278TIP3    H170325   1.379   0.016  14.286  0.9001 -0.0634 -0.4284
16278TIP3    H270326   1.386   0.167  14.289  0.1549  0.0149 -1.8639
16279TIP3   OH270327   4.220   1.024   1.045 -0.5377  0.3258  0.0839
16279TIP3    H170328   4.208   0.935   1.078 -0.3243  0.2414 -0.0667
16279TIP3    H270329   4.131   1.056   1.030 -0.5895 -0.2612 -0.9377
16280TIP3   OH270330   5.143   5.845   5.594 -0.4367 -0.5835 -1.1868
16280TIP3    H170331   5.128   5.938   5.575 -0.0908 -0.5469 -1.2924
16280TIP3    H270332   5.088   5.798   5.531  0.9007 -0.4690 -2.5200
16281TIP3   OH270333   1.285   0.564   6.608  0.3599 -0.0906 -0.0574
16281TIP3    H170334   1.297   0.657   6.591  0.4763 -0.0533  0.2196
16281TIP3    H270335   1.216   0.537   6.547 -1.9232  0.8757  1.8848
16282TIP3   OH270336   0.759   2.817  13.772  0.2414  0.1091  0.3219
16282TIP3    H170337   0.728   2.727  13.777  0.7411 -0.0042  1.6812
16282TIP3    H270338   0.774   2.843  13.863  1.5684  1.0473 -0.1355
16283TIP3   OH270339   0.824   5.174  12.351 -0.9351  0.9935  0.1648
16283TIP3    H170340   0.747   5.231  12.352 -0.5652  1.5853 -1.3098
16283TIP3    H270341   0.877   5.207  12.278  0.1967 -0.0807  0.4600
16284TIP3   OH270342   4.206   0.147   2.548 -0.3642  0.5907  0.0667
16284TIP3    H170343   4.217   0.161   2.454 -0.9497 -1.2951 -0.3238
16284TIP3    H270344   4.142   0.076   2.555 -0.5318  0.8612  1.9041
16285TIP3   OH270345   0.984   2.078   2.715 -0.4195 -0.1112 -0.0041
16285TIP3    H170346   0.980   2.091   2.810 -2.6151  1.7571 -0.2665
16285TIP3    H270347   1.065   2.029   2.701 -0.4718 -1.2335  2.8966
16286TIP3   OH270348   5.133   4.300  11.990 -0.0219 -0.0028 -0.7240
16286TIP3    H170349   5.148   4.206  12.002  1.7109  0.1904 -1.1084
16286TIP3    H270350   5.058   4.320  12.046  0.8791 -1.2242  1.0031
16287TIP3   OH270351   5.050   4.450  17.071  0.8587 -0.8615  1.0302
16287TIP3    H170352   4.998   4.527  17.051  0.4108 -1.2826  0.5478
16287TIP3    H270353   5.134   4.465  17.028  0.9162 -0.4611  1.2826
16288TIP3   OH270354   4.818   5.660   5.596 -0.2240 -0.0580  0.0050
16288TIP3    H170355   4.889   5.599   5.575 -1.1327 -0.8293 -0.9362
16288TIP3    H270356   4.760   5.611   5.653 -1.5500 -0.5179 -1.6673
16289TIP3   OH270357   0.754   4.498  14.563  0.1224  0.3102  0.2950
16289TIP3    H170358   0.717   4.466  14.480  3.4929 -1.0835 -0.8459
16289TIP3    H270359   0.809   4.427  14.594  0.0099  1.3292  3.1241
16290TIP3   OH270360   3.975   3.430   2.746 -0.5429  0.4067 -0.3642
16290TIP3    H170361   3.880   3.430   2.758 -0.4351  0.3615  0.5962
16290TIP3    H270362   3.987   3.428   2.652 -1.4906 -1.8973 -0.5027
16291TIP3   OH270363   6.112   6.327   1.362 -0.3385 -0.1943 -0.8804
16291TIP3    H170364   6.109   6.389   1.289 -0.1644  1.1746  0.2284
16291TIP3    H270365   6.205   6.325   1.387 -0.4293 -0.4960 -0.5612
16292TIP3   OH270366   5.009   4.120   2.699 -0.0128 -0.5553 -0.1495
16292TIP3    H170367   5.065   4.106   2.775  0.4925  1.0631 -0.1912
16292TIP3    H270368   4.928   4.156   2.735 -0.1055 -0.6137 -0.2989
16293TIP3   OH270369   0.140   0.225   3.409  0.4539  0.0659  0.2415
16293TIP3    H170370   0.075   0.165   3.375  0.3326 -0.3306  1.1485
16293TIP3    H270371   0.153   0.198   3.500 -0.5509  2.1853  1.0765
16294TIP3   OH270372   3.149   5.151   0.832  0.4310 -0.1596 -0.2535
16294TIP3    H170373   3.156   5.191   0.919 -0.4820  0.7717 -0.5858
16294TIP3    H270374   3.114   5.063   0.849  0.0780  0.0850  0.3016
16295TIP3   OH270375   4.748   0.241   1.358 -0.5157 -0.0437  0.4731
16295TIP3    H170376   4.844   0.231   1.359 -0.3893  1.0730  0.7023
16295TIP3    H270377   4.729   0.276   1.272 -0.6921  0.0175  0.5375
16296TIP3   OH270378   1.977   2.953   3.614 -0.0355  0.1139 -0.0428
16296TIP3    H170379   1.926   2.943   3.534 -0.4124 -0.4846  0.2648
16296TIP3    H270380   1.979   2.865   3.653 -1.3857  0.7187  1.5221
16297TIP3   OH270381   3.444   1.498  16.133 -0.1680  0.2282  0.1901
16297TIP3    H170382   3.510   1.481  16.200  0.6562  1.1427 -0.3532
16297TIP3    H270383   3.435   1.415  16.087  0.2848 -0.0308  0.5549
16298TIP3   OH270384   1.000   5.397   5.633 -0.0014 -0.2067  0.2346
16298TIP3    H170385   1.091   5.423   5.614 -0.1552 -0.8150 -1.4906
16298TIP3    H270386   1.008   5.316   5.682  0.3937  0.4515  1.2906
16299TIP3   OH270387   5.669   0.835   0.457  0.3145 -0.0876  0.2590
16299TIP3    H170388   5.701   0.912   0.505 -1.0534 -0.0438  1.1505
16299TIP3    H270389   5.749   0.789   0.431  1.1394  0.5153  1.5836
16300TIP3   OH270390   2.700   1.271   5.838  0.4338 -0.0258  0.1065
16300TIP3    H170391   2.762   1.271   5.912  0.4789  1.1761  0.0880
16300TIP3    H270392   2.752   1.303   5.764  0.4900 -1.5882 -0.5558
16301TIP3   OH270393   4.755   1.985  14.776  0.8652  0.5395  0.1841
16301TIP3    H170394   4.760   2.080  14.779 -0.2818  0.6028  0.4256
16301TIP3    H270395   4.811   1.956  14.849  2.5910  0.9394 -0.9159
16302TIP3   OH270396   3.027   2.911   1.341 -0.2468  0.6864 -0.6095
16302TIP3    H170397   3.083   2.986   1.324  1.3802 -0.1865  0.6234
16302TIP3    H270398   3.051   2.882   1.429 -1.6622 -0.5756 -0.5918
16303TIP3   OH270399   3.026   0.887   4.513  0.3277  0.2158 -0.2296
16303TIP3    H170400   3.022   0.975   4.476 -1.0239  0.5463  0.6369
16303TIP3    H270401   3.087   0.840   4.456  0.1107  1.3530 -1.4450
16304TIP3   OH270402   2.672   2.930   1.555 -0.1102  0.4032  0.4775
16304TIP3    H170403   2.709   2.886   1.479 -2.9119 -0.7131 -0.3720
16304TIP3    H270404   2.657   2.860   1.618 -1.6558  0.5986  0.3709
16305TIP3   OH270405   6.786   6.343  15.452  0.1782 -0.2249 -0.1756
16305TIP3    H170406   6.740   6.387  15.381  0.4513  0.0868 -0.1620
16305TIP3    H270407   6.819   6.262  15.414 -0.1795 -0.3412 -0.2461
16306TIP3   OH270408   1.686   5.148   2.689  0.5082  0.3882  0.0171
16306TIP3    H170409   1.773   5.176   2.718  0.5575  0.8171 -0.5178
16306TIP3    H270410   1.650   5.225   2.644  0.6828 -0.4000 -1.5601
16307TIP3   OH270411   0.082   0.426  15.486  0.0448 -0.0153 -0.6932
16307TIP3    H170412   0.106   0.507  15.532  1.4276 -0.1787 -1.0639
16307TIP3    H270413   0.161   0.371  15.493 -0.6120 -1.0381 -1.0876
16308TIP3   OH270414   4.021   5.249  12.913 -0.1654  0.1921  0.6000
16308TIP3    H170415   4.040   5.155  12.906  1.3859  0.4407  0.9841
16308TIP3    H270416   4.027   5.281  12.823 -0.1690  0.0206  0.5372
16309TIP3   OH270417   4.010   0.192   4.755  0.7232 -0.3842  0.3830
16309TIP3    H170418   4.066   0.268   4.739  0.2878  0.1234  1.2286
16309TIP3    H270419   4.051   0.122   4.704 -0.0434  0.8884 -2.1545
16310TIP3   OH270420   1.163   0.699  12.860 -0.2746  0.3747  0.2994
16310TIP3    H170421   1.102   0.770  12.842  1.0338  1.1667 -1.1751
16310TIP3    H270422   1.165   0.648  12.779  1.9937  1.1191 -0.1580
16311TIP3   OH270423   2.162   1.211   5.201 -0.2947 -0.2721  0.2132
16311TIP3    H170424   2.180   1.270   5.275 -0.7007  0.2018 -0.0613
16311TIP3    H270425   2.249   1.181   5.174 -0.1294 -0.3248  0.7802
16312TIP3   OH270426   3.464   5.356   5.591 -0.4966  0.0952  0.4346
16312TIP3    H170427   3.554   5.379   5.566  0.4561  0.3511  3.5834
16312TIP3    H270428   3.439   5.424   5.653 -2.6777 -0.3185  0.0688
16313TIP3   OH270429   6.404   0.391  11.978 -0.0666  0.0738 -0.3613
16313TIP3    H170430   6.314   0.363  11.960  0.0295 -1.2749  1.0724
16313TIP3    H270431   6.459   0.323  11.940  0.3339  0.4630 -0.4935
16314TIP3   OH270432   5.916   4.589  14.540  0.4711 -0.4267  0.2597
16314TIP3    H170433   5.918   4.615  14.633 -0.4698 -1.2864  0.5380
16314TIP3    H270434   5.911   4.494  14.542 -2.9403 -0.3917 -0.5396
16315TIP3   OH270435   6.449   3.667  15.751  0.0032 -0.0243  0.2535
16315TIP3    H170436   6.433   3.643  15.660  1.7057 -0.6770  0.0990
16315TIP3    H270437   6.369   3.641  15.797 -1.8285  2.3933 -1.3570
16316TIP3   OH270438   6.535   2.747   2.836  0.2053  0.1273 -0.4699
16316TIP3    H170439   6.546   2.842   2.836 -0.5352  0.2786 -2.7592
16316TIP3    H270440   6.568   2.719   2.750 -0.8450 -1.5037 -0.3884
16317TIP3   OH270441   2.228   2.565  13.950  0.0110 -0.3308 -0.1283
16317TIP3    H170442   2.253   2.472  13.954  0.9689 -0.0446  1.2367
16317TIP3    H270443   2.194   2.584  14.037 -1.9122  0.1652 -0.9537
16318TIP3   OH270444   5.996   3.133  11.067  0.1904  0.0860  0.0426
16318TIP3    H170445   5.904   3.155  11.078  0.4619  1.3025  0.0275
16318TIP3    H270446   6.034   3.142  11.154  0.1552 -1.1603  0.1991
16319TIP3   OH270447   6.785   0.277  14.633  0.2582  0.0896  0.0539
16319TIP3    H170448   6.760   0.369  14.636 -1.0381 -0.1581 -1.4570
16319TIP3    H270449   6.714   0.231  14.677 -0.5254 -0.3749 -1.5997
16320TIP3   OH270450   0.536   0.264   5.594  0.4838 -0.0548  0.2907
16320TIP3    H170451   0.562   0.215   5.673 -1.8937  0.7482  1.6593
16320TIP3    H270452   0.453   0.224   5.567  0.2471  1.0005 -0.6216
16321TIP3   OH270453   5.246   6.547  12.786  0.2536  0.0652  0.0801
16321TIP3    H170454   5.165   6.547  12.736  0.6352 -0.8687 -0.5725
16321TIP3    H270455   5.220   6.523  12.875 -0.1242 -0.8351 -0.2624
16322TIP3   OH270456   1.497   3.247   5.691  0.4884 -0.4225 -0.3317
16322TIP3    H170457   1.483   3.341   5.676 -0.6828 -0.6128 -0.5555
16322TIP3    H270458   1.409   3.209   5.685  0.8491 -1.4295  0.5324
16323TIP3   OH270459   2.943   1.022  16.040  0.2559 -0.5367  0.3123
16323TIP3    H170460   2.850   1.005  16.022  0.8827 -2.0817 -1.8626
16323TIP3    H270461   2.953   1.116  16.026 -1.3873  0.1647  3.0033
16324TIP3   OH270462   1.545   2.360   4.873 -0.2553 -0.9752 -0.2303
16324TIP3    H170463   1.606   2.339   4.944  1.2351  1.6076 -0.5972
16324TIP3    H270464   1.560   2.454   4.856 -3.7324 -0.4338 -0.9871
16325TIP3   OH270465   6.818   1.349   0.728 -0.4227 -0.1191 -0.0762
16325TIP3    H170466   6.732   1.310   0.712 -0.5395  0.7452 -1.7161
16325TIP3    H270467   6.879   1.290   0.684 -0.3470  0.1541 -0.3406
16326TIP3   OH270468   0.694   2.553   5.276 -0.6523 -0.1049  0.1881
16326TIP3    H170469   0.664   2.619   5.214 -3.7414 -0.9672  0.6117
16326TIP3    H270470   0.718   2.478   5.221 -1.0279 -0.0146 -0.1062
16327TIP3   OH270471   1.932   5.355   2.494 -0.4782 -0.1010  0.2305
16327TIP3    H170472   2.003   5.419   2.500  0.6769 -1.0636 -1.9748
16327TIP3    H270473   1.858   5.404   2.459 -0.2275  0.4471  0.4607
16328TIP3   OH270474   4.728   4.353   0.119 -0.5051  0.1622  0.0620
16328TIP3    H170475   4.766   4.435   0.151 -1.7428  0.5526  0.5840
16328TIP3    H270476   4.673   4.380   0.046  2.6643 -0.7562 -2.9450
16329TIP3   OH270477   4.773   4.556   2.186 -0.8485  0.0795 -0.1799
16329TIP3    H170478   4.700   4.574   2.245 -1.7191 -1.9993 -0.5222
16329TIP3    H270479   4.732   4.539   2.101  0.3190  2.1318 -1.2368
16330TIP3   OH270480   6.113   3.367  16.382 -0.1244  0.3453 -0.7277
16330TIP3    H170481   6.136   3.388  16.472 -0.5124  3.4400 -1.2425
16330TIP3    H270482   6.018   3.366  16.380 -0.1212  0.1937 -1.0995
16331TIP3   OH270483   2.179   5.166  11.822 -0.3285  0.4136 -0.4200
16331TIP3    H170484   2.089   5.140  11.841  0.1394 -2.2742 -1.4298
16331TIP3    H270485   2.183   5.168  11.726  0.7238  0.2921 -0.3907
16332TIP3   OH270486   3.306   2.282   4.189 -0.5177 -0.3007 -0.1044
16332TIP3    H170487   3.307   2.186   4.197 -1.2885 -0.2794  0.3330
16332TIP3    H270488   3.249   2.311   4.259  1.3831  0.6349  1.1290
16333TIP3   OH270489   5.610   2.474  16.870 -0.7634 -0.1019 -0.3970
16333TIP3    H170490   5.598   2.568  16.879 -2.3524  0.0866 -3.2760
16333TIP3    H270491   5.567   2.437  16.947 -1.1047  1.4952  0.2174
16334TIP3   OH270492   5.717   3.238  10.580 -0.3129 -0.4319  0.2676
16334TIP3    H170493   5.749   3.304  10.518  1.7261 -1.9023 -0.3453
16334TIP3    H270494   5.681   3.169  10.524  0.2650 -1.1426  0.7605
16335TIP3   OH270495   1.666   6.612  16.022 -0.3908 -0.2311  0.6187
16335TIP3    H170496   1.573   6.589  16.029 -0.1813 -1.7128 -0.7298
16335TIP3    H270497   1.705   6.579  16.103 -0.6775 -1.6981  0.1818
16336TIP3   OH270498   5.904   6.814   0.404 -0.1530  0.4737 -0.4317
16336TIP3    H170499   5.883   6.903   0.376  0.1065  0.5391 -0.4236
16336TIP3    H270500   5.906   6.820   0.500 -1.7108  0.0997 -0.3462
16337TIP3   OH270501   5.683   2.727   6.212  0.2121 -0.1167  0.1295
16337TIP3    H170502   5.601   2.738   6.163 -0.1497 -0.4193  0.6609
16337TIP3    H270503   5.669   2.648   6.263  0.8434 -0.1679  0.2215
16338TIP3   OH270504   6.366   5.039   4.227  0.3222 -0.2414  0.2809
16338TIP3    H170505   6.368   5.134   4.233  1.4059 -0.3105  1.4506
16338TIP3    H270506   6.354   5.021   4.134  0.7650  1.0353 -0.0442
16339TIP3   OH270507   2.345   3.398  16.011  0.4430 -0.4605 -0.1619
16339TIP3    H170508   2.277   3.348  15.966 -1.5995  2.1322 -0.2292
16339TIP3    H270509   2.393   3.442  15.941  0.8122 -0.6529 -0.0295
16340TIP3   OH270510   0.859   0.091  15.343 -0.0977 -0.2627  0.4454
16340TIP3    H170511   0.810   0.163  15.303 -0.2533  0.8181  2.4562
16340TIP3    H270512   0.928   0.072  15.280  0.3191  2.0914  0.0817
16341TIP3   OH270513   2.623   5.154   4.507 -0.4572 -1.1600  0.3924
16341TIP3    H170514   2.532   5.147   4.536 -0.8289  1.6836  0.1698
16341TIP3    H270515   2.618   5.158   4.411 -0.3055  0.5304  0.4208
16342TIP3   OH270516   2.120   1.559  12.119  0.0548 -0.5638 -0.1236
16342TIP3    H170517   2.201   1.520  12.149 -0.2460 -1.9175 -0.9628
16342TIP3    H270518   2.064   1.484  12.096 -0.4886  0.3323 -1.9745
16343TIP3   OH270519   2.904   2.645  16.080 -0.0106  0.4140 -0.0274
16343TIP3    H170520   2.982   2.610  16.123  0.8414  0.3287 -1.5638
16343TIP3    H270521   2.830   2.608  16.129  0.8995  0.3052  1.3018
16344TIP3   OH270522   4.149   0.115   1.824 -0.0569  0.2324 -0.0019
16344TIP3    H170523   4.237   0.151   1.835 -0.6755  1.5009  1.1604
16344TIP3    H270524   4.090   0.187   1.849 -1.5072  0.0612 -2.5737
16345TIP3   OH270525   2.399   1.598   0.508  0.4868  0.4672  0.6336
16345TIP3    H170526   2.440   1.675   0.467  0.9417 -0.0037  0.1924
16345TIP3    H270527   2.307   1.623   0.517  0.0557  0.0958 -1.9871
16346TIP3   OH270528   0.592   4.234  16.037 -0.3185 -0.2222  0.3195
16346TIP3    H170529   0.516   4.177  16.052 -0.3501  0.0315  1.1838
16346TIP3    H270530   0.664   4.189  16.082  0.2898 -0.9726 -1.3303
16347TIP3   OH270531   0.177   2.209  11.771  0.2493  0.1620  0.6169
16347TIP3    H170532   0.137   2.229  11.855  0.4846  1.9342  0.3358
16347TIP3    H270533   0.109   2.226  11.706 -0.0033 -1.4099  0.4179
16348TIP3   OH270534   0.639   2.513  13.060  0.0718  0.5453 -0.7248
16348TIP3    H170535   0.674   2.575  13.124  2.9799 -1.0783 -0.5698
16348TIP3    H270536   0.647   2.559  12.976 -0.2566  1.3013 -0.3590
16349TIP3   OH270537   3.931   1.666  14.314  0.2223  0.4133 -0.1337
16349TIP3    H170538   3.907   1.587  14.265  1.4620  0.0943 -0.2609
16349TIP3    H270539   3.969   1.633  14.395  1.8765  0.8060 -0.6992
16350TIP3   OH270540   1.017   0.917  16.520 -0.3092 -0.2048  0.1206
16350TIP3    H170541   1.005   0.999  16.568 -0.3619 -1.6661  2.8252
16350TIP3    H270542   0.928   0.889  16.499 -0.2854  0.4622 -0.9148
16351TIP3   OH270543   6.173   2.744  14.724 -0.2283 -0.4864 -0.1729
16351TIP3    H170544   6.104   2.789  14.675  0.2590  0.8608  0.3325
16351TIP3    H270545   6.168   2.653  14.695 -0.8358  0.0080 -1.7055
16352TIP3   OH270546   2.992   2.986   5.937 -0.1231  0.0154 -0.3472
16352TIP3    H170547   2.898   3.003   5.939 -0.1148  0.0137  0.9469
16352TIP3    H270548   3.002   2.902   5.982  0.4699 -0.2121 -0.8784
16353TIP3   OH270549   2.998   5.408   3.254 -0.9171 -0.3501 -0.3809
16353TIP3    H170550   2.988   5.347   3.182  1.2687 -0.9765 -0.2069
16353TIP3    H270551   3.047   5.360   3.320 -3.4162 -0.0410  1.8897
16354TIP3   OH270552   0.301   5.973  11.525  0.5615  0.1072 -0.3890
16354TIP3    H170553   0.288   5.880  11.539  0.3963  0.3519  1.3321
16354TIP3    H270554   0.396   5.984  11.527  0.5604  0.2146  1.6018
16355TIP3   OH270555   5.649   4.155  14.109  0.2809  0.0474  0.0412
16355TIP3    H170556   5.691   4.232  14.071 -0.4903  1.3816  1.7314
16355TIP3    H270557   5.644   4.092  14.038  1.6066  1.2810 -1.2086
16356TIP3   OH270558   4.335   2.985   4.681  0.0532 -0.1815  0.5296
16356TIP3    H170559   4.302   2.945   4.762  1.3993 -0.0046  1.1910
16356TIP3    H270560   4.308   2.924   4.612 -0.2107 -0.8787  1.2291
16357TIP3   OH270561   4.831   6.695  10.874  0.2507 -0.0847  0.3766
16357TIP3    H170562   4.793   6.642  10.803 -0.7320  0.9081  0.1268
16357TIP3    H270563   4.797   6.783  10.858 -0.2442  0.1011  2.2752
16358TIP3   OH270564   4.288   1.973  11.546 -0.2906 -0.1642  0.1952
16358TIP3    H170565   4.257   1.896  11.594  0.0988  0.0292  0.7762
16358TIP3    H270566   4.382   1.956  11.533  0.2058  1.0085  1.9290
16359TIP3   OH270567   2.649   6.046   1.965  0.0077 -0.3208  0.1829
16359TIP3    H170568   2.678   6.015   1.879  1.0060 -0.6939  0.6350
16359TIP3    H270569   2.559   6.015   1.973 -0.2263  0.0274 -0.8658
16360TIP3   OH270570   5.060   2.629   1.687  0.4343  0.2236  0.1611
16360TIP3    H170571   4.980   2.639   1.636 -0.3703 -0.8448  1.1789
16360TIP3    H270572   5.031   2.602   1.774  1.9331 -1.1617  0.2755
16361TIP3   OH270573   1.336   5.287  12.941 -0.3444  0.3562  0.1440
16361TIP3    H170574   1.409   5.301  13.001 -0.2847  0.8805 -0.0458
16361TIP3    H270575   1.363   5.328  12.859  0.2132 -1.6759 -0.7583
16362TIP3   OH270576   0.637   4.209  14.794  0.8271 -0.1813 -0.6138
16362TIP3    H170577   0.658   4.142  14.860  0.7241 -0.0582 -0.4543
16362TIP3    H270578   0.559   4.252  14.829 -0.1085 -1.0785 -1.5102
16363TIP3   OH270579   5.346   3.719   3.774 -0.3328  0.0279 -0.3512
16363TIP3    H170580   5.260   3.682   3.794 -0.1225 -0.3319 -0.0998
16363TIP3    H270581   5.359   3.787   3.840  1.1408 -2.3529  2.0221
16364TIP3   OH270582   5.414   1.538   3.570  0.3230  0.0179 -0.1773
16364TIP3    H170583   5.475   1.578   3.632 -3.4335  3.5494  1.7680
16364TIP3    H270584   5.393   1.609   3.509 -1.7951 -1.0144 -0.7183
16365TIP3   OH270585   3.933   1.350   1.867  0.0607  0.0974 -0.1241
16365TIP3    H170586   3.874   1.388   1.802 -0.7305 -0.6973  0.1113
16365TIP3    H270587   3.910   1.257   1.869  0.7252 -0.0634  0.6120
16366TIP3   OH270588   2.841   3.190  11.093 -0.3470 -0.5861  0.0905
16366TIP3    H170589   2.845   3.261  11.157 -0.4594 -0.5792  0.0901
16366TIP3    H270590   2.926   3.192  11.050  0.4281 -1.7197  1.4607
16367TIP3   OH270591   4.137   2.313   5.551 -0.7440  0.4950 -0.5960
16367TIP3    H170592   4.157   2.221   5.568 -1.9365  0.5077  1.0759
16367TIP3    H270593   4.055   2.310   5.500 -0.7205  0.6403 -0.6436
16368TIP3   OH270594   4.561   5.405   1.528  0.2885  0.4645 -0.4402
16368TIP3    H170595   4.592   5.494   1.512  1.2890  0.3174  0.4736
16368TIP3    H270596   4.510   5.412   1.609  0.4033  0.2082 -0.3440
16369TIP3   OH270597   6.603   3.078  16.858 -0.2396 -0.6085  0.3555
16369TIP3    H170598   6.560   3.132  16.925 -0.9033 -1.3474  0.5321
16369TIP3    H270599   6.532   3.032  16.814  0.3314 -1.5320  0.3692
16370TIP3   OH270600   0.033   5.157  16.447  0.1878 -0.0285 -0.0174
16370TIP3    H170601   0.047   5.218  16.374  0.3130 -0.0221  0.0129
16370TIP3    H270602   0.116   5.156  16.494  0.8725 -1.7928 -1.1716
16371TIP3   OH270603   2.433   2.480  10.804 -0.4920 -0.2621  0.2939
16371TIP3    H170604   2.520   2.487  10.844  0.4827  0.0747 -1.7587
16371TIP3    H270605   2.438   2.402  10.749 -1.4622 -0.1945  0.0906
16372TIP3   OH270606   3.861   2.525   0.868 -0.5430 -0.0504  0.0272
16372TIP3    H170607   3.807   2.604   0.858  0.0050  0.3880  0.4203
16372TIP3    H270608   3.887   2.503   0.779  2.2600  2.3540  0.0932
16373TIP3   OH270609   2.413   0.466   3.123 -0.1267  0.5030 -0.4344
16373TIP3    H170610   2.328   0.476   3.166 -0.1718  0.7130 -0.5661
16373TIP3    H270611   2.410   0.379   3.083 -0.4836  0.7061 -0.8680
16374TIP3   OH270612   0.203   1.770  17.013 -0.1930  0.1938  0.2735
16374TIP3    H170613   0.217   1.718  17.092 -0.7409  0.2031  0.3835
16374TIP3    H270614   0.186   1.706  16.944 -0.7387  0.2143  0.3831
16375TIP3   OH270615   3.766   0.383   4.673 -0.1232  0.6656 -0.0407
16375TIP3    H170616   3.704   0.417   4.738  1.2891  3.1624  0.1425
16375TIP3    H270617   3.852   0.406   4.708  1.0240 -2.6908 -0.2888
16376TIP3   OH270618   1.345   2.826   4.679  0.1722  0.1374 -0.9739
16376TIP3    H170619   1.317   2.736   4.662 -2.7330  1.2257 -2.9675
16376TIP3    H270620   1.265   2.870   4.708  1.1902  2.3558 -1.3421
16377TIP3   OH270621   5.675   1.114  14.503  0.3363 -0.1987  0.0635
16377TIP3    H170622   5.731   1.189  14.526 -0.1254  0.0424  0.4256
16377TIP3    H270623   5.591   1.153  14.482  0.2163 -0.5873 -0.1779
16378TIP3   OH270624   4.257   6.128   5.932 -0.3328  0.0936  0.8298
16378TIP3    H170625   4.252   6.140   6.027 -0.9470 -1.7564  1.0847
16378TIP3    H270626   4.318   6.195   5.902 -0.6573  1.1682  2.4341
16379TIP3   OH270627   1.256   2.327   4.227  0.0535  0.3988  0.3722
16379TIP3    H170628   1.235   2.416   4.255  0.8910  0.5489  0.5465
16379TIP3    H270629   1.178   2.276   4.248 -0.9754  1.3524 -1.0191
16380TIP3   OH270630   6.421   6.437   6.046 -0.0732 -0.2138 -0.5899
16380TIP3    H170631   6.500   6.483   6.019 -0.3871  0.0239 -1.1144
16380TIP3    H270632   6.389   6.486   6.122 -0.3522  0.3895 -1.0855
16381TIP3   OH270633   2.314   2.774  16.163 -0.5726  0.1755  0.2464
16381TIP3    H170634   2.405   2.787  16.138 -1.0245  0.9060 -1.1195
16381TIP3    H270635   2.306   2.679  16.176  0.1546 -0.0070 -0.5590
16382TIP3   OH270636   2.052   1.008   0.066 -0.4853  0.1364  0.5807
16382TIP3    H170637   1.957   1.007   0.048 -0.5443 -0.1904  0.9080
16382TIP3    H270638   2.090   1.045  -0.014 -0.7733 -1.0329 -0.1374
16383TIP3   OH270639   6.442   4.095  15.475 -0.8630  0.1537 -0.5987
16383TIP3    H170640   6.383   4.168  15.458 -1.1959 -0.5171 -2.5600
16383TIP3    H270641   6.386   4.017  15.471 -0.2390 -0.3210 -0.2095
16384TIP3   OH270642   4.628   5.415  15.703 -0.0940 -0.1039  0.3210
16384TIP3    H170643   4.579   5.440  15.625 -0.0177 -0.5854  0.1148
16384TIP3    H270644   4.720   5.431  15.680 -0.2020  3.7005  1.7175
16385TIP3   OH270645   2.657   0.192   0.177  0.4181 -0.3032 -0.5174
16385TIP3    H170646   2.666   0.106   0.135 -2.5619 -1.9336  1.7624
16385TIP3    H270647   2.729   0.196   0.239  1.3165 -0.5259 -1.5065
16386TIP3   OH270648   5.844   6.025  16.349  0.1629 -0.6765 -0.0510
16386TIP3    H170649   5.852   5.932  16.324  1.0564 -0.8037  0.6646
16386TIP3    H270650   5.875   6.028  16.439 -0.8730  0.1566  0.2898
16387TIP3   OH270651   0.355   0.153  13.054 -0.1027 -0.3082 -0.4046
16387TIP3    H170652   0.376   0.060  13.063 -1.1463 -0.7271 -1.8787
16387TIP3    H270653   0.297   0.157  12.977  0.5143  1.6487 -0.8218
16388TIP3   OH270654   4.905   1.509   1.224  0.4250 -0.8076  0.1677
16388TIP3    H170655   4.978   1.554   1.268  1.8069 -1.3924 -1.4183
16388TIP3    H270656   4.897   1.426   1.271  0.3132 -0.4473  0.7942
16389TIP3   OH270657   4.085   5.996  13.572  0.7173  0.2183  0.5224
16389TIP3    H170658   4.038   5.914  13.557  1.6846 -0.1753 -0.4787
16389TIP3    H270659   4.177   5.971  13.575  0.9315  1.0531  1.9170
16390TIP3   OH270660   2.835   5.166  12.586  0.1324 -0.3831 -0.5323
16390TIP3    H170661   2.749   5.184  12.621  0.8538  1.0887  0.5599
16390TIP3    H270662   2.826   5.178  12.491 -0.5720  0.9792 -0.3049
16391TIP3   OH270663   1.956   6.299  13.849 -0.2748  0.0057  0.1089
16391TIP3    H170664   1.870   6.261  13.865 -0.6620  0.8922  0.1743
16391TIP3    H270665   1.951   6.388  13.885  0.4069  0.3407 -0.5788
16392TIP3   OH270666   3.253   2.424   3.765  0.2165  0.3433 -0.5907
16392TIP3    H170667   3.211   2.344   3.799  0.7075  0.7398  1.0268
16392TIP3    H270668   3.237   2.489   3.833  1.3198  1.1590 -1.0935
16393TIP3   OH270669   0.889   0.061   0.571 -0.1337 -0.0334  0.6787
16393TIP3    H170670   0.921   0.094   0.655 -0.7467  0.3378  0.7739
16393TIP3    H270671   0.877  -0.032   0.585  0.4922 -0.1062  0.7669
16394TIP3   OH270672   1.634   3.980   3.028 -0.4220  0.4048 -0.2197
16394TIP3    H170673   1.541   3.969   3.008 -0.3192  0.3958 -0.6920
16394TIP3    H270674   1.637   4.059   3.083 -0.8928 -0.5265  1.2173
16395TIP3   OH270675   3.365   5.929  16.334  0.5141  1.4204  0.2735
16395TIP3    H170676   3.434   5.924  16.401  0.5089 -1.1777  0.1609
16395TIP3    H270677   3.283   5.930  16.383  0.4098 -2.4219  0.4626
16396TIP3   OH270678   5.372   5.997  13.771  0.0700  0.6695  0.7826
16396TIP3    H170679   5.408   5.912  13.743  1.4542  1.6155 -0.4467
16396TIP3    H270680   5.293   5.974  13.820  0.3788 -1.3282  0.4428
16397TIP3   OH270681   1.219   4.790   2.501 -0.8760 -0.6296  0.5040
16397TIP3    H170682   1.277   4.783   2.576  2.6330 -0.4471 -1.9725
16397TIP3    H270683   1.149   4.727   2.520  0.6776 -1.7440  3.1689
16398TIP3   OH270684   5.839   2.467   0.506 -0.0576  0.0924 -0.1924
16398TIP3    H170685   5.777   2.490   0.437  0.1923 -0.0682 -0.4770
16398TIP3    H270686   5.807   2.383   0.540  0.3287 -0.2923 -0.7487
16399TIP3   OH270687   4.827   1.586   3.733  0.1579  0.2578  0.0928
16399TIP3    H170688   4.813   1.514   3.794 -0.3868  0.8267  0.6492
16399TIP3    H270689   4.887   1.550   3.668 -0.2010 -0.7410  0.2866
16400TIP3   OH270690   5.312   1.388   2.497  0.3117  0.4759  0.2399
16400TIP3    H170691   5.303   1.449   2.570  0.9226 -1.3456  1.9248
16400TIP3    H270692   5.401   1.352   2.506 -0.8420 -2.4964  0.8935
16401TIP3   OH270693   1.818   5.909   3.385 -0.1447 -0.0020 -0.3261
16401TIP3    H170694   1.910   5.925   3.406 -0.0037  1.5472 -1.8519
16401TIP3    H270695   1.821   5.860   3.303 -0.6986 -1.1278  0.3048
16402TIP3   OH270696   2.943   6.239  10.832  0.1645  0.6264  0.6349
16402TIP3    H170697   2.939   6.171  10.765 -0.7106 -0.6039  1.8904
16402TIP3    H270698   2.985   6.313  10.788  1.7552 -0.9158 -0.5983
16403TIP3   OH270699   6.437   1.032  15.523  0.6620 -0.0224  0.4008
16403TIP3    H170700   6.453   1.104  15.461  0.0205 -0.9117 -0.8409
16403TIP3    H270701   6.353   0.996  15.496  1.2359 -1.5956  0.6239
16404TIP3   OH270702   4.928   6.298  12.612 -0.1912  0.2183  0.2635
16404TIP3    H170703   4.855   6.359  12.611  1.2249  2.1150  2.3118
16404TIP3    H270704   4.994   6.340  12.556  0.9178  0.8440  1.9519
16405TIP3   OH270705   1.207   5.119   4.725  0.4792 -0.3394 -0.5369
16405TIP3    H170706   1.124   5.157   4.694  0.9337 -1.4495 -3.4306
16405TIP3    H270707   1.204   5.130   4.820 -2.1257  1.3399 -0.6964
16406TIP3   OH270708   3.809   5.911  11.999  0.2487  0.7569 -0.5977
16406TIP3    H170709   3.725   5.955  11.990  0.9281  2.1285 -0.4695
16406TIP3    H270710   3.831   5.881  11.911  0.9690  2.9789 -1.2329
16407TIP3   OH270711   2.435   1.863  14.374  0.2989 -0.2066 -0.1611
16407TIP3    H170712   2.356   1.810  14.366  1.6002 -2.0958 -1.2314
16407TIP3    H270713   2.457   1.860  14.467  0.7709 -2.2747 -0.2929
16408TIP3   OH270714   1.883   2.012  14.288  0.4824 -0.2066  0.7210
16408TIP3    H170715   1.802   2.041  14.329  0.9939  0.0229  1.5969
16408TIP3    H270716   1.858   1.936  14.235 -0.4625  0.4377  0.2217
16409TIP3   OH270717   0.590   4.279  13.481 -0.5007  0.1257 -0.4954
16409TIP3    H170718   0.648   4.222  13.532  0.3496  1.4907  0.0914
16409TIP3    H270719   0.648   4.329  13.424 -1.3749 -0.8100 -2.3268
16410TIP3   OH270720   3.941   4.597  17.107  0.0905  0.7849 -0.1661
16410TIP3    H170721   3.904   4.515  17.141  0.7273  0.6309  0.1790
16410TIP3    H270722   3.886   4.666  17.145 -0.9679  0.4937 -1.1266
16411TIP3   OH270723   0.744   1.142   5.453 -0.6913  0.4073 -0.0993
16411TIP3    H170724   0.698   1.117   5.534 -1.0979  0.0668 -0.4332
16411TIP3    H270725   0.715   1.078   5.388  0.1077  0.3083 -0.3684
16412TIP3   OH270726   3.852   1.391  17.000 -0.1511  0.4172  0.3290
16412TIP3    H170727   3.910   1.316  17.014 -1.6091 -0.2205  3.7444
16412TIP3    H270728   3.903   1.466  17.031 -0.3761  0.1454  1.3856
16413TIP3   OH270729   3.592   3.002  15.877 -0.6561 -0.1837  0.2986
16413TIP3    H170730   3.657   2.993  15.807  0.3513 -1.9556  1.3902
16413TIP3    H270731   3.508   3.008  15.831 -0.0592 -1.5878 -1.0776
16414TIP3   OH270732   5.122   1.313   1.087  0.1928 -0.2607 -0.0289
16414TIP3    H170733   5.198   1.281   1.135 -0.4031  0.0527  1.1759
16414TIP3    H270734   5.096   1.392   1.134 -0.9665 -0.4528 -0.3117
16415TIP3   OH270735   6.220   5.095   2.917  0.2818  0.0260  0.2585
16415TIP3    H170736   6.248   5.143   2.839 -0.0313 -0.9328 -0.4647
16415TIP3    H270737   6.201   5.007   2.886  0.2571 -0.4143  1.4474
16416TIP3   OH270738   1.253   6.672   5.198 -0.4552  0.3112 -0.1027
16416TIP3    H170739   1.334   6.652   5.151  0.4625  1.6403  0.8346
16416TIP3    H270740   1.184   6.640   5.140  0.6606  0.7584 -1.7844
16417TIP3   OH270741   3.404   1.885  14.347 -0.3951 -0.0316  0.4286
16417TIP3    H170742   3.386   1.976  14.369 -0.1158  0.0174  0.4517
16417TIP3    H270743   3.491   1.868  14.383 -0.4744 -0.3268  0.4826
16418TIP3   OH270744   3.713   4.045   3.763 -0.0259 -0.4175  0.0934
16418TIP3    H170745   3.791   4.008   3.723  0.2388 -0.3480  0.5484
16418TIP3    H270746   3.709   4.135   3.729 -2.3319 -1.6389 -3.4873
16419TIP3   OH270747   4.882   6.576   5.647 -0.0347  0.2801  0.4916
16419TIP3    H170748   4.861   6.610   5.561  1.3552 -1.9171 -0.8112
16419TIP3    H270749   4.976   6.591   5.657  0.0234 -0.4581  1.1533
16420TIP3   OH270750   3.922   2.620  15.262 -0.0641 -0.4902  0.3599
16420TIP3    H170751   3.918   2.538  15.310  0.1355  0.0569  1.3451
16420TIP3    H270752   3.993   2.669  15.304 -1.1494  0.7785  0.7833
16421TIP3   OH270753   4.164   4.416  15.415  0.4118 -0.4260  0.3981
16421TIP3    H170754   4.178   4.506  15.443  2.1639 -0.1180 -1.2491
16421TIP3    H270755   4.101   4.423  15.343  0.1155 -0.6012  0.6360
16422TIP3   OH270756   1.213   3.606  11.238 -0.7250  0.1001  0.7330
16422TIP3    H170757   1.224   3.604  11.143  0.7450  0.9559  0.8442
16422TIP3    H270758   1.295   3.645  11.270 -1.4452  0.3870  2.3070
16423TIP3   OH270759   3.324   1.068  11.741  0.2889  0.3094  0.6603
16423TIP3    H170760   3.302   0.995  11.798  0.2086  1.1747  1.7753
16423TIP3    H270761   3.240   1.107  11.717  0.3323  0.0687  0.1019
16424TIP3   OH270762   1.195   2.047  16.083 -0.1804 -0.1975  0.6476
16424TIP3    H170763   1.260   2.025  16.016 -0.3864  0.3170  0.2700
16424TIP3    H270764   1.129   2.098  16.036 -1.0988 -1.1143  0.9271
16425TIP3   OH270765   6.555   4.154  17.208 -0.3249  0.1132 -0.7130
16425TIP3    H170766   6.524   4.208  17.135  0.2921 -0.8165 -1.7042
16425TIP3    H270767   6.631   4.201  17.242 -0.3250  0.3110 -0.9797
16426TIP3   OH270768   1.360   1.168  14.323 -0.6259 -0.4655 -0.0732
16426TIP3    H170769   1.294   1.140  14.386 -0.1907 -1.1891  0.0693
16426TIP3    H270770   1.443   1.139  14.360 -0.3673 -0.9795 -1.0020
16427TIP3   OH270771   4.678   4.016  13.940  0.1730  0.6221  0.1508
16427TIP3    H170772   4.647   3.993  13.852 -0.3691  0.5740  0.3483
16427TIP3    H270773   4.671   4.111  13.944  1.0750  0.7074 -0.1742
16428TIP3   OH270774   2.144   4.742  14.903  0.1427  0.2003  0.6388
16428TIP3    H170775   2.087   4.667  14.918 -1.1612  1.0912  0.2240
16428TIP3    H270776   2.151   4.748  14.808 -0.8630  1.4059  0.6252
16429TIP3   OH270777   1.769   3.934  15.066 -0.4290  0.2659  0.3206
16429TIP3    H170778   1.839   3.909  15.127 -0.4165  0.4793  0.3925
16429TIP3    H270779   1.689   3.897  15.104 -0.4649  0.6388  0.6157
16430TIP3   OH270780   4.554   0.282  12.206  0.0916 -0.6974 -0.0243
16430TIP3    H170781   4.470   0.313  12.172 -0.7599 -1.4567  1.2903
16430TIP3    H270782   4.607   0.361  12.216 -1.0815  0.0286  0.7176
16431TIP3   OH270783   3.465   6.669   0.008  0.0688 -0.7111  0.6405
16431TIP3    H170784   3.502   6.592  -0.036  0.9552 -0.5008  0.9925
16431TIP3    H270785   3.515   6.677   0.089  0.5751  0.7146  0.2278
16432TIP3   OH270786   0.854   4.878  12.419 -0.1279  0.2143 -0.3345
16432TIP3    H170787   0.947   4.866  12.437 -0.1111 -0.0865 -0.6137
16432TIP3    H270788   0.835   4.968  12.447  0.0003 -0.0720  0.7409
16433TIP3   OH270789   6.535   3.408  16.963  0.0709  0.0475 -0.4142
16433TIP3    H170790   6.587   3.464  16.906  1.0662 -0.0683  0.3442
16433TIP3    H270791   6.495   3.467  17.026 -0.9740  0.1684 -1.1782
16434TIP3   OH270792   2.312   1.059  12.261  0.2712 -0.2078  0.2326
16434TIP3    H170793   2.308   1.016  12.347 -0.6929 -0.8283 -0.1041
16434TIP3    H270794   2.392   1.111  12.264  1.5923 -2.1520  0.6043
16435TIP3   OH270795   1.587   0.880  15.366  0.7404 -0.7415 -0.3451
16435TIP3    H170796   1.593   0.964  15.412 -0.4062 -0.9831  0.3005
16435TIP3    H270797   1.647   0.822  15.413 -1.0773 -1.2491  1.5431
16436TIP3   OH270798   4.448   0.972  15.078 -0.2221 -0.2347 -0.0344
16436TIP3    H170799   4.387   0.911  15.120 -1.1374  0.8198  0.2175
16436TIP3    H270800   4.535   0.938  15.100 -0.6182  0.4790  3.1788
16437TIP3   OH270801   0.168   2.058   5.713  0.5538  0.5591  0.1346
16437TIP3    H170802   0.112   2.054   5.791  1.8625  0.4735  1.1040
16437TIP3    H270803   0.233   2.125   5.733  2.7344 -1.4955  0.4245
16438TIP3   OH270804   5.936   4.321   0.843 -0.1754  0.7170  0.0012
16438TIP3    H170805   5.968   4.354   0.759 -1.2485 -0.2629 -0.8186
16438TIP3    H270806   5.901   4.234   0.823  0.5153  0.0151  1.6762
16439TIP3   OH270807   5.630   0.047  11.468 -0.2388  0.0452  0.5424
16439TIP3    H170808   5.633   0.005  11.382 -0.3824 -1.1841  1.1318
16439TIP3    H270809   5.719   0.082  11.480  1.2203 -3.6300  1.7552
16440TIP3   OH270810   3.140   5.258   0.424 -0.1284  0.0723  0.3229
16440TIP3    H170811   3.129   5.272   0.330  0.1320 -0.6659  0.1811
16440TIP3    H270812   3.228   5.291   0.443 -0.7688  1.7373  0.6253
16441TIP3   OH270813   0.781   1.735  15.513 -0.6021  0.2169  0.1938
16441TIP3    H170814   0.797   1.656  15.462  0.8463  0.7166 -0.1937
16441TIP3    H270815   0.732   1.705  15.590  0.2007 -1.1213  0.2238
16442TIP3   OH270816   1.198   6.229   3.069 -0.1115  0.5101 -0.3760
16442TIP3    H170817   1.214   6.170   3.143  1.2197  1.0497 -0.1921
16442TIP3    H270818   1.283   6.236   3.026 -0.1885  2.3769 -0.3175
16443TIP3   OH270819   1.416   4.277  11.290  0.9382  0.1564  0.3806
16443TIP3    H170820   1.361   4.347  11.324  1.6196  0.7469  0.2927
16443TIP3    H270821   1.371   4.247  11.211  1.4335  1.5734 -0.4631
16444TIP3   OH270822   6.697   5.403  14.328  0.7685 -0.1048 -0.3243
16444TIP3    H170823   6.661   5.478  14.375  0.0762 -1.3652  1.2260
16444TIP3    H270824   6.632   5.334  14.339  1.6964 -1.1400 -1.1429
16445TIP3   OH270825   6.782   1.068   6.255 -0.2237  0.8972  0.1206
16445TIP3    H170826   6.719   1.046   6.186  0.3462  0.6375 -0.3303
16445TIP3    H270827   6.832   1.142   6.219 -0.0847  0.9186  0.3560
16446TIP3   OH270828   1.243   4.304  13.068  0.4241  0.8531 -0.5635
16446TIP3    H170829   1.173   4.358  13.031  0.6131  1.4424 -0.0707
16446TIP3    H270830   1.210   4.214  13.060 -1.0872  1.2066  1.0930
16447TIP3   OH270831   0.499   5.838   5.566 -0.5737  0.1309  0.4958
16447TIP3    H170832   0.523   5.880   5.484  0.2144  1.6674  1.4579
16447TIP3    H270833   0.470   5.751   5.541  3.2768 -0.9123 -1.1057
16448TIP3   OH270834   1.173   1.723  14.309 -0.3320  0.0472  0.0155
16448TIP3    H170835   1.167   1.811  14.273 -2.6273 -0.5679 -1.3360
16448TIP3    H270836   1.150   1.733  14.402  1.3063  1.0574  0.3592
16449TIP3   OH270837   2.863   4.913  14.957 -0.1206 -0.3241 -0.3977
16449TIP3    H170838   2.942   4.968  14.955 -1.0249  1.0946  0.8523
16449TIP3    H270839   2.894   4.828  14.987  0.8211  0.5067  1.1411
16450TIP3   OH270840   2.395   3.440  15.712 -0.4813  0.2765 -0.0945
16450TIP3    H170841   2.445   3.363  15.738 -0.2643  0.3969 -0.1457
16450TIP3    H270842   2.304   3.411  15.712 -0.4726  0.2165  0.6043
16451TIP3   OH270843   2.357   4.467   5.483 -0.1246  0.1356  0.0778
16451TIP3    H170844   2.326   4.434   5.568  0.6597 -0.5436  0.1136
16451TIP3    H270845   2.370   4.388   5.430  1.6677  0.3732  0.1221
16452TIP3   OH270846   1.966   6.420   0.597 -0.0185 -0.1506 -0.3231
16452TIP3    H170847   1.937   6.477   0.525 -0.8153 -1.1047 -0.7851
16452TIP3    H270848   1.899   6.430   0.664 -1.8393 -2.7205 -1.5801
16453TIP3   OH270849   1.045   2.795  11.637  0.6987 -0.2169  0.6490
16453TIP3    H170850   1.140   2.801  11.645  0.6540 -0.1214  1.0823
16453TIP3    H270851   1.011   2.870  11.686  0.3892 -0.3924  0.7059
16454TIP3   OH270852   6.377   0.531  11.284  0.5157 -0.0543 -0.2766
16454TIP3    H170853   6.349   0.444  11.255 -0.0503 -0.1018  0.3780
16454TIP3    H270854   6.402   0.576  11.203  0.2217 -0.6191 -0.6939
16455TIP3   OH270855   5.309   1.425  14.208  0.9537 -0.0106  0.2536
16455TIP3    H170856   5.224   1.417  14.252  0.7410 -0.6807 -0.2621
16455TIP3    H270857   5.371   1.442  14.279  0.1328  2.6268  0.4427
16456TIP3   OH270858   1.780   2.693   6.197  0.1674  0.4143 -0.2413
16456TIP3    H170859   1.701   2.705   6.250  0.4607 -1.4326  0.6956
16456TIP3    H270860   1.755   2.626   6.133  0.3911  1.2638 -1.2382
16457TIP3   OH270861   6.431   1.036   0.073  0.6543  0.7650  0.4646
16457TIP3    H170862   6.502   1.068   0.018  1.2706 -0.3923  0.5558
16457TIP3    H270863   6.409   0.950   0.037  0.1373  0.5799  1.1878
16458TIP3   OH270864   0.286   2.273  11.419 -0.2070 -0.0231  0.0363
16458TIP3    H170865   0.360   2.250  11.363 -1.0706  0.6983 -1.4373
16458TIP3    H270866   0.220   2.306  11.359 -1.0740  1.0129  1.5215
16459TIP3   OH270867   2.245   0.512  16.256  0.0407  0.1677 -0.0262
16459TIP3    H170868   2.315   0.557  16.209  1.7090 -1.2209  0.9866
16459TIP3    H270869   2.249   0.547  16.345  0.7664 -1.2498  0.5379
16460TIP3   OH270870   0.182   1.647   1.361 -0.5022 -0.7093  0.2551
16460TIP3    H170871   0.156   1.670   1.450  1.8162  0.5680  0.6914
16460TIP3    H270872   0.252   1.582   1.373  0.7388  0.4235 -0.5236
16461TIP3   OH270873   3.749   0.064   0.021  0.1982 -0.1609  1.0344
16461TIP3    H170874   3.662   0.080   0.057 -0.0418  1.2973 -0.0471
16461TIP3    H270875   3.786   0.152   0.010  0.9381 -0.6321 -0.5126
16462TIP3   OH270876   4.726   6.153  16.037 -0.0273  0.2316 -0.0975
16462TIP3    H170877   4.767   6.200  15.965 -0.4669  0.7980  0.0104
16462TIP3    H270878   4.731   6.213  16.111 -0.8437  0.2260 -0.0256
16463TIP3   OH270879   6.254   3.223  11.472 -0.2852 -0.0738  0.5270
16463TIP3    H170880   6.237   3.220  11.378  0.5717 -0.1206  0.3586
16463TIP3    H270881   6.330   3.282  11.480 -0.8600  0.5941  1.2720
16464TIP3   OH270882   0.604   5.010   0.311  0.3216 -0.0443 -0.6488
16464TIP3    H170883   0.675   5.036   0.251  1.1771  2.4615  1.2728
16464TIP3    H270884   0.524   5.031   0.263  0.8889 -0.5305 -1.8781
16465TIP3   OH270885   0.480   0.409  10.908 -0.6658 -0.0839  0.5853
16465TIP3    H170886   0.556   0.407  10.849 -0.0002  1.5321  1.3435
16465TIP3    H270887   0.500   0.344  10.975  0.6270  1.1427  1.4336
16466TIP3   OH270888   5.516   4.190  17.054  0.0283 -0.4306 -0.3751
16466TIP3    H170889   5.441   4.248  17.069 -0.2606 -0.8265 -0.2488
16466TIP3    H270890   5.533   4.197  16.960 -1.4282 -1.7953 -0.8015
16467TIP3   OH270891   4.887   5.409  16.217 -0.0343 -0.4489 -0.0371
16467TIP3    H170892   4.920   5.325  16.248 -0.5062 -0.9141 -0.7527
16467TIP3    H270893   4.939   5.429  16.139 -0.3764 -0.4177 -0.2635
16468TIP3   OH270894   2.916   0.125   1.601 -0.6039  0.1013  0.1937
16468TIP3    H170895   2.853   0.079   1.656  1.2528 -1.7148  0.9429
16468TIP3    H270896   2.912   0.081   1.516 -0.1709 -0.2088  0.3288
16469TIP3   OH270897   2.031   2.634   0.130 -0.7456  0.3049  0.1169
16469TIP3    H170898   1.992   2.668   0.049 -2.6677  0.9554  1.2262
16469TIP3    H270899   2.038   2.711   0.187  1.3882  0.0171  0.3179
16470TIP3   OH270900   6.010   5.974  15.065 -0.3473  0.4939 -0.0018
16470TIP3    H170901   5.951   5.917  15.114 -1.2411  1.3425 -0.0659
16470TIP3    H270902   6.061   5.914  15.010 -1.2956 -0.2509 -0.0931
16471TIP3   OH270903   0.242   5.548   2.620 -0.4947  0.2965  0.4822
16471TIP3    H170904   0.233   5.526   2.527 -2.7410 -0.0180  0.7112
16471TIP3    H270905   0.330   5.518   2.643 -1.2489 -3.2928 -0.6429
16472TIP3   OH270906   5.509   2.101  17.152 -0.1115  0.1237 -0.4211
16472TIP3    H170907   5.502   2.129  17.244 -1.9304  0.5786 -0.6677
16472TIP3    H270908   5.542   2.012  17.157 -0.6288 -0.0189  0.7132
16473TIP3   OH270909   3.078   1.772  10.863  0.4205 -0.1958 -0.4286
16473TIP3    H170910   3.037   1.700  10.815  0.3979  0.1056 -0.8682
16473TIP3    H270911   3.045   1.763  10.953 -0.0643 -0.3701 -0.6206
16474TIP3   OH270912   0.905   6.110  17.155  0.3979  0.1148 -0.2645
16474TIP3    H170913   0.967   6.182  17.148  0.6432  0.0715  1.1240
16474TIP3    H270914   0.956   6.032  17.135 -0.3004  0.4047 -3.7117
16475TIP3   OH270915   6.123   2.153   3.607 -0.3545 -0.0200  0.2045
16475TIP3    H170916   6.048   2.095   3.602 -0.1795 -0.4541  1.8088
16475TIP3    H270917   6.110   2.217   3.537 -0.6528 -1.8406 -1.4564
16476TIP3   OH270918   4.536   2.241   1.039  0.1819  0.3688  0.0812
16476TIP3    H170919   4.609   2.303   1.039  0.9444 -0.4886  1.0711
16476TIP3    H270920   4.578   2.155   1.033 -0.8223 -0.1012 -0.6233
16477TIP3   OH270921   2.107   4.903  14.532  0.4195  0.4434  0.2187
16477TIP3    H170922   2.073   4.825  14.488  0.2439  1.5387 -1.7260
16477TIP3    H270923   2.075   4.896  14.621 -1.3783 -0.6677 -0.4508
16478TIP3   OH270924   5.083   1.481  14.898 -0.3679  0.1044  0.6153
16478TIP3    H170925   5.031   1.404  14.874 -1.2407  1.1753 -1.0973
16478TIP3    H270926   5.025   1.555  14.881  0.2453  1.1627  2.7907
16479TIP3   OH270927   6.099   1.791   1.527  0.5165 -0.5052 -0.4428
16479TIP3    H170928   6.164   1.855   1.556 -0.1628 -0.0403  0.0900
16479TIP3    H270929   6.118   1.779   1.434  0.9716  0.1064 -0.4362
16480TIP3   OH270930   1.671   6.273  12.469 -0.3052  0.1985 -0.1284
16480TIP3    H170931   1.593   6.310  12.509 -0.0690  1.2795 -0.6267
16480TIP3    H270932   1.741   6.292  12.531 -0.6554 -2.2852  1.1514
16481TIP3   OH270933   1.122   6.711   5.454  0.5093  0.4861  0.9915
16481TIP3    H170934   1.178   6.707   5.376  0.3194 -0.9133  0.9013
16481TIP3    H270935   1.175   6.758   5.519  1.6955 -0.5511  0.8177
16482TIP3   OH270936   3.818   0.220  16.233 -0.1830 -0.2220  0.2097
16482TIP3    H170937   3.740   0.259  16.192  0.4161  0.1470 -0.5926
16482TIP3    H270938   3.821   0.260  16.320  1.0085  2.4122 -0.9429
16483TIP3   OH270939   5.241   1.858   2.320  0.5335  0.1019  0.3075
16483TIP3    H170940   5.202   1.833   2.404 -0.2347 -0.1848 -0.1249
16483TIP3    H270941   5.172   1.839   2.255  0.6182  1.5875 -0.2426
16484TIP3   OH270942   3.793   5.361  11.160 -0.3071 -0.1326 -0.1236
16484TIP3    H170943   3.855   5.379  11.089  0.1756 -2.0888 -0.2687
16484TIP3    H270944   3.707   5.364  11.118 -0.2642  1.4719 -0.1607
16485TIP3   OH270945   1.375   4.264  10.722 -0.2244  0.2297 -0.0461
16485TIP3    H170946   1.291   4.226  10.748 -0.2367 -0.1577 -0.6306
16485TIP3    H270947   1.431   4.188  10.705  0.4507  0.4849  0.9676
16486TIP3   OH270948   6.488   2.007   3.699 -0.1423 -0.2518 -0.2993
16486TIP3    H170949   6.441   1.952   3.637  0.2209  0.2992 -1.0838
16486TIP3    H270950   6.419   2.053   3.747 -0.4380 -1.1667  0.1654
16487TIP3   OH270951   1.948   6.438   4.526 -0.6555  0.0687 -0.0236
16487TIP3    H170952   1.857   6.444   4.496 -0.7346  0.1878  0.2436
16487TIP3    H270953   1.963   6.519   4.574 -0.2834  0.2281 -0.4075
16488TIP3   OH270954   2.055   6.568  14.653 -0.0319  0.1918  0.2250
16488TIP3    H170955   2.068   6.495  14.714 -0.9624  3.0468  4.2842
16488TIP3    H270956   2.136   6.619  14.660 -1.2606  2.0863  1.5489
16489TIP3   OH270957   4.245   6.050   0.331 -0.5780  0.3092 -0.2422
16489TIP3    H170958   4.249   6.079   0.240  0.3802 -0.8164 -0.5884
16489TIP3    H270959   4.285   5.962   0.330 -0.9093  0.1159  1.1932
16490TIP3   OH270960   3.799   2.971  15.687  0.9937 -0.2655 -0.8293
16490TIP3    H170961   3.842   2.890  15.716 -0.0865 -0.1703  1.2087
16490TIP3    H270962   3.844   3.040  15.737 -1.2946 -0.1473  1.2423
16491TIP3   OH270963   2.360   6.122  16.230 -0.0387  0.1226  0.0680
16491TIP3    H170964   2.435   6.147  16.284 -0.2690  0.1554  0.3810
16491TIP3    H270965   2.370   6.171  16.149  0.6986 -0.4785 -0.2076
16492TIP3   OH270966   2.594   4.329   1.191 -0.0172  0.0876 -0.5060
16492TIP3    H170967   2.623   4.402   1.135  0.7748  0.5611  0.4824
16492TIP3    H270968   2.675   4.293   1.227 -0.4198 -1.1545 -0.7973
16493TIP3   OH270969   1.240   3.651  14.073 -0.4293 -0.7950  0.5664
16493TIP3    H170970   1.176   3.676  14.140 -1.1880  2.3323 -1.1107
16493TIP3    H270971   1.322   3.692  14.103 -0.4651 -0.4718  0.2275
16494TIP3   OH270972   1.904   6.531   0.338  0.1565  0.2302  0.2375
16494TIP3    H170973   1.886   6.625   0.335  1.2158  0.4342 -0.8063
16494TIP3    H270974   1.822   6.490   0.311  0.2969  0.9808 -1.4908
16495TIP3   OH270975   0.532   0.242  11.115  0.7757  0.4391 -0.0700
16495TIP3    H170976   0.478   0.166  11.093  1.4309 -0.1030  0.1567
16495TIP3    H270977   0.612   0.205  11.152  0.9019  1.2545  0.5128
16496TIP3   OH270978   1.932   2.086  16.627  0.4094 -0.1918  0.4445
16496TIP3    H170979   1.954   2.001  16.588  1.1607 -0.0145  0.4743
16496TIP3    H270980   1.999   2.101  16.693  1.6817  1.4815 -1.1140
16497TIP3   OH270981   3.451   3.405   2.961  0.3285  0.4450  0.3956
16497TIP3    H170982   3.393   3.398   2.886  2.1179 -0.0285 -1.0106
16497TIP3    H270983   3.395   3.436   3.032 -1.6523 -0.2196 -0.8184
16498TIP3   OH270984   2.809   0.038  13.453 -0.1921  0.2801  0.5166
16498TIP3    H170985   2.882  -0.016  13.485  0.5491  0.6297 -0.5019
16498TIP3    H270986   2.828   0.126  13.486 -0.8550  0.1264  1.3276
16499TIP3   OH270987   3.244   0.769   4.034  0.0703  0.3677  0.1910
16499TIP3    H170988   3.159   0.753   4.075 -0.6683 -1.1361 -1.7323
16499TIP3    H270989   3.308   0.756   4.103 -1.2494  1.7251  1.7457
16500TIP3   OH270990   2.991   1.714   6.625 -0.4923 -0.2241 -0.4714
16500TIP3    H170991   3.029   1.793   6.664 -0.3251 -0.0181 -1.0508
16500TIP3    H270992   2.916   1.694   6.681  0.7904 -0.9938  1.0552
16501TIP3   OH270993   1.417   1.388   1.795  0.7201  0.6638 -0.5322
16501TIP3    H170994   1.451   1.299   1.801  1.4532  1.0334  1.9982
16501TIP3    H270995   1.328   1.378   1.762  0.0079 -1.2554  1.7322
16502TIP3   OH270996   4.914   0.613   6.100 -0.2836 -0.0228 -0.6783
16502TIP3    H170997   4.901   0.700   6.137 -0.8403  0.5536 -2.1310
16502TIP3    H270998   4.890   0.623   6.007  0.7747 -1.4464 -1.1345
16503TIP3   OH270999   3.522   4.595  17.141 -0.4016 -0.0164 -0.0416
16503TIP3    H171000   3.539   4.671  17.085  0.7939  0.9331  1.5560
16503TIP3    H271001   3.484   4.632  17.221 -0.6686 -1.2045  0.3942
16504TIP3   OH271002   2.515   0.617   1.544  0.2073  0.2760  1.0312
16504TIP3    H171003   2.421   0.627   1.556 -0.1111 -0.9990 -0.1341
16504TIP3    H271004   2.529   0.631   1.450  1.2674  1.0250  1.2818
16505TIP3   OH271005   5.247   5.863   2.784 -0.6940  0.4224  0.0410
16505TIP3    H171006   5.154   5.868   2.758 -0.0934  1.4700 -2.2016
16505TIP3    H271007   5.286   5.803   2.720  0.2356  0.2144  0.7912
16506TIP3   OH271008   0.876   3.304   1.248 -0.3324  0.1131 -0.1320
16506TIP3    H171009   0.815   3.233   1.227  0.9745 -0.8612 -0.7863
16506TIP3    H271010   0.958   3.260   1.267  1.2851  1.5209 -3.2316
16507TIP3   OH271011   4.261   2.240  16.160  0.2848 -0.2389 -0.5379
16507TIP3    H171012   4.282   2.271  16.248  1.0909  1.3249 -1.2472
16507TIP3    H271013   4.180   2.285  16.138  0.2630 -0.3716 -0.7285
16508TIP3   OH271014   5.559   5.153   2.208  0.2204  0.3384  0.4718
16508TIP3    H171015   5.526   5.141   2.297  3.2036 -1.4089  1.4792
16508TIP3    H271016   5.614   5.232   2.214  0.5515  0.1266  0.2208
16509TIP3   OH271017   3.393   2.325   0.466  0.3460 -0.1036 -0.4118
16509TIP3    H171018   3.320   2.271   0.436  1.0091 -0.5944 -1.1909
16509TIP3    H271019   3.372   2.346   0.557 -0.2553 -1.1062 -0.3080
16510TIP3   OH271020   6.712   4.788   5.628 -0.3582  0.2024  0.3076
16510TIP3    H171021   6.758   4.815   5.707  0.3105  0.2843 -0.1006
16510TIP3    H271022   6.781   4.781   5.561 -0.1011 -4.0698  0.7287
16511TIP3   OH271023   2.285   2.212   3.819  0.5860  0.6171  0.5137
16511TIP3    H171024   2.371   2.253   3.806  0.6053  0.2598 -0.5609
16511TIP3    H271025   2.233   2.279   3.862  0.4636  2.0054 -1.6448
16512TIP3   OH271026   0.912   6.350  16.859  0.2749 -0.1419  1.0639
16512TIP3    H171027   1.005   6.369  16.868  0.5793 -0.6449 -0.6150
16512TIP3    H271028   0.874   6.431  16.825  0.8836 -1.0953 -2.2501
16513TIP3   OH271029   0.268   4.472   1.840 -0.0289 -0.2263  0.3943
16513TIP3    H171030   0.215   4.416   1.783  0.0978  0.6303 -0.6164
16513TIP3    H271031   0.284   4.420   1.918 -0.1948 -1.4553 -0.3648
16514TIP3   OH271032   3.022   4.002  14.099  0.4264 -0.0042 -0.6751
16514TIP3    H171033   2.983   4.067  14.157  1.2969 -1.1076  1.2293
16514TIP3    H271034   2.979   3.919  14.122  3.0391 -1.0638  0.7876
16515TIP3   OH271035   5.799   0.005   3.655  0.2601 -0.3449  0.0879
16515TIP3    H171036   5.744  -0.071   3.633  0.1181  0.2017 -1.5895
16515TIP3    H271037   5.886  -0.020   3.624  0.1818  0.2072 -0.6160
16516TIP3   OH271038   4.271   3.167  15.223 -0.5119 -0.3064  0.1562
16516TIP3    H171039   4.239   3.155  15.312 -0.6421 -0.8548  0.0410
16516TIP3    H271040   4.194   3.155  15.168 -0.4260  0.0053 -0.0334
16517TIP3   OH271041   3.410   2.566   5.958 -0.2795  0.3389  0.3451
16517TIP3    H171042   3.384   2.647   5.913 -1.7042 -0.2684  0.0264
16517TIP3    H271043   3.348   2.500   5.927  1.0354 -0.9585  0.3886
16518TIP3   OH271044   1.159   6.517  17.005  0.0293 -0.6156  0.4644
16518TIP3    H171045   1.212   6.446  17.041  0.6564 -0.0585  0.6590
16518TIP3    H271046   1.186   6.594  17.055 -0.0872 -0.0974 -0.2609
16519TIP3   OH271047   2.981   2.635   4.512  0.2480  0.0734  0.4244
16519TIP3    H171048   2.953   2.602   4.598 -1.9979  0.7032  0.0062
16519TIP3    H271049   2.942   2.723   4.507  0.1689 -0.0358 -1.3066
16520TIP3   OH271050   2.058   6.231   4.062 -0.1631 -0.0342 -0.0094
16520TIP3    H171051   1.977   6.235   4.011 -0.4522  1.9516  0.5319
16520TIP3    H271052   2.100   6.150   4.033 -0.5791  0.6806 -2.9513
16521TIP3   OH271053   2.165   4.540   2.047  0.3340 -0.1268  0.5754
16521TIP3    H171054   2.239   4.582   2.090  0.2894  0.1143  0.4203
16521TIP3    H271055   2.091   4.597   2.067 -0.0185 -0.9123  1.6017
16522TIP3   OH271056   2.289   2.756  11.629  0.4215 -0.3024  0.2286
16522TIP3    H171057   2.244   2.788  11.707 -2.6155 -0.4491 -1.2838
16522TIP3    H271058   2.337   2.832  11.596  0.1205  0.3116  1.1658
16523TIP3   OH271059   5.082   3.683   2.121  0.6379  0.3540 -0.1201
16523TIP3    H171060   5.140   3.611   2.146 -0.1811 -0.6855 -1.0554
16523TIP3    H271061   5.061   3.665   2.029 -1.9912  0.0391  0.4410
16524TIP3   OH271062   0.718   3.392   5.876  0.5498 -0.2437  0.3425
16524TIP3    H171063   0.704   3.482   5.848 -3.1567 -1.0646 -1.0227
16524TIP3    H271064   0.676   3.388   5.963 -2.1648 -1.2072 -0.8922
16525TIP3   OH271065   1.620   1.278  13.915  0.4669 -0.3288  0.9501
16525TIP3    H171066   1.625   1.275  14.011 -0.3734  1.2528  1.0781
16525TIP3    H271067   1.558   1.348  13.897  0.9584 -0.2995 -0.7719
16526TIP3   OH271068   1.793   1.372   6.332 -0.0851  0.3108  0.0917
16526TIP3    H171069   1.698   1.362   6.341 -0.2324  0.2125 -1.2764
16526TIP3    H271070   1.810   1.463   6.355 -0.8647  0.9997 -1.8236
16527TIP3   OH271071   0.405   2.482  12.604  0.1217 -0.2817  0.0689
16527TIP3    H171072   0.451   2.417  12.551  0.4648 -0.2290  0.2978
16527TIP3    H271073   0.474   2.537  12.640 -0.0887 -0.3933  0.6697
16528TIP3   OH271074   0.102   2.133   1.356 -0.9327 -0.2283  0.3378
16528TIP3    H171075   0.067   2.195   1.292  0.1236 -0.9834 -1.0281
16528TIP3    H271076   0.162   2.185   1.409 -1.6411  0.3538  0.5877
16529TIP3   OH271077   2.942   6.183  12.098  0.1545  0.5365  0.4726
16529TIP3    H171078   2.964   6.091  12.083 -1.9056 -0.2786  1.9926
16529TIP3    H271079   3.001   6.211  12.168 -0.2365 -0.1048  1.0629
16530TIP3   OH271080   5.332   0.569  12.990  0.4195 -0.1276 -0.9126
16530TIP3    H171081   5.268   0.621  12.941 -0.2791  0.3183  0.4328
16530TIP3    H271082   5.365   0.506  12.926  0.1893  0.9919 -2.1930
16531TIP3   OH271083   2.828   5.629  14.582  0.3768 -0.0494 -0.1695
16531TIP3    H171084   2.735   5.653  14.578  0.1037 -0.5035  2.1782
16531TIP3    H271085   2.867   5.694  14.640  1.0872 -1.0758  0.5307
16532TIP3   OH271086   3.851   3.562   1.079  0.1008  0.3848  0.3557
16532TIP3    H171087   3.927   3.602   1.036  1.6536 -1.5704  1.0993
16532TIP3    H271088   3.862   3.468   1.064 -1.6737 -0.0141  1.3092
16533TIP3   OH271089   1.891   5.006   1.197 -0.3530  0.6541 -0.1517
16533TIP3    H171090   1.904   5.039   1.108  0.4209 -0.9123 -0.6666
16533TIP3    H271091   1.797   4.988   1.202 -0.1778 -0.8266 -1.2946
16534TIP3   OH271092   5.235   0.043   1.898 -0.2116  0.0007  0.2686
16534TIP3    H171093   5.153   0.093   1.901  0.5352  1.2541  0.4458
16534TIP3    H271094   5.238  -0.003   1.982 -0.5132  0.3097  0.4548
16535TIP3   OH271095   0.290   5.682   3.339  0.1804  0.3030 -0.0221
16535TIP3    H171096   0.195   5.687   3.348  0.2557 -0.1721  1.2604
16535TIP3    H271097   0.305   5.673   3.245 -1.2640 -3.1606 -0.0706
16536TIP3   OH271098   1.436   0.898  13.376 -0.3857  0.2510 -0.1755
16536TIP3    H171099   1.362   0.881  13.435 -0.3111 -1.1156 -0.4313
16536TIP3    H271100   1.484   0.815  13.375  0.4859  0.7529 -0.9420
16537TIP3   OH271101   5.987   1.731   5.288 -0.4103 -0.3667  0.4739
16537TIP3    H171102   6.010   1.793   5.219 -1.4349  0.0173  0.4495
16537TIP3    H271103   6.067   1.682   5.304  0.1556  0.3082 -0.1892
16538TIP3   OH271104   5.544   0.459  15.249 -0.1218  0.1503 -0.5250
16538TIP3    H171105   5.478   0.395  15.276 -0.7365  0.6667 -0.7961
16538TIP3    H271106   5.507   0.501  15.171  1.3289 -0.8474 -1.8281
16539TIP3   OH271107   5.936   6.509  13.788 -0.4440  0.0502  0.2012
16539TIP3    H171108   6.022   6.534  13.821 -0.5780 -0.7679  1.2047
16539TIP3    H271109   5.892   6.467  13.862 -1.2945 -0.5407 -0.6028
16540TIP3   OH271110   2.619   1.720  14.133 -0.2288 -0.0173  0.3000
16540TIP3    H171111   2.574   1.770  14.065 -1.0961 -0.5755  0.4345
16540TIP3    H271112   2.561   1.725  14.209 -0.3676 -1.2223  0.3066
16541TIP3   OH271113   3.892   4.780   4.210  0.0830  0.1182 -0.3069
16541TIP3    H171114   3.963   4.721   4.237  1.1893  1.5239 -0.0065
16541TIP3    H271115   3.937   4.861   4.184 -1.2498  0.2646 -2.3768
16542TIP3   OH271116   4.445   0.229   1.428 -0.0230 -0.2349  0.4029
16542TIP3    H171117   4.533   0.256   1.404 -0.1951 -0.8833 -1.0163
16542TIP3    H271118   4.390   0.305   1.408  0.1470  0.0606  1.0082
16543TIP3   OH271119   5.105   0.704   5.297 -0.3355 -0.5390 -0.0158
16543TIP3    H171120   5.113   0.729   5.205 -2.1904 -0.5574 -0.2245
16543TIP3    H271121   5.123   0.610   5.298 -0.4927 -0.5749 -0.3951
16544TIP3   OH271122   2.392   1.935  12.625 -0.0337  0.0866 -0.0437
16544TIP3    H171123   2.469   1.883  12.599  0.9017  0.6705  1.4822
16544TIP3    H271124   2.411   2.023  12.595  0.0781  0.3191  0.7083
16545TIP3   OH271125   6.372   5.539  11.532 -0.2462 -0.1688 -0.3353
16545TIP3    H171126   6.466   5.524  11.524 -0.2583  0.0252 -0.9279
16545TIP3    H271127   6.348   5.582  11.450 -0.4453  1.8990  0.7363
16546TIP3   OH271128   2.884   1.095  10.437  0.7033 -0.2018 -0.0095
16546TIP3    H171129   2.798   1.119  10.473  0.7846  0.7421 -0.4018
16546TIP3    H271130   2.872   1.103  10.342  1.4747  0.8565 -0.0331
16547TIP3   OH271131   4.339   1.152   4.455  0.5780 -0.6746 -0.2487
16547TIP3    H171132   4.324   1.236   4.499 -0.3407 -1.2607  0.5946
16547TIP3    H271133   4.434   1.141   4.456  0.6121 -0.5299  1.3819
16548TIP3   OH271134   5.569   2.076   2.477  0.1130 -0.5943  0.2954
16548TIP3    H171135   5.581   2.009   2.409 -0.2291 -0.8032  0.4351
16548TIP3    H271136   5.494   2.044   2.527 -0.6486  0.3603 -0.2025
16549TIP3   OH271137   0.182   4.319   0.858  0.0153  0.3380 -0.0913
16549TIP3    H171138   0.248   4.348   0.920 -0.0701  0.9119 -0.2561
16549TIP3    H271139   0.115   4.277   0.911  0.1949  0.3531  0.1460
16550TIP3   OH271140   1.460   0.292  16.926 -0.0793 -0.3034  0.0521
16550TIP3    H171141   1.376   0.255  16.899 -1.0116  1.4803  0.3588
16550TIP3    H271142   1.492   0.337  16.848 -0.1033  0.2194  0.3436
16551TIP3   OH271143   2.599   1.036  12.861 -0.4786  0.6691  0.1743
16551TIP3    H171144   2.667   0.995  12.809 -0.3815  1.5694 -0.4248
16551TIP3    H271145   2.570   0.967  12.922  0.9302  0.2780  0.4226
16552TIP3   OH271146   6.437   2.435   0.153 -0.4045 -0.1567 -0.1245
16552TIP3    H171147   6.437   2.345   0.119 -0.4138  0.3226 -1.4554
16552TIP3    H271148   6.348   2.467   0.137 -0.3647  0.1333  0.2248
16553TIP3   OH271149   6.241   6.725   1.937 -0.0450 -0.4336 -0.3569
16553TIP3    H171150   6.199   6.640   1.922  0.7063 -1.0395  0.8385
16553TIP3    H271151   6.329   6.715   1.900  0.3870 -0.5307  0.6666
16554TIP3   OH271152   5.488   2.066  14.119  0.0668  0.0007 -0.7694
16554TIP3    H171153   5.559   2.041  14.059  0.5501 -0.9402  0.1577
16554TIP3    H271154   5.527   2.060  14.206 -1.1067 -0.4096 -0.2517
16555TIP3   OH271155   4.611   0.139   4.012  0.2593 -0.2211 -0.2708
16555TIP3    H171156   4.650   0.093   4.086  1.2652 -0.9000 -1.1875
16555TIP3    H271157   4.677   0.132   3.943  0.3525  2.4019 -0.5266
16556TIP3   OH271158   5.442   6.250   3.213 -0.2655 -0.1465  0.5461
16556TIP3    H171159   5.433   6.344   3.231 -1.8192 -0.5222  1.9321
16556TIP3    H271160   5.534   6.240   3.188  0.0023  1.6949  0.6069
16557TIP3   OH271161   1.560   2.002   3.303  0.2966 -0.3760  0.5299
16557TIP3    H171162   1.567   1.920   3.255  1.2799 -0.8127  1.3690
16557TIP3    H271163   1.487   1.988   3.364  0.2331 -0.4922  0.4273
16558TIP3   OH271164   4.295   0.868   4.907 -0.7020 -0.4028  0.3044
16558TIP3    H171165   4.290   0.887   4.813  1.1603 -0.5030  0.1541
16558TIP3    H271166   4.289   0.953   4.950  2.0481  0.0716 -0.1089
16559TIP3   OH271167   0.180   0.102   0.453  0.5726  0.3673 -0.6146
16559TIP3    H171168   0.117   0.136   0.516  0.8468 -1.0127  0.4709
16559TIP3    H271169   0.264   0.109   0.497  0.7396 -0.8149 -0.7050
16560TIP3   OH271170   6.198   5.718   1.914 -0.0153  0.1922  0.4555
16560TIP3    H171171   6.224   5.734   1.823  0.6214 -0.6598  0.4705
16560TIP3    H271172   6.132   5.784   1.933  1.2183  1.6172 -0.0231
16561TIP3   OH271173   2.544   4.764   2.323  0.2789 -0.1263  1.4276
16561TIP3    H171174   2.479   4.780   2.392  1.0716 -1.1826  2.4888
16561TIP3    H271175   2.627   4.761   2.370  0.9158 -0.2944  0.3176
16562TIP3   OH271176   0.149   1.610  16.119 -0.2172  0.1663 -0.4546
16562TIP3    H171177   0.188   1.681  16.171 -1.8553 -0.2628  1.4756
16562TIP3    H271178   0.078   1.652  16.071 -0.7636 -0.0260  0.1757
16563TIP3   OH271179   2.321   6.420   0.442  0.2118 -0.8049 -0.4879
16563TIP3    H171180   2.267   6.496   0.418  0.1787 -0.9197 -0.7800
16563TIP3    H271181   2.262   6.345   0.431  0.6404 -1.0054 -1.5377
16564TIP3   OH271182   5.705   2.095  11.942 -0.0040 -0.0703 -0.0221
16564TIP3    H171183   5.761   2.161  11.982  0.4532  0.6362 -1.7414
16564TIP3    H271184   5.624   2.141  11.921  0.2699 -0.0670 -1.1195
16565TIP3   OH271185   0.609   2.138  12.049 -0.0737  0.2102 -0.1921
16565TIP3    H171186   0.649   2.196  11.984  1.0762 -0.2448  0.0825
16565TIP3    H271187   0.585   2.197  12.121 -1.3307  0.7081 -0.9906
16566TIP3   OH271188   2.412   0.273   4.955 -0.4951  0.1089 -0.0354
16566TIP3    H171189   2.453   0.248   4.872 -1.6211 -0.5672 -0.3997
16566TIP3    H271190   2.430   0.200   5.014  0.8541  0.8647  0.5405
16567TIP3   OH271191   4.732   2.718   3.412 -0.3708 -0.1777  0.3011
16567TIP3    H171192   4.686   2.683   3.488  1.7449 -2.8784  0.5013
16567TIP3    H271193   4.810   2.760   3.449  0.7360 -1.6171 -0.2694
16568TIP3   OH271194   4.875   0.932  11.702 -0.1951 -0.4348  0.5201
16568TIP3    H171195   4.856   0.840  11.722  1.2120 -0.4945  1.7291
16568TIP3    H271196   4.940   0.928  11.632 -0.2325 -0.3430  0.4798
16569TIP3   OH271197   3.623   0.963  12.243  0.0031  0.0619  0.1321
16569TIP3    H171198   3.600   0.967  12.150 -1.3292  0.2954  0.4482
16569TIP3    H271199   3.653   1.052  12.263  0.9783 -0.1763 -0.2298
16570TIP3   OH271200   1.319   2.746  13.281  0.0831  0.0593 -0.1209
16570TIP3    H171201   1.395   2.793  13.313  0.9689 -0.3796 -1.4682
16570TIP3    H271202   1.247   2.775  13.336  0.7279  2.4543 -0.4487
16571TIP3   OH271203   5.815   2.908  11.651  0.2062 -0.3123 -0.1516
16571TIP3    H171204   5.751   2.846  11.617 -1.2248  0.8777  0.2625
16571TIP3    H271205   5.816   2.979  11.586 -0.0348  0.3847  0.5897
16572TIP3   OH271206   4.441   1.940  11.874  0.3112 -0.0382 -0.1503
16572TIP3    H171207   4.441   2.013  11.812 -0.4499 -0.6847 -0.9448
16572TIP3    H271208   4.348   1.919  11.886  0.4424  0.1954  1.3669
16573TIP3   OH271209   1.054   6.117  12.022 -0.0921 -0.4663 -0.3150
16573TIP3    H171210   1.002   6.167  11.959  0.5063 -1.4776 -1.6552
16573TIP3    H271211   1.055   6.028  11.988  0.2655 -1.0523  1.1347
16574TIP3   OH271212   4.831   4.590   1.399  0.5155 -0.2000  0.1342
16574TIP3    H171213   4.772   4.662   1.423 -0.6170 -1.0176 -0.1093
16574TIP3    H271214   4.898   4.631   1.345  0.5332  0.8626  0.9233
16575TIP3   OH271215   4.516   2.172  13.140  0.1892  0.6134  0.2082
16575TIP3    H171216   4.594   2.195  13.089  0.6573  1.3817  1.2451
16575TIP3    H271217   4.550   2.138  13.223 -0.5616 -0.7278 -0.0060
16576TIP3   OH271218   1.192   3.740  15.293 -0.1044 -0.2578 -0.0355
16576TIP3    H171219   1.282   3.713  15.278 -0.1993 -0.5250 -0.1241
16576TIP3    H271220   1.153   3.744  15.206  0.0101  0.5291 -0.0568
16577TIP3   OH271221   0.973   5.678  12.007 -0.1204  0.0603 -0.2841
16577TIP3    H171222   0.989   5.589  11.978  2.0427 -0.1206  1.1582
16577TIP3    H271223   0.978   5.673  12.103 -1.1730  1.5259 -0.1187
16578TIP3   OH271224   5.513   3.185   4.319 -0.2013  0.2366  0.5085
16578TIP3    H171225   5.475   3.097   4.330 -0.3080  0.4508  2.1241
16578TIP3    H271226   5.591   3.184   4.375 -0.3265  1.2411  0.7122
16579TIP3   OH271227   4.150   4.767  15.007  0.6802 -0.2027 -0.0075
16579TIP3    H171228   4.109   4.824  14.942 -0.1655 -1.0564 -0.2361
16579TIP3    H271229   4.190   4.827  15.069  0.8183  0.6330 -0.8855
16580TIP3   OH271230   0.155   5.720  16.274 -0.0147  0.2585 -0.4137
16580TIP3    H171231   0.169   5.710  16.180  2.3774  0.2864 -0.1308
16580TIP3    H271232   0.242   5.710  16.312 -1.1619 -1.6034  1.9966
16581TIP3   OH271233   2.662   2.707   0.014  0.1352  0.4292 -0.3746
16581TIP3    H171234   2.627   2.651   0.084  0.7127  0.2180 -0.2546
16581TIP3    H271235   2.754   2.719   0.036  0.5127 -0.2605 -1.5021
16582TIP3   OH271236   6.329   2.628   0.573 -0.5155  0.6819 -0.1449
16582TIP3    H171237   6.320   2.608   0.666  0.4821  2.8294  0.4795
16582TIP3    H271238   6.242   2.610   0.536 -0.4692 -1.8437  0.7988
16583TIP3   OH271239   4.293   2.136   3.455 -0.2127  0.2745 -0.6850
16583TIP3    H171240   4.330   2.163   3.371  2.1931  2.5664  0.9480
16583TIP3    H271241   4.335   2.052   3.473  0.4459  0.5086 -1.0932
16584TIP3   OH271242   2.213   6.310  14.692  0.3450  0.2318 -0.5506
16584TIP3    H171243   2.209   6.322  14.597  0.2536  1.7608 -0.3849
16584TIP3    H271244   2.304   6.327  14.715  0.5300 -0.8592 -0.4310
16585TIP3   OH271245   4.839   6.286   2.296 -0.8291  1.2610 -0.3491
16585TIP3    H171246   4.795   6.312   2.215  0.5025 -0.8879 -1.8313
16585TIP3    H271247   4.798   6.203   2.320  0.2134  0.8342  0.0050
16586TIP3   OH271248   6.690   3.386  15.387 -0.1005  0.1865  0.0095
16586TIP3    H171249   6.705   3.357  15.297  1.8891  0.4004  0.2117
16586TIP3    H271250   6.778   3.386  15.427 -1.0112 -0.8384  2.2386
16587TIP3   OH271251   1.652   1.525  13.040 -0.1871  0.1510 -0.0448
16587TIP3    H171252   1.665   1.605  12.988 -1.6020 -0.2917 -1.1617
16587TIP3    H271253   1.615   1.462  12.978 -0.6275 -0.8497  1.1892
16588TIP3   OH271254   0.436   5.766   0.820  0.0333  0.6431  0.4080
16588TIP3    H171255   0.342   5.767   0.807 -0.0255 -0.5562  0.5666
16588TIP3    H271256   0.473   5.749   0.733  0.0386  0.1856  0.4932
16589TIP3   OH271257   4.143   0.050  11.762  0.4123 -0.0972 -0.5700
16589TIP3    H171258   4.106   0.137  11.752  0.6017 -0.2164 -2.9707
16589TIP3    H271259   4.124   0.026  11.853 -1.4590  1.6089 -0.4321
16590TIP3   OH271260   4.712   4.075   4.489  0.6558 -0.0305  0.6288
16590TIP3    H171261   4.686   4.108   4.575  0.0938  0.6967  0.1877
16590TIP3    H271262   4.808   4.080   4.489  0.6343  0.3782  1.0522
16591TIP3   OH271263   6.762   3.828  13.299 -0.3140 -0.1085  0.2403
16591TIP3    H171264   6.731   3.738  13.308  2.5706 -1.2803 -0.5070
16591TIP3    H271265   6.722   3.859  13.218 -0.5179 -1.0812 -0.0436
16592TIP3   OH271266   2.017   2.373  17.168 -0.0126 -0.5087 -0.4092
16592TIP3    H171267   1.936   2.424  17.164  0.9651  1.0664 -2.0297
16592TIP3    H271268   2.025   2.347  17.259 -2.3214 -0.7395 -0.2020
16593TIP3   OH271269   1.886   3.984   2.760  0.0699  0.0083  0.2673
16593TIP3    H171270   1.925   3.919   2.819  0.5056  0.5276  0.5506
16593TIP3    H271271   1.927   4.067   2.784 -0.3360  0.3600 -0.2328
16594TIP3   OH271272   4.945   3.388   3.582  0.3244  0.0864 -0.4551
16594TIP3    H171273   4.965   3.296   3.569  2.0209  0.5071 -0.9962
16594TIP3    H271274   4.878   3.388   3.651 -0.9103 -1.6024 -1.5588
16595TIP3   OH271275   3.502   3.963   4.474 -0.1222 -0.0866  0.8312
16595TIP3    H171276   3.525   3.874   4.448  0.8832  0.6149 -0.8637
16595TIP3    H271277   3.407   3.966   4.467 -0.0439 -0.5675 -0.7435
16596TIP3   OH271278   4.958   4.328   0.605  0.6893  0.0289  0.0359
16596TIP3    H171279   4.973   4.282   0.687  1.5694 -0.6795 -0.4918
16596TIP3    H271280   5.046   4.349   0.573  0.3239  1.7239  0.0468
16597TIP3   OH271281   1.295   5.656   3.821  0.2791 -0.3942  0.1454
16597TIP3    H171282   1.339   5.700   3.748  2.0272 -1.3198  0.6052
16597TIP3    H271283   1.351   5.582   3.842 -1.3409 -1.4174  1.0113
16598TIP3   OH271284   0.126   3.374  15.884  0.0706 -0.1574  0.3412
16598TIP3    H171285   0.208   3.325  15.888  0.2577 -0.0496 -1.5052
16598TIP3    H271286   0.065   3.323  15.937  0.6706 -1.5755 -0.2888
16599TIP3   OH271287   2.084   5.001  10.383 -0.0073 -0.3803  0.9449
16599TIP3    H171288   2.135   5.045  10.315 -0.4800 -0.7725  0.3348
16599TIP3    H271289   2.142   4.933  10.417 -0.7658 -2.0994 -1.0706
16600TIP3   OH271290   3.241   0.266  15.823 -0.2894 -0.6098  0.3734
16600TIP3    H171291   3.148   0.285  15.811 -1.1469 -2.8109  2.5896
16600TIP3    H271292   3.281   0.351  15.838 -2.7433  0.1869  3.6440
16601TIP3   OH271293   0.787   1.072   4.902 -0.2323 -0.4117  0.4876
16601TIP3    H171294   0.863   1.089   4.956 -0.8388  0.1459  1.1837
16601TIP3    H271295   0.779   0.977   4.900  0.9656 -0.5166 -0.2941
16602TIP3   OH271296   1.669   1.968   4.119  0.3302 -0.4476 -0.2166
16602TIP3    H171297   1.742   2.023   4.090  0.8599 -1.1228 -0.1926
16602TIP3    H271298   1.608   1.967   4.045 -1.0826  2.4691  0.7743
16603TIP3   OH271299   5.791   0.229   4.092  0.5723  0.0527  0.0786
16603TIP3    H171300   5.771   0.323   4.091  1.5092  0.2761  0.8367
16603TIP3    H271301   5.752   0.198   4.174  0.3578 -0.1948 -0.1191
16604TIP3   OH271302   0.855   2.655   6.170 -0.0304 -0.1187 -0.1026
16604TIP3    H171303   0.926   2.631   6.112 -0.3765  0.8322 -0.9456
16604TIP3    H271304   0.781   2.601   6.142 -0.1460  0.2087 -0.4349
16605TIP3   OH271305   3.320   2.664   6.883 -0.1226 -0.0961  0.1895
16605TIP3    H171306   3.387   2.732   6.886 -0.4039  0.1508  1.8479
16605TIP3    H271307   3.241   2.709   6.854  0.2229 -0.2396 -1.0494
16606TIP3   OH271308   6.139   0.499   4.365 -0.0213 -0.0272  0.9830
16606TIP3    H171309   6.136   0.514   4.271  0.0244  1.6222  1.2145
16606TIP3    H271310   6.047   0.491   4.392 -0.0745  0.2332  0.8863
16607TIP3   OH271311   6.602   5.837  14.710 -0.2595  0.1313  0.2198
16607TIP3    H171312   6.518   5.810  14.673 -0.7968  3.1300 -1.0252
16607TIP3    H271313   6.654   5.864  14.634  0.8500  0.7941  1.1890
16608TIP3   OH271314   1.412   5.894  12.614 -0.2231  0.4490  0.2123
16608TIP3    H171315   1.488   5.948  12.635  0.0913  0.7444 -1.5209
16608TIP3    H271316   1.341   5.957  12.599 -0.3182  0.2883 -0.0285
16609TIP3   OH271317   1.660   4.057   6.560  0.6646  0.3475 -0.2232
16609TIP3    H171318   1.577   4.025   6.596  0.2139 -0.1628 -1.6424
16609TIP3    H271319   1.644   4.149   6.542  1.0796  0.7527  1.3532
16610TIP3   OH271320   6.164   5.767  16.287 -0.5313  0.1827 -0.6677
16610TIP3    H171321   6.187   5.859  16.270  0.0558  0.0076 -0.8486
16610TIP3    H271322   6.069   5.768  16.302 -0.3139  1.0397  0.8123
16611TIP3   OH271323   1.132   1.475  16.511  0.2941 -0.0502  1.0081
16611TIP3    H171324   1.172   1.406  16.456 -0.9216 -0.5403  0.7121
16611TIP3    H271325   1.058   1.507  16.460  0.9319  1.6214  1.0776
16612TIP3   OH271326   5.074   3.716  11.531 -0.7588  0.4721 -0.0328
16612TIP3    H171327   5.008   3.687  11.468 -0.3774  1.0095 -0.6985
16612TIP3    H271328   5.023   3.756  11.602 -1.2506 -1.2004  0.5941
16613TIP3   OH271329   1.326   6.745   2.288 -0.4587 -0.1661 -0.2773
16613TIP3    H171330   1.379   6.779   2.217  2.6307 -0.7265  1.5808
16613TIP3    H271331   1.301   6.822   2.339  1.5354 -0.0893  0.6735
16614TIP3   OH271332   6.076   5.597  12.165 -0.1326  0.1983 -0.3145
16614TIP3    H171333   5.989   5.569  12.136 -0.1723  2.0259 -2.1937
16614TIP3    H271334   6.087   5.685  12.128  1.0332  1.6278  2.9760
16615TIP3   OH271335   3.462   2.680   5.547 -0.5782 -0.0839 -0.1067
16615TIP3    H171336   3.463   2.602   5.602 -1.8773  0.4206  0.6729
16615TIP3    H271337   3.553   2.692   5.521 -0.4061 -2.1373 -0.6744
16616TIP3   OH271338   5.468   6.748  14.950  0.0658 -0.2419 -0.2511
16616TIP3    H171339   5.549   6.770  14.995  0.2034 -0.7833 -0.2280
16616TIP3    H271340   5.399   6.764  15.015  0.2672 -1.0629  0.1725
16617TIP3   OH271341   3.859   3.214  16.018  0.7584 -0.1966 -0.3764
16617TIP3    H171342   3.937   3.159  16.005  0.4694 -0.4154 -1.3383
16617TIP3    H271343   3.803   3.162  16.076  1.7409  0.4159  1.1830
16618TIP3   OH271344   2.230   1.617   4.091  0.3866 -0.1417 -0.5002
16618TIP3    H171345   2.200   1.538   4.135 -1.1730  0.4237 -0.4766
16618TIP3    H271346   2.300   1.587   4.033  0.2632 -1.4224 -0.0215
16619TIP3   OH271347   0.539   2.710   2.368  0.0395  0.1212 -0.0717
16619TIP3    H171348   0.618   2.730   2.318 -1.3044  1.4228 -1.7847
16619TIP3    H271349   0.570   2.653   2.439  2.6652  1.3991 -0.0456
16620TIP3   OH271350   1.454   5.388   4.942  0.1909 -0.3994  0.2313
16620TIP3    H171351   1.487   5.323   4.880  0.4008 -1.3348  1.2958
16620TIP3    H271352   1.529   5.445   4.958 -0.7822  2.2046 -3.1491
16621TIP3   OH271353   4.821   6.572   2.332 -0.0756 -0.0538 -0.9020
16621TIP3    H171354   4.827   6.476   2.331 -1.2217 -0.1802  0.4953
16621TIP3    H271355   4.863   6.600   2.251 -0.5678 -1.7890 -1.8009
16622TIP3   OH271356   4.860   5.606  16.568  0.4587 -0.3368  0.1484
16622TIP3    H171357   4.874   5.657  16.488  1.5161 -1.0663 -0.1525
16622TIP3    H271358   4.839   5.671  16.635  0.9469  0.4106 -0.4122
16623TIP3   OH271359   1.232   3.326   1.061 -0.3740  0.3091  0.3950
16623TIP3    H171360   1.258   3.239   1.033  2.2101  1.0669  0.1587
16623TIP3    H271361   1.207   3.315   1.153 -0.0619 -0.6771  0.3723
16624TIP3   OH271362   2.797   3.306   4.043  0.6135  0.4388  0.2527
16624TIP3    H171363   2.708   3.275   4.064  1.1434 -1.6853 -0.4149
16624TIP3    H271364   2.842   3.228   4.011  2.5690  1.6144  0.0328
16625TIP3   OH271365   3.267   2.209   5.203 -0.1654  0.6247  0.2192
16625TIP3    H171366   3.192   2.268   5.205 -0.8600 -0.1359 -1.7813
16625TIP3    H271367   3.322   2.243   5.133  0.1150 -0.3010 -0.0154
16626TIP3   OH271368   4.790   5.351  14.002  0.0790  0.0668  0.4250
16626TIP3    H171369   4.776   5.363  13.908 -2.2103 -1.2544  0.5277
16626TIP3    H271370   4.840   5.429  14.028 -0.0436  0.9412 -1.6906
16627TIP3   OH271371   1.967   5.558   1.779  0.0222  0.4135 -0.5774
16627TIP3    H171372   2.028   5.629   1.758  1.3114 -0.0876  1.1707
16627TIP3    H271373   1.881   5.594   1.760  0.6485  2.4147  0.0803
16628TIP3   OH271374   6.616   3.909   0.342  0.0030 -0.1256  0.1810
16628TIP3    H171375   6.711   3.918   0.339  0.0524  0.0400  1.6397
16628TIP3    H271376   6.583   3.990   0.303  0.4463 -0.1323 -0.2205
16629TIP3   OH271377   6.365   6.781  14.833 -0.7311 -0.4424  0.3979
16629TIP3    H171378   6.355   6.823  14.748 -0.5322 -0.1204  0.5352
16629TIP3    H271379   6.305   6.828  14.890 -0.8953 -0.6846  0.4298
16630TIP3   OH271380   4.292   2.559  17.271 -0.7197  0.7115  0.3284
16630TIP3    H171381   4.276   2.587  17.361 -1.4211 -0.4459  0.5794
16630TIP3    H271382   4.381   2.524  17.272 -1.2707 -0.7428  0.9644
16631TIP3   OH271383   5.705   1.968  13.982 -0.2545  0.4721 -0.1165
16631TIP3    H171384   5.756   1.890  14.003  2.2967  1.7364 -1.2708
16631TIP3    H271385   5.740   1.999  13.899 -1.1655  2.8770  0.3097
16632TIP3   OH271386   1.341   2.329   2.429 -0.1691 -1.1336 -0.0961
16632TIP3    H171387   1.296   2.316   2.512  0.7158 -0.4704  0.4897
16632TIP3    H271388   1.385   2.414   2.437 -1.4405 -0.2215 -1.8618
16633TIP3   OH271389   3.200   6.357   2.010  0.3393 -0.2067 -0.6498
16633TIP3    H171390   3.193   6.371   1.915  0.5002 -1.1689 -0.8087
16633TIP3    H271391   3.289   6.383   2.032  0.0357  0.8609 -0.5978
16634TIP3   OH271392   1.128   5.888   2.721 -0.1382 -0.1206 -0.0327
16634TIP3    H171393   1.191   5.822   2.751  1.1199  1.3926  0.7873
16634TIP3    H271394   1.182   5.964   2.698 -1.2788 -0.2214 -3.6077
16635TIP3   OH271395   5.337   4.561   3.245  0.4073  0.6146  0.0446
16635TIP3    H171396   5.285   4.593   3.319  1.2669  0.0870  0.8991
16635TIP3    H271397   5.399   4.631   3.226  1.0290  0.2501  0.6737
16636TIP3   OH271398   1.510   0.408  13.195  0.5590  0.3456 -0.4590
16636TIP3    H171399   1.584   0.421  13.134  0.5811 -2.2305 -1.1035
16636TIP3    H271400   1.439   0.459  13.157  0.8177 -0.5504 -2.2637
16637TIP3   OH271401   4.825   0.715  14.651  0.5208  0.1667  0.8279
16637TIP3    H171402   4.860   0.803  14.658 -1.3220  0.9542  0.7083
16637TIP3    H271403   4.802   0.705  14.559  2.2298 -1.0864  0.4928
16638TIP3   OH271404   2.993   0.977   5.961  0.3831 -0.2373 -0.2452
16638TIP3    H171405   3.058   0.916   5.926  0.5350 -0.4846  0.4501
16638TIP3    H271406   2.982   0.951   6.052 -0.8895 -0.3551 -0.4165
16639TIP3   OH271407   5.939   6.134  17.069  0.1481  0.7838 -0.1153
16639TIP3    H171408   5.896   6.216  17.093  0.0282  0.5886  0.3580
16639TIP3    H271409   5.868   6.070  17.065  0.4015  0.4269  0.8227
16640TIP3   OH271410   6.627   5.270   0.645 -0.1931  0.7215 -0.3172
16640TIP3    H171411   6.617   5.197   0.584 -1.1114 -1.1252  1.8384
16640TIP3    H271412   6.721   5.281   0.654 -0.0335  1.4146 -2.4043
16641TIP3   OH271413   0.290   4.981   1.469  0.1763 -0.1427 -0.4973
16641TIP3    H171414   0.360   4.963   1.531 -0.0235 -2.1879 -0.8012
16641TIP3    H271415   0.293   5.076   1.456 -0.4848  0.5868  3.4257
16642TIP3   OH271416   4.216   0.457  12.979  0.2973 -0.3639  0.1023
16642TIP3    H171417   4.159   0.424  12.909 -0.2839 -0.7546  0.7478
16642TIP3    H271418   4.305   0.442  12.946  0.0353 -0.5309 -0.5572
16643TIP3   OH271419   4.732   1.056  10.976 -0.3361 -0.1217 -0.2860
16643TIP3    H171420   4.799   1.092  10.918  0.0475 -1.3902 -0.6801
16643TIP3    H271421   4.759   0.965  10.989 -1.6891 -0.5021  0.0101
16644TIP3   OH271422   0.776   2.318  14.244  0.4749 -0.1485  0.1053
16644TIP3    H171423   0.693   2.288  14.282 -0.1314  0.4652 -0.7032
16644TIP3    H271424   0.831   2.239  14.242 -0.4225 -0.7763 -0.2236
16645TIP3   OH271425   0.798   0.654   6.074  0.3871  0.0418 -0.2362
16645TIP3    H171426   0.876   0.644   6.129 -1.0190 -3.1107  1.4446
16645TIP3    H271427   0.743   0.716   6.122  0.6128  0.0048  0.0763
16646TIP3   OH271428   5.557   6.725   5.631  0.4825 -0.2767 -0.2134
16646TIP3    H171429   5.650   6.702   5.633  0.1745 -1.5918  0.6261
16646TIP3    H271430   5.522   6.674   5.558  0.6373  1.3015 -1.4531
16647TIP3   OH271431   6.111   2.266  11.852 -0.5742  0.0197 -0.1887
16647TIP3    H171432   6.135   2.355  11.828 -2.0761  0.9013  1.4052
16647TIP3    H271433   6.190   2.214  11.834  0.8426  1.9194  0.2801
16648TIP3   OH271434   0.126   6.413   5.536  0.3300  0.0344  0.1187
16648TIP3    H171435   0.208   6.366   5.552  1.1663  1.6445  0.7992
16648TIP3    H271436   0.118   6.414   5.441  0.7595 -0.6799  0.0649
16649TIP3   OH271437   5.907   3.950  16.482 -0.2607  0.1493 -0.3881
16649TIP3    H171438   5.983   3.916  16.434  0.9811 -0.4771  1.8509
16649TIP3    H271439   5.894   3.887  16.553  0.3958  2.8132  2.3109
16650TIP3   OH271440   1.778   0.417  13.377 -0.3452 -0.2618 -0.2446
16650TIP3    H171441   1.771   0.335  13.426 -2.1776  0.2432  0.4021
16650TIP3    H271442   1.728   0.401  13.297 -1.4334  0.4649  0.2651
16651TIP3   OH271443   1.016   3.450   6.563 -0.5677  0.0909 -0.4897
16651TIP3    H171444   1.000   3.490   6.648  0.4572 -0.3222 -0.0799
16651TIP3    H271445   1.092   3.497   6.528  0.0473 -0.8285 -0.4293
16652TIP3   OH271446   2.272   0.372  12.149 -0.3235 -0.7777  0.2750
16652TIP3    H171447   2.298   0.311  12.080  0.0630  0.2205 -0.4951
16652TIP3    H271448   2.214   0.434  12.105  0.0301 -0.0538  0.8112
16653TIP3   OH271449   3.742   5.515  13.863  0.1203  0.2503 -0.0967
16653TIP3    H171450   3.685   5.576  13.910  0.0102 -1.5710  2.3477
16653TIP3    H271451   3.684   5.443  13.838  0.7677 -0.1753 -0.3841
16654TIP3   OH271452   4.685   3.787   4.423 -0.1167  0.6515 -0.2317
16654TIP3    H171453   4.626   3.769   4.349  0.8078  0.2172 -0.8854
16654TIP3    H271454   4.680   3.881   4.435  0.1312  0.8045 -1.2216
16655TIP3   OH271455   1.370   2.181  14.751  0.0248 -0.4911  0.3025
16655TIP3    H171456   1.366   2.107  14.810 -0.9943 -2.6393 -2.2529
16655TIP3    H271457   1.279   2.196  14.725  0.4128  0.4283 -0.6255
16656TIP3   OH271458   1.924   0.899  13.858 -0.3124 -0.3419  0.0893
16656TIP3    H171459   1.965   0.963  13.800  1.6127 -1.3227  0.2900
16656TIP3    H271460   1.851   0.947  13.899  0.9043  1.6437  0.0684
16657TIP3   OH271461   2.654   1.289  12.948  1.1051  0.5126 -0.2737
16657TIP3    H171462   2.739   1.302  12.990  0.3866 -0.0247  1.4453
16657TIP3    H271463   2.639   1.195  12.952 -0.1607  0.7254  0.7431
16658TIP3   OH271464   6.703   3.489  13.192 -0.1422  0.7025  0.4786
16658TIP3    H171465   6.779   3.436  13.215 -2.0787 -1.4008  2.5125
16658TIP3    H271466   6.648   3.431  13.139 -1.9167  0.8740  2.0345
16659TIP3   OH271467   3.404   6.102   1.326  0.4568  0.5474  0.3378
16659TIP3    H171468   3.457   6.062   1.395 -0.0060 -0.0574  0.3483
16659TIP3    H271469   3.429   6.055   1.246  0.5060  0.7949  0.2049
16660TIP3   OH271470   4.496   1.918  13.039  0.4108 -0.6163  0.0627
16660TIP3    H171471   4.483   2.004  13.079  1.1950  0.5251 -1.9896
16660TIP3    H271472   4.567   1.878  13.089  1.0184  0.5419  0.1432
16661TIP3   OH271473   4.122   2.543   2.509  0.3579 -0.1313 -0.1269
16661TIP3    H171474   4.075   2.610   2.460 -1.2254 -1.0000  0.1535
16661TIP3    H271475   4.084   2.545   2.596  0.6434 -1.0583  0.0315
16662TIP3   OH271476   5.469   1.906   0.631  0.2906  0.4405 -0.1723
16662TIP3    H171477   5.501   1.986   0.673 -0.5841  0.9003 -0.3457
16662TIP3    H271478   5.476   1.839   0.699 -0.9873  1.1499  0.7079
16663TIP3   OH271479   6.216   6.389  14.786  0.1396 -0.6296 -0.3069
16663TIP3    H171480   6.296   6.412  14.834 -0.3889  1.4093 -0.3198
16663TIP3    H271481   6.240   6.399  14.694 -0.2561  0.5158 -0.2963
16664TIP3   OH271482   4.577   1.824  12.082  0.1539  0.6046 -0.4950
16664TIP3    H171483   4.557   1.863  11.997  2.6682 -0.6739 -1.7830
16664TIP3    H271484   4.615   1.895  12.133  0.6658  0.8778 -1.2448
16665TIP3   OH271485   0.228   2.727  10.639  0.2077 -0.0829 -0.4284
16665TIP3    H171486   0.182   2.703  10.719 -1.3069 -0.6743 -1.4299
16665TIP3    H271487   0.182   2.805  10.608  1.7021  1.0112 -0.0016
16666TIP3   OH271488   4.969   6.423   0.955  0.1498  0.0028 -0.6599
16666TIP3    H171489   4.967   6.386   1.043 -1.3609  0.7469 -0.3566
16666TIP3    H271490   5.036   6.372   0.910  0.9791 -0.3897  0.9100
16667TIP3   OH271491   2.290   2.467  15.497  0.0398  0.3706  0.5082
16667TIP3    H171492   2.366   2.523  15.483 -1.2281  2.3598  1.1582
16667TIP3    H271493   2.217   2.513  15.456 -1.0367 -0.9114  0.8855
16668TIP3   OH271494   2.872   5.506  14.147  0.0491  0.5640  0.2473
16668TIP3    H171495   2.897   5.422  14.185 -2.5624 -0.4948 -0.1758
16668TIP3    H271496   2.946   5.530  14.091  1.9536 -0.1310  2.3288
16669TIP3   OH271497   4.014   4.965  12.843 -0.5143  0.1711  0.3259
16669TIP3    H171498   4.012   4.887  12.899 -0.4855 -1.1943 -1.4824
16669TIP3    H271499   4.018   4.930  12.754 -0.5986  2.2614 -0.5460
16670TIP3   OH271500   0.270   6.465  11.892 -0.7682  0.1405  0.2315
16670TIP3    H171501   0.238   6.417  11.815 -0.2367 -0.4680  0.3787
16670TIP3    H271502   0.353   6.502  11.864 -0.5706 -0.0860  0.5079
16671TIP3   OH271503   4.886   3.447   4.600  0.2479  0.0081 -0.5208
16671TIP3    H171504   4.807   3.496   4.624 -0.8506 -1.4377 -1.0066
16671TIP3    H271505   4.953   3.514   4.587 -0.6869  1.2255  0.6655
16672TIP3   OH271506   4.642   5.678  11.524  0.4101 -0.1418 -0.3195
16672TIP3    H171507   4.550   5.702  11.519  0.5930  0.4730 -0.8051
16672TIP3    H271508   4.686   5.737  11.463  1.2447  0.1497  0.5528
16673TIP3   OH271509   3.425   0.980  15.150  0.4262 -0.1775 -0.0954
16673TIP3    H171510   3.339   0.948  15.120  0.4878  0.8389 -1.4735
16673TIP3    H271511   3.487   0.914  15.119  0.1573 -0.9135  0.8997
16674TIP3   OH271512   0.151   2.369  16.005 -0.1196  0.5282 -0.5111
16674TIP3    H171513   0.160   2.332  15.917 -1.0664  0.3753 -0.5522
16674TIP3    H271514   0.136   2.462  15.990 -0.4773  0.4693 -0.5204
16675TIP3   OH271515   0.797   3.462  17.251 -0.3689 -0.3555  0.1197
16675TIP3    H171516   0.892   3.457  17.240 -0.1400 -0.6751  1.9037
16675TIP3    H271517   0.777   3.395  17.316 -1.6423  0.5283  0.6757
16676TIP3   OH271518   1.776   0.919   4.053 -0.6047  0.2745 -0.1815
16676TIP3    H171519   1.782   0.922   3.958 -1.3663  0.7424 -0.2233
16676TIP3    H271520   1.687   0.891   4.071  0.8226 -4.9539  0.4019
16677TIP3   OH271521   4.057   3.838   3.431 -0.2403 -0.0974  0.1056
16677TIP3    H171522   4.114   3.813   3.358 -0.4666  0.5269 -0.2949
16677TIP3    H271523   4.074   3.772   3.499  0.3719 -0.3699 -0.3052
16678TIP3   OH271524   6.483   6.241  11.803  0.0611 -0.2657  0.4030
16678TIP3    H171525   6.536   6.184  11.747  0.3903  0.1584  0.2775
16678TIP3    H271526   6.546   6.282  11.862 -0.1975 -0.1700  0.6150
16679TIP3   OH271527   3.947   2.438  15.005 -0.2360  0.9151  0.5338
16679TIP3    H171528   4.027   2.420  15.056  0.5393  1.7882 -0.3324
16679TIP3    H271529   3.886   2.370  15.032  1.1018 -0.3203  0.5785
16680TIP3   OH271530   1.537   6.148   5.283  0.2002  0.1318  0.3762
16680TIP3    H171531   1.541   6.243   5.274  0.7556  0.4551  3.1638
16680TIP3    H271532   1.449   6.131   5.317  0.0782 -0.3554 -0.1737
16681TIP3   OH271533   3.687   2.707   0.753 -0.6162  0.2076 -0.8349
16681TIP3    H171534   3.738   2.746   0.682  0.2578 -0.1583 -0.4221
16681TIP3    H271535   3.604   2.682   0.712  0.3932 -1.2915 -2.1111
16682TIP3   OH271536   3.270   2.935   0.374  0.1413 -0.0844 -0.3404
16682TIP3    H171537   3.272   2.983   0.457  3.2676  0.5324 -0.6378
16682TIP3    H271538   3.247   2.846   0.398  0.2984  0.2328  1.0864
16683TIP3   OH271539   6.663   5.135  13.512 -0.6808 -0.2217 -0.0428
16683TIP3    H171540   6.693   5.183  13.435  0.8397 -0.5129  0.3347
16683TIP3    H271541   6.734   5.146  13.576 -1.8682 -0.0630  1.2888
16684TIP3   OH271542   1.299   6.395  16.698 -0.1070 -0.2357  0.2495
16684TIP3    H171543   1.255   6.480  16.694  0.7005  0.1686 -0.6676
16684TIP3    H271544   1.238   6.338  16.744 -0.6986  0.8229  0.8213
16685TIP3   OH271545   6.337   1.731   4.107 -0.0590  0.9813  0.2209
16685TIP3    H171546   6.273   1.667   4.076 -0.0728  1.4807 -0.8243
16685TIP3    H271547   6.284   1.797   4.152 -0.1310  0.6805  0.5775
16686TIP3   OH271548   5.906   3.720   6.126 -0.5073  0.3732  0.1797
16686TIP3    H171549   5.970   3.703   6.056 -1.1475 -2.0124  0.0810
16686TIP3    H271550   5.848   3.786   6.089  1.2134  1.7755 -0.1544
16687TIP3   OH271551   2.200   5.511  17.019 -0.7962  0.4740  0.6783
16687TIP3    H171552   2.211   5.444  17.086 -0.3033  0.4256  0.5518
16687TIP3    H271553   2.274   5.570  17.031 -0.4626  0.2296 -0.0921
16688TIP3   OH271554   5.767   2.586  15.607 -0.4111 -0.0057 -0.3214
16688TIP3    H171555   5.847   2.567  15.658 -2.0407 -1.4984  1.8853
16688TIP3    H271556   5.727   2.660  15.653 -0.8063  0.0878 -0.8169
16689TIP3   OH271557   2.286   6.480   1.276 -0.1923 -0.3355 -0.0132
16689TIP3    H171558   2.248   6.435   1.200  1.1471 -1.2876 -0.1520
16689TIP3    H271559   2.357   6.532   1.241  1.5753 -2.1154  0.7217
16690TIP3   OH271560   6.102   1.022  16.526  0.0242 -0.8150 -0.0940
16690TIP3    H171561   6.094   1.063  16.612 -0.4040 -0.8296 -0.1278
16690TIP3    H271562   6.141   1.090  16.471 -0.8768 -0.3682 -0.2008
16691TIP3   OH271563   5.884   2.633   1.291  0.4845  0.1604 -0.5722
16691TIP3    H171564   5.838   2.716   1.305  1.3719  0.3293  1.7184
16691TIP3    H271565   5.886   2.592   1.377  0.8686 -1.8580 -1.4859
16692TIP3   OH271566   1.472   2.341  16.476  0.3185 -0.4204  0.8110
16692TIP3    H171567   1.505   2.266  16.525 -2.0345 -1.1904  1.3739
16692TIP3    H271568   1.451   2.305  16.390  1.5149  0.2185  0.2234
16693TIP3   OH271569   2.129   0.527   3.622  0.1203  0.0962  0.0354
16693TIP3    H171570   2.106   0.608   3.667  1.5225  1.2430 -1.1990
16693TIP3    H271571   2.223   0.535   3.606  0.4655 -2.1711  0.5968
16694TIP3   OH271572   5.829   0.519   0.161  0.2126  0.7702 -0.4738
16694TIP3    H171573   5.742   0.481   0.167  0.0186  1.3963  1.3083
16694TIP3    H271574   5.828   0.591   0.225  1.6715  1.5056 -1.2380
16695TIP3   OH271575   3.008   5.021   1.155 -0.0352  0.7938  0.1891
16695TIP3    H171576   3.030   4.948   1.096 -1.1471  1.1382 -0.6895
16695TIP3    H271577   3.073   5.088   1.134  0.5922  0.3123  0.5408
16696TIP3   OH271578   4.811   0.213  11.180 -0.2430  0.7046 -0.2240
16696TIP3    H171579   4.790   0.250  11.095  0.1417 -0.2035 -0.7297
16696TIP3    H271580   4.890   0.161  11.165 -1.0936 -0.8113  0.2986
16697TIP3   OH271581   1.215   4.558  13.640  0.2519  0.3520 -0.3841
16697TIP3    H171582   1.214   4.464  13.661  1.5827  0.3199 -0.3829
16697TIP3    H271583   1.236   4.601  13.723 -1.0965  0.7286 -0.2154
16698TIP3   OH271584   5.795   2.399  15.198 -0.8401 -0.1481  0.8431
16698TIP3    H171585   5.789   2.492  15.220  0.1913  0.1611 -0.0644
16698TIP3    H271586   5.889   2.384  15.186 -1.1065 -0.9738 -0.3414
16699TIP3   OH271587   1.128   5.753  14.184  0.0695  0.0344  0.2400
16699TIP3    H171588   1.080   5.769  14.265  0.2732  1.4571  0.1096
16699TIP3    H271589   1.200   5.696  14.209 -1.2550 -1.5562  0.5743
16700TIP3   OH271590   0.792   3.653  14.693  0.1798 -0.0500 -0.3531
16700TIP3    H171591   0.834   3.575  14.657  0.1336 -0.1316 -0.2306
16700TIP3    H271592   0.726   3.619  14.754  1.2463  0.0980  0.9305
16701TIP3   OH271593   1.506   2.389  16.757  0.1336  0.2269  0.3773
16701TIP3    H171594   1.543   2.312  16.714 -1.4025  0.1072 -0.8421
16701TIP3    H271595   1.480   2.446  16.686  0.0176  1.2800  1.2421
16702TIP3   OH271596   0.351   0.336   0.585 -0.6789  0.1113  0.9527
16702TIP3    H171597   0.296   0.398   0.538  0.3831 -0.4819 -1.2404
16702TIP3    H271598   0.290   0.275   0.626 -1.6746  1.2867  1.2837
16703TIP3   OH271599   5.452   6.632  13.468 -0.6681 -0.0999  0.5178
16703TIP3    H171600   5.496   6.573  13.406  1.8640  2.5480 -0.4128
16703TIP3    H271601   5.405   6.694  13.413 -0.1423  1.0237  1.2990
16704TIP3   OH271602   5.382   3.731  11.319  0.0916 -0.7227 -0.3680
16704TIP3    H171603   5.465   3.745  11.363  0.6394 -2.6433 -0.6920
16704TIP3    H271604   5.320   3.711  11.390 -0.6757  2.6322  0.0892
16705TIP3   OH271605   3.635   6.655   2.156  0.5184 -0.0424  0.1312
16705TIP3    H171606   3.608   6.739   2.193  0.1884  1.0166 -2.3350
16705TIP3    H271607   3.663   6.675   2.067  0.7676 -2.5072 -0.4288
16706TIP3   OH271608   2.359   6.461  12.768  0.1411  0.4640  0.5100
16706TIP3    H171609   2.384   6.554  12.766 -0.0841  0.5147 -0.3988
16706TIP3    H271610   2.394   6.425  12.687 -1.4264  0.2004 -0.0829
16707TIP3   OH271611   1.215   6.055  11.757  0.1318 -0.3287 -0.0540
16707TIP3    H171612   1.214   6.142  11.797  0.6888  0.2854 -1.3259
16707TIP3    H271613   1.135   6.013  11.788 -0.0689  0.5764  0.6894
16708TIP3   OH271614   4.435   1.304   3.741  0.1174  0.2993  0.3556
16708TIP3    H171615   4.422   1.283   3.649 -2.4943  1.0958  0.4635
16708TIP3    H271616   4.460   1.396   3.741 -0.9491  0.5954  0.4771
16709TIP3   OH271617   4.564   1.022  16.281  0.2446 -0.9101 -0.0071
16709TIP3    H171618   4.482   1.054  16.245  0.3103 -0.9539 -0.1957
16709TIP3    H271619   4.615   0.994  16.205  0.2811 -1.2405  0.1332
16710TIP3   OH271620   5.567   2.288  12.122 -0.3790 -0.1705  0.1360
16710TIP3    H171621   5.556   2.350  12.049 -1.4552 -0.4221  0.0635
16710TIP3    H271622   5.581   2.343  12.198 -2.5406  0.2660  0.2862
16711TIP3   OH271623   3.779   3.823   4.406 -0.0877 -0.1617  0.5366
16711TIP3    H171624   3.829   3.829   4.488 -0.9733  0.4698  1.0415
16711TIP3    H271625   3.736   3.738   4.411  2.0234 -1.3956 -0.5696
16712TIP3   OH271626   4.219   4.065   2.704 -0.3864 -0.0356 -0.0076
16712TIP3    H171627   4.257   3.989   2.749 -2.5082 -0.1028  1.8839
16712TIP3    H271628   4.182   4.029   2.624  1.1372 -0.4215 -0.5789
16713TIP3   OH271629   1.085   2.837   6.267  0.0020  0.1587  0.3446
16713TIP3    H171630   1.091   2.869   6.357  2.4381  1.5872 -0.2523
16713TIP3    H271631   1.110   2.745   6.273 -1.0348 -0.0895  1.2547
16714TIP3   OH271632   3.870   5.207   3.532 -0.1252  0.2103 -0.2597
16714TIP3    H171633   3.878   5.125   3.483  1.6628  1.5244 -2.3142
16714TIP3    H271634   3.788   5.245   3.501 -0.2336 -0.1126 -0.3770
16715TIP3   OH271635   5.031   1.550  17.148  0.5324  0.2961  0.5943
16715TIP3    H171636   5.020   1.473  17.093  2.2813  0.4035  0.0200
16715TIP3    H271637   5.023   1.624  17.087  0.1359  0.5149  0.9107
16716TIP3   OH271638   5.655   3.222  16.018 -0.0258 -0.2405 -0.5377
16716TIP3    H171639   5.706   3.148  16.052  1.1361  1.1727  0.9301
16716TIP3    H271640   5.574   3.219  16.068  0.3482 -0.0626  0.0873
16717TIP3   OH271641   2.751   6.181  12.929  0.1183  0.7963 -0.3107
16717TIP3    H171642   2.844   6.173  12.908  0.5063 -0.3727  1.5943
16717TIP3    H271643   2.706   6.148  12.852  1.3621 -0.6328 -0.4774
16718TIP3   OH271644   5.497   2.527  12.641  0.7406  0.4801 -0.3191
16718TIP3    H171645   5.517   2.596  12.578 -0.5871 -0.7642 -2.2318
16718TIP3    H271646   5.518   2.446  12.593  1.5594 -0.4974  1.5798
16719TIP3   OH271647   4.711   2.998   1.671  0.2222 -0.0077 -0.3511
16719TIP3    H171648   4.717   2.906   1.647  1.2564  0.0564 -0.3796
16719TIP3    H271649   4.751   3.045   1.598 -1.1584  0.5600 -0.7934
16720TIP3   OH271650   2.705   0.553  17.096  0.0904 -0.2254  0.6326
16720TIP3    H171651   2.786   0.523  17.055  0.4790  0.6761  0.7289
16720TIP3    H271652   2.701   0.646  17.075 -1.5985 -0.5096 -0.5141
16721TIP3   OH271653   3.637   3.324  12.930  0.2838 -0.3441 -0.4211
16721TIP3    H171654   3.654   3.229  12.932 -0.8354 -0.5629 -0.8005
16721TIP3    H271655   3.571   3.338  12.998 -0.7916 -0.1024 -1.4923
16722TIP3   OH271656   4.342   4.795   6.114 -0.1125  0.1774 -0.1152
16722TIP3    H171657   4.416   4.833   6.160  0.9611 -0.3280 -1.3489
16722TIP3    H271658   4.318   4.718   6.165  1.5630 -0.8191 -0.7756
16723TIP3   OH271659   6.498   3.379   0.156 -0.0422 -0.2127  0.0413
16723TIP3    H171660   6.494   3.410   0.246 -0.0505  0.1384 -0.0789
16723TIP3    H271661   6.511   3.458   0.104 -0.7395 -0.3334 -0.3263
16724TIP3   OH271662   4.856   0.952   4.479  0.1342  0.1610  1.0105
16724TIP3    H171663   4.879   0.897   4.554  0.4430 -0.8868  0.1686
16724TIP3    H271664   4.934   1.007   4.465  0.2275  0.0807  1.2158
16725TIP3   OH271665   3.173   4.596  17.218 -0.3065  0.3202  0.3476
16725TIP3    H171666   3.116   4.572  17.291  0.9231 -0.5250  1.0584
16725TIP3    H271667   3.248   4.640  17.258  0.0258  0.5297 -0.4753
16726TIP3   OH271668   4.748   2.963   0.379  0.6906 -0.5194 -0.3546
16726TIP3    H171669   4.821   3.022   0.400  1.1585  0.5066 -4.1713
16726TIP3    H271670   4.678   2.991   0.438  1.6240  2.3771 -0.4219
16727TIP3   OH271671   4.422   4.662  16.809 -0.1621  0.3817  0.6546
16727TIP3    H171672   4.354   4.616  16.760  2.7314 -0.3647 -3.0594
16727TIP3    H271673   4.402   4.755  16.797  0.0783  0.2019 -1.5505
16728TIP3   OH271674   2.588   2.729   0.673  0.6415 -0.1289  0.2019
16728TIP3    H171675   2.582   2.718   0.578 -1.2061  0.1160  0.2555
16728TIP3    H271676   2.511   2.782   0.696  1.0787 -0.1465  1.8360
16729TIP3   OH271677   0.039   2.482  13.835 -0.2398  0.2943  0.2965
16729TIP3    H171678   0.127   2.497  13.871  0.1832  0.6663 -0.8150
16729TIP3    H271679   0.055   2.448  13.747 -1.2137  0.2977  0.1042
16730TIP3   OH271680   4.323   1.987  11.173  0.4253 -0.0294  0.7991
16730TIP3    H171681   4.351   1.988  11.082 -0.7079 -1.6455  0.3960
16730TIP3    H271682   4.369   2.061  11.213 -0.1862  1.6674 -1.4181
16731TIP3   OH271683   4.476   2.791   5.730 -1.0197  0.0067 -0.0111
16731TIP3    H171684   4.396   2.824   5.690 -0.4810  0.6806 -0.5509
16731TIP3    H271685   4.446   2.739   5.804 -1.9331  1.2078  0.4987
16732TIP3   OH271686   4.804   1.055  14.265  0.3992  0.3992  0.4200
16732TIP3    H171687   4.721   1.075  14.220  0.3616  2.6711  1.3175
16732TIP3    H271688   4.872   1.087  14.205  0.6867 -1.5250 -0.3451
16733TIP3   OH271689   1.048   0.144  11.751 -0.5276 -0.1018  0.0320
16733TIP3    H171690   1.070   0.235  11.731 -0.5220  0.0838  0.8237
16733TIP3    H271691   0.966   0.128  11.704 -1.3880  0.8330  1.1415
16734TIP3   OH271692   5.082   2.672   4.207  0.4319 -0.4941  0.0948
16734TIP3    H171693   5.154   2.674   4.144  0.1165 -0.8434 -0.2849
16734TIP3    H271694   5.122   2.642   4.288  0.5201 -1.7702 -0.3937
16735TIP3   OH271695   0.093   0.143   4.545 -0.1745 -0.2070  0.3032
16735TIP3    H171696   0.113   0.140   4.451  4.7646  1.5779  1.0246
16735TIP3    H271697   0.057   0.056   4.565 -0.5648 -0.9350 -3.0137
16736TIP3   OH271698   2.798   6.221   3.370 -0.1389  0.0626  0.2592
16736TIP3    H171699   2.822   6.154   3.435 -1.4387 -1.8557 -1.1331
16736TIP3    H271700   2.703   6.227   3.376 -0.4192 -0.9834 -2.1610
16737TIP3   OH271701   1.014   1.393   3.949 -0.0136  0.1902 -0.1711
16737TIP3    H171702   0.947   1.450   3.987 -0.7921 -0.8606  0.0701
16737TIP3    H271703   1.074   1.453   3.905 -2.2462  1.0580 -2.2430
16738TIP3   OH271704   2.388   0.288   3.811  0.5843  0.1287  0.3594
16738TIP3    H171705   2.416   0.355   3.873 -0.8223  2.0737 -0.9909
16738TIP3    H271706   2.377   0.209   3.864 -0.2737  1.6179  2.5455
16739TIP3   OH271707   6.728   5.260  15.332 -0.0018 -0.2369  0.2660
16739TIP3    H171708   6.741   5.274  15.238 -1.2059  0.2230  0.1574
16739TIP3    H271709   6.665   5.189  15.337  1.0514 -1.1706  0.7659
16740TIP3   OH271710   3.694   5.096   4.652 -0.3075  0.0510 -0.0426
16740TIP3    H171711   3.727   5.066   4.567  1.1880  1.4342 -0.0043
16740TIP3    H271712   3.760   5.067   4.715 -1.2682 -0.7179  0.6326
16741TIP3   OH271713   3.574   6.404  11.360  0.8270 -0.5687 -0.0643
16741TIP3    H171714   3.520   6.430  11.435 -0.3186 -0.5627 -0.8599
16741TIP3    H271715   3.538   6.454  11.287  1.1566 -1.4434 -0.8396
16742TIP3   OH271716   4.218   4.890  15.250 -0.1394 -0.7365  0.0102
16742TIP3    H171717   4.129   4.865  15.275 -1.3403  2.7712 -0.2124
16742TIP3    H271718   4.238   4.966  15.303  1.2534  0.7540 -2.4339
16743TIP3   OH271719   3.400   1.061  10.673 -0.4069  0.4345  0.7165
16743TIP3    H171720   3.322   1.054  10.619 -0.9113  1.8385  1.2138
16743TIP3    H271721   3.473   1.058  10.612 -0.9420  1.3123  0.0186
16744TIP3   OH271722   0.103   1.590  15.688 -0.0136  0.1869  0.2485
16744TIP3    H171723   0.197   1.572  15.698  0.2391  1.2018 -0.1769
16744TIP3    H271724   0.061   1.528  15.747  0.8977 -0.6194  0.0744
16745TIP3   OH271725   6.794   5.315   5.380  0.1111 -0.7127 -0.0790
16745TIP3    H171726   6.843   5.393   5.405 -2.3977  1.1075 -0.4199
16745TIP3    H271727   6.813   5.251   5.449  0.8282  0.8365  1.2177
16746TIP3   OH271728   5.503   3.436   6.259 -0.6266 -0.8070 -0.3054
16746TIP3    H171729   5.417   3.442   6.300  0.2060 -0.7561  1.5256
16746TIP3    H271730   5.541   3.355   6.294  1.3857  0.8734  1.6909
16747TIP3   OH271731   4.737   1.329  15.309 -0.0565 -0.1103  0.6991
16747TIP3    H171732   4.664   1.313  15.249 -0.7613  1.5691  1.0468
16747TIP3    H271733   4.705   1.397  15.367  1.0305 -0.8935  2.2760
16748TIP3   OH271734   1.910   2.388  16.324  0.3433  0.0361  0.0124
16748TIP3    H171735   1.909   2.483  16.336  0.9748  0.0867 -0.2649
16748TIP3    H271736   1.905   2.352  16.412 -0.4177  0.3206  0.0877
16749TIP3   OH271737   2.894   1.186   2.633  0.7108  0.2638  0.7132
16749TIP3    H171738   2.935   1.269   2.609 -0.4972  0.2916 -1.4269
16749TIP3    H271739   2.822   1.211   2.691  0.2738  0.7493 -0.0208
16750TIP3   OH271740   5.653   5.266   1.436 -0.6606  0.1903  0.5525
16750TIP3    H171741   5.617   5.185   1.397 -0.7051  0.8596 -0.8656
16750TIP3    H271742   5.731   5.284   1.384 -0.6874  1.1073  0.8280
16751TIP3   OH271743   1.853   2.270   2.799 -0.7043  0.0946  0.6184
16751TIP3    H171744   1.933   2.232   2.836 -0.3622  0.1290 -0.0622
16751TIP3    H271745   1.791   2.198   2.797 -1.5251  0.6084  3.3956
16752TIP3   OH271746   0.436   4.688   4.701  0.5463 -0.2778 -0.0851
16752TIP3    H171747   0.515   4.675   4.754 -0.0516  1.4218  1.3370
16752TIP3    H271748   0.460   4.755   4.637 -0.1467  1.6470  1.5339
16753TIP3   OH271749   3.488   4.390   0.262  0.6566 -0.0038  0.2468
16753TIP3    H171750   3.486   4.330   0.188 -1.0995 -0.0625  0.2861
16753TIP3    H271751   3.395   4.411   0.278  1.0870  1.0295  1.5868
16754TIP3   OH271752   1.049   6.110   4.595 -0.3978 -0.0459 -0.1744
16754TIP3    H171753   1.083   6.090   4.683 -2.3187  1.5777  1.0300
16754TIP3    H271754   0.978   6.047   4.583 -1.6548  1.2242  0.4649
16755TIP3   OH271755   2.998   5.230  11.867 -0.0243 -0.6838 -0.3839
16755TIP3    H171756   3.024   5.293  11.935  1.6329 -2.6030  0.8961
16755TIP3    H271757   2.990   5.283  11.788 -1.1011  1.4988  1.0846
16756TIP3   OH271758   3.604   4.052   5.253  0.0496  0.1663 -0.0658
16756TIP3    H171759   3.587   4.101   5.173  1.2610  0.8125  0.0393
16756TIP3    H271760   3.639   3.968   5.223 -2.7792 -1.0364 -0.2702
16757TIP3   OH271761   6.369   0.723  14.175  0.0715  0.2268  0.1213
16757TIP3    H171762   6.384   0.680  14.091  0.4263 -1.1228  0.8469
16757TIP3    H271763   6.367   0.817  14.154 -0.6420 -0.1168 -1.4866
16758TIP3   OH271764   0.534   5.339   4.302  0.1726  0.1164 -0.0183
16758TIP3    H171765   0.525   5.251   4.265  1.9892  0.2902 -1.0166
16758TIP3    H271766   0.508   5.398   4.231 -0.5189  0.4163  0.4671
16759TIP3   OH271767   1.447   6.508  12.088  0.1131  0.1123  0.4407
16759TIP3    H171768   1.352   6.507  12.079  0.1289 -0.5363  0.2802
16759TIP3    H271769   1.479   6.536  12.003  0.1005 -1.1169  0.0028
16760TIP3   OH271770   1.972   4.109  13.436  0.0411  0.0700 -0.0796
16760TIP3    H171771   1.929   4.194  13.426  0.3676  0.2888  0.3401
16760TIP3    H271772   1.900   4.046  13.438 -0.1655  0.2358 -1.2862
16761TIP3   OH271773   0.831   2.180  11.529 -0.2175 -0.7401 -0.3034
16761TIP3    H171774   0.847   2.137  11.445 -0.2629 -0.1823 -0.6031
16761TIP3    H271775   0.743   2.215  11.522  0.1616  0.2160 -0.4309
16762TIP3   OH271776   0.795   2.779   6.431  0.3714  0.1481  0.1070
16762TIP3    H171777   0.865   2.803   6.370  0.4160 -0.1671  0.0322
16762TIP3    H271778   0.735   2.726   6.378  0.1677  0.2686  0.2163
16763TIP3   OH271779   2.533   2.319   3.742 -0.4394 -0.1412 -0.5859
16763TIP3    H171780   2.534   2.314   3.837  0.3973  1.0988 -0.5058
16763TIP3    H271781   2.616   2.361   3.719 -0.8004 -0.0605 -1.8328
16764TIP3   OH271782   6.080   3.118   0.021 -0.3585 -0.1652  0.0120
16764TIP3    H171783   6.015   3.048   0.024 -0.2841 -0.2142  0.7912
16764TIP3    H271784   6.127   3.110   0.104  1.5160 -0.9640 -1.0623
16765TIP3   OH271785   1.432   4.459  13.379  0.4139 -0.1332  0.6390
16765TIP3    H171786   1.476   4.432  13.298 -0.1943  0.3491  0.1385
16765TIP3    H271787   1.365   4.392  13.392  0.0291  0.1896  0.3361
16766TIP3   OH271788   6.251   3.102  15.460  0.4202 -0.0384  0.2911
16766TIP3    H171789   6.264   3.190  15.495  1.7663  0.1734 -0.6742
16766TIP3    H271790   6.178   3.112  15.398 -0.9775 -0.1202  1.8381
16767TIP3   OH271791   0.225   6.686  13.520 -0.7114  0.8029  0.1305
16767TIP3    H171792   0.242   6.741  13.444  0.0871  1.0406  0.4742
16767TIP3    H271793   0.310   6.648  13.541 -0.6801  1.6467  1.6080
16768TIP3   OH271794   6.677   0.832  14.755 -0.4222  0.2251 -0.1693
16768TIP3    H171795   6.747   0.877  14.708 -0.1347 -0.1679 -0.1201
16768TIP3    H271796   6.629   0.902  14.800 -0.8224  0.6295 -1.2006
16769TIP3   OH271797   4.529   5.419   0.522 -0.6748  0.1873  0.0921
16769TIP3    H171798   4.552   5.492   0.465 -1.6477  0.9314  0.6364
16769TIP3    H271799   4.438   5.434   0.546  0.1193  0.7670  3.1056
16770TIP3   OH271800   4.846   5.956   5.146  0.2734  0.0112 -0.2608
16770TIP3    H171801   4.876   5.867   5.132 -1.1920 -0.5338 -0.1341
16770TIP3    H271802   4.751   5.949   5.150  0.1873  1.3208  1.5202
16771TIP3   OH271803   4.398   2.034   6.038  0.3486  0.0919  1.0281
16771TIP3    H171804   4.349   2.052   5.958  1.3143 -1.0713  0.1264
16771TIP3    H271805   4.355   1.957   6.076  1.2770 -0.7814  0.3647
16772TIP3   OH271806   2.194   6.506  15.179  0.2358 -0.5753 -0.1876
16772TIP3    H171807   2.154   6.453  15.110 -1.1172 -0.4651  0.4718
16772TIP3    H271808   2.153   6.474  15.260 -0.1569  1.0412  0.2888
16773TIP3   OH271809   1.405   5.002   4.211  0.1500  0.7121  0.0950
16773TIP3    H171810   1.411   5.055   4.132  0.2188 -0.1316 -0.4839
16773TIP3    H271811   1.403   4.912   4.179 -0.4723  0.3789  1.0224
16774TIP3   OH271812   0.079   6.065   2.406  0.3807  0.9809 -0.0258
16774TIP3    H171813   0.062   6.007   2.332  2.7992 -0.1913  0.2255
16774TIP3    H271814   0.012   6.044   2.470  0.2988 -0.4623 -0.5598
16775TIP3   OH271815   1.759   6.245   3.589 -0.0730 -0.5075 -0.1024
16775TIP3    H171816   1.832   6.238   3.650  1.0425 -2.0465 -1.5246
16775TIP3    H271817   1.800   6.246   3.502 -1.7352 -2.9191 -1.0285
16776TIP3   OH271818   0.884   5.143   3.588 -0.0847 -0.6502  0.2024
16776TIP3    H171819   0.802   5.098   3.571 -1.0276  0.5675  1.2320
16776TIP3    H271820   0.899   5.131   3.682  1.2881 -1.4276 -0.0963
16777TIP3   OH271821   2.136   6.206  15.193  0.0065  0.1626 -0.2281
16777TIP3    H171822   2.124   6.248  15.108 -1.0160  2.6639  1.0548
16777TIP3    H271823   2.070   6.136  15.195 -0.0718  0.1860 -1.3996
16778TIP3   OH271824   5.830   4.730  17.067  0.5271  0.1341 -0.6021
16778TIP3    H171825   5.899   4.768  17.013 -1.7870  2.6073 -2.0749
16778TIP3    H271826   5.775   4.681  17.006 -0.2485  0.0815  0.1110
16779TIP3   OH271827   2.515   3.221  16.523 -0.0249 -0.0121 -0.1955
16779TIP3    H171828   2.605   3.253  16.521 -0.2049  0.5833 -2.5950
16779TIP3    H271829   2.476   3.264  16.599  0.8848  2.2420 -0.9164
16780TIP3   OH271830   2.620   6.727   2.127  0.2583 -0.4405  0.3107
16780TIP3    H171831   2.695   6.775   2.161 -0.0262 -1.1650  2.0379
16780TIP3    H271832   2.544   6.766   2.170 -0.0630 -1.7356  0.9941
16781TIP3   OH271833   4.334   4.257  11.489  0.5789 -0.5053  0.8648
16781TIP3    H171834   4.279   4.184  11.463  0.1680  0.0603  0.0995
16781TIP3    H271835   4.290   4.296  11.564  1.4452 -1.7695  2.0901
16782TIP3   OH271836   6.222   5.051  17.085  0.1814 -0.1396 -0.2201
16782TIP3    H171837   6.140   5.050  17.134 -0.3152  1.9173 -0.8944
16782TIP3    H271838   6.275   5.118  17.128 -0.1005  1.4047 -2.1393
16783TIP3   OH271839   5.301   5.154   3.455 -0.4579  0.5105  0.1609
16783TIP3    H171840   5.356   5.231   3.469  0.3427  0.4935 -2.3169
16783TIP3    H271841   5.301   5.142   3.360 -0.6501 -2.4738  0.4350
16784TIP3   OH271842   3.435   6.311  13.518 -0.6391 -0.5550  1.0372
16784TIP3    H171843   3.351   6.340  13.482  0.4071  1.7193  0.2069
16784TIP3    H271844   3.486   6.284  13.441 -0.0591 -0.3623  1.3503
16785TIP3   OH271845   3.207   0.686   1.236  0.6533  0.0213 -0.1857
16785TIP3    H171846   3.114   0.707   1.246  0.7561 -0.0708  1.1621
16785TIP3    H271847   3.243   0.758   1.184 -0.4758 -0.8173 -2.2657
16786TIP3   OH271848   2.064   5.522   3.489  0.0094  0.6867  0.1324
16786TIP3    H171849   2.107   5.583   3.429  0.0477 -0.0304 -0.5846
16786TIP3    H271850   2.134   5.465   3.519 -0.3698 -0.2831 -0.7900
16787TIP3   OH271851   6.071   6.325  16.060 -0.4513  0.1247 -0.6211
16787TIP3    H171852   6.112   6.403  16.098 -0.7310 -0.3287  0.6759
16787TIP3    H271853   5.982   6.352  16.038 -0.7001  0.0604  0.2722
16788TIP3   OH271854   3.042   1.850   3.358 -0.9788 -0.3416  0.4220
16788TIP3    H171855   3.113   1.830   3.419 -0.3130 -0.8823 -0.5040
16788TIP3    H271856   2.995   1.923   3.399  0.2993  0.2453  0.9011
16789TIP3   OH271857   1.166   6.233  17.162 -1.0141  0.3662  0.1112
16789TIP3    H171858   1.150   6.271  17.249 -1.0590 -1.8468  1.1437
16789TIP3    H271859   1.243   6.178  17.174 -1.2270 -0.2466 -1.1684
16790TIP3   OH271860   2.459   1.154  16.146  0.4420 -0.2423  0.1578
16790TIP3    H171861   2.532   1.112  16.100  1.4588  0.3747  1.1558
16790TIP3    H271862   2.473   1.248  16.132 -0.2440 -0.1254  0.2443
16791TIP3   OH271863   3.373   4.628   5.967 -0.1347 -0.2266 -0.1642
16791TIP3    H171864   3.394   4.560   6.030 -1.2782 -0.8167 -0.3907
16791TIP3    H271865   3.457   4.653   5.929  0.2889 -1.6359 -0.2028
16792TIP3   OH271866   3.996   0.291   0.292  0.2796 -0.1657  0.1290
16792TIP3    H171867   4.011   0.382   0.267  1.0353 -0.6271 -1.1555
16792TIP3    H271868   3.974   0.296   0.385  1.3958  1.2344  0.3609
16793TIP3   OH271869   0.044   5.783   0.273  0.1139 -0.2853  0.2665
16793TIP3    H171870  -0.003   5.752   0.195 -1.7100  0.8822  0.8321
16793TIP3    H271871   0.031   5.713   0.338 -0.6967 -0.0845  0.3389
16794TIP3   OH271872   2.744   6.149  16.790  0.0965 -0.0140 -0.1313
16794TIP3    H171873   2.689   6.100  16.728 -1.4378 -0.4425  1.4815
16794TIP3    H271874   2.831   6.109  16.781 -0.6214 -1.6157 -0.3903
16795TIP3   OH271875   3.401   4.346  17.155  0.5065 -0.1063  0.2103
16795TIP3    H171876   3.473   4.286  17.175 -0.5370 -0.7376  2.3970
16795TIP3    H271877   3.442   4.433  17.152  1.5098 -0.5591  0.4202
16796TIP3   OH271878   6.788   0.913   3.601 -0.0563  0.2037 -0.2686
16796TIP3    H171879   6.731   0.846   3.563 -0.7106  0.0686  0.9224
16796TIP3    H271880   6.854   0.863   3.649  0.6877  0.3779 -1.0858
16797TIP3   OH271881   4.708   6.185   5.483 -0.1062 -0.2578  0.3404
16797TIP3    H171882   4.680   6.102   5.522 -0.8667  0.3418  1.1100
16797TIP3    H271883   4.644   6.249   5.514  1.5950  1.0081  1.4236
16798TIP3   OH271884   4.683   5.121  15.510 -0.2088 -0.8862 -0.3366
16798TIP3    H171885   4.634   5.091  15.434 -1.0970  0.3196 -0.2741
16798TIP3    H271886   4.641   5.080  15.584  0.1701 -1.4526 -0.4322
16799TIP3   OH271887   3.756   4.823   4.461 -0.1356 -0.2079 -0.4321
16799TIP3    H171888   3.808   4.790   4.388 -0.2303  0.9175 -1.0217
16799TIP3    H271889   3.812   4.812   4.538  1.4697  1.9561 -1.1907
16800TIP3   OH271890   6.434   5.970  16.592 -0.5409  0.1770 -0.0607
16800TIP3    H171891   6.417   5.960  16.499  0.9383  1.3734 -0.4960
16800TIP3    H271892   6.525   5.998  16.597  0.0478 -1.8031  1.8703
16801TIP3   OH271893   4.331   2.601  12.966  0.0438  0.7446 -0.2877
16801TIP3    H171894   4.376   2.539  12.908 -1.3405 -0.0541 -0.5640
16801TIP3    H271895   4.380   2.682  12.957  2.5911 -0.5454  0.8950
16802TIP3   OH271896   1.878   3.125  17.018  0.3290 -0.6457  0.4673
16802TIP3    H171897   1.904   3.157  16.932  1.0667 -2.1529  0.0928
16802TIP3    H271898   1.961   3.113  17.065 -0.1067  1.8413  2.0915
16803TIP3   OH271899   0.233   5.502   0.451  0.3435  0.6127 -0.1212
16803TIP3    H171900   0.236   5.562   0.377 -1.1206  0.1058 -0.6128
16803TIP3    H271901   0.184   5.426   0.420  0.5057 -0.0222  1.0799
16804TIP3   OH271902   3.366   4.285  13.009  0.1582 -0.1308 -0.2279
16804TIP3    H171903   3.412   4.236  13.077  1.3421 -3.5424 -3.1746
16804TIP3    H271904   3.274   4.265  13.023  0.6008 -3.5814 -1.3956
16805TIP3   OH271905   3.771   1.268  13.279 -0.4481  0.1514  0.0467
16805TIP3    H171906   3.740   1.252  13.368 -2.1747  1.6069 -0.2419
16805TIP3    H271907   3.725   1.203  13.226  0.1392 -0.3386  0.1300
16806TIP3   OH271908   0.111   5.511  14.384 -0.2394  0.3015 -0.4330
16806TIP3    H171909   0.173   5.448  14.347 -0.6892 -0.9324  0.8285
16806TIP3    H271910   0.025   5.473  14.366 -0.4980  0.2840  0.7846
16807TIP3   OH271911   1.558   3.489  14.346 -0.6587  0.3959 -0.5138
16807TIP3    H171912   1.491   3.544  14.389  0.6804  1.5390  0.1863
16807TIP3    H271913   1.534   3.491  14.253 -2.7210 -0.8644 -0.0761
16808TIP3   OH271914   6.016   1.956  14.705  0.5991  0.0353 -0.2111
16808TIP3    H171915   5.965   1.999  14.636  0.4348 -0.9880 -0.7467
16808TIP3    H271916   5.970   1.873  14.720  1.0003 -0.0316  0.6905
16809TIP3   OH271917   0.461   2.218  12.910  0.6349 -0.0826  0.3682
16809TIP3    H171918   0.555   2.224  12.925  0.2146 -0.3105  3.8342
16809TIP3    H271919   0.424   2.290  12.960 -1.1024 -0.2534 -0.6002
16810TIP3   OH271920   4.440   0.376  11.084  0.0507  0.3091 -0.2472
16810TIP3    H171921   4.506   0.309  11.104  0.4535  0.1621 -1.9065
16810TIP3    H271922   4.487   0.441  11.031 -1.1459  0.1390 -1.5754
16811TIP3   OH271923   5.812   2.301  14.116  0.5082  0.9156 -0.6799
16811TIP3    H171924   5.801   2.394  14.137 -1.1901  0.3350  1.3163
16811TIP3    H271925   5.734   2.278  14.065 -0.5383  0.0190  1.2143
16812TIP3   OH271926   2.887   3.577  13.305 -0.4293  0.0131  0.1971
16812TIP3    H171927   2.839   3.654  13.276  0.9606  0.5608 -0.7729
16812TIP3    H271928   2.821   3.522  13.348 -2.0594  0.3865 -1.6730
16813TIP3   OH271929   4.977   2.478  12.061 -0.6127  0.1276  0.0587
16813TIP3    H171930   4.978   2.416  12.134 -0.8111  1.5262  1.2747
16813TIP3    H271931   5.041   2.442  11.998  1.3165  0.0906  1.9306
16814TIP3   OH271932   1.379   1.556  14.173  0.3178  0.2512 -0.1188
16814TIP3    H171933   1.348   1.544  14.083 -0.5932 -1.7284  0.4065
16814TIP3    H271934   1.377   1.650  14.187  1.6899  0.7383 -2.5720
16815TIP3   OH271935   4.060   3.879   3.021  0.5002 -0.8024  0.5046
16815TIP3    H171936   4.028   3.789   3.026  2.8150 -1.7873 -0.6681
16815TIP3    H271937   4.020   3.915   2.942  1.8538 -1.8623 -0.7039
16816TIP3   OH271938   1.216   4.392  12.776 -0.2719 -0.2060  0.0891
16816TIP3    H171939   1.308   4.367  12.786 -0.3939 -0.5819  0.2665
16816TIP3    H271940   1.169   4.309  12.766 -0.7487 -0.0897  1.2466
16817TIP3   OH271941   6.584   6.113   1.796 -0.5228 -0.0980  0.1586
16817TIP3    H171942   6.615   6.198   1.763  0.6335 -0.1070  1.1754
16817TIP3    H271943   6.519   6.086   1.732  0.4941  0.6454 -1.2608
16818TIP3   OH271944   3.391   6.644  15.448  0.6531 -0.2385  0.2055
16818TIP3    H171945   3.449   6.690  15.508  2.9545 -0.0862 -1.9636
16818TIP3    H271946   3.335   6.712  15.411  0.7228  0.0112  0.5589
16819TIP3   OH271947   2.115   5.113  12.879 -0.4872  0.4420  0.0572
16819TIP3    H171948   2.028   5.084  12.852 -0.9885  0.2370  1.7919
16819TIP3    H271949   2.143   5.172  12.809 -1.6165 -0.1995 -0.9834
16820TIP3   OH271950   5.324   6.588   1.231  0.0748  0.1375 -0.1268
16820TIP3    H171951   5.296   6.666   1.184 -1.7888 -0.5545 -0.2333
16820TIP3    H271952   5.281   6.594   1.317 -0.5941 -1.0443 -0.3519
16821TIP3   OH271953   4.179   3.348   1.360 -0.4049  0.0414 -0.0181
16821TIP3    H171954   4.100   3.366   1.410 -1.4144 -0.9180 -1.2043
16821TIP3    H271955   4.186   3.422   1.299  0.1475  0.5874  0.6831
16822TIP3   OH271956   4.929   4.075   1.967 -0.0483  0.3969 -0.3530
16822TIP3    H171957   4.855   4.115   1.921 -0.9842 -1.0531 -0.1865
16822TIP3    H271958   4.900   3.986   1.985  0.2537  0.8506  3.0238
16823TIP3   OH271959   6.402   5.749   2.115  0.0022  0.0822  0.5210
16823TIP3    H171960   6.346   5.719   2.044  1.2088  1.0088 -0.8660
16823TIP3    H271961   6.408   5.844   2.103  0.0082  0.3035  2.0350
16824TIP3   OH271962   3.035   2.402  16.751 -0.3988  0.0444  0.3543
16824TIP3    H171963   3.000   2.483  16.714 -3.2459 -1.1319  0.2698
16824TIP3    H271964   3.007   2.403  16.843 -0.1842 -0.7099  0.4355
16825TIP3   OH271965   1.616   4.536   2.599 -0.1635  0.4322  0.0479
16825TIP3    H171966   1.601   4.505   2.510 -0.5175  2.5817 -0.6969
16825TIP3    H271967   1.560   4.480   2.653 -0.1390 -0.7378 -1.0846
16826TIP3   OH271968   2.054   2.527   0.967 -0.1570 -0.8005  0.3740
16826TIP3    H171969   2.047   2.514   0.872 -0.4473 -1.8801  0.5327
16826TIP3    H271970   1.963   2.536   0.996 -0.0564 -0.2778  0.5231
16827TIP3   OH271971   1.542   4.155   2.517  0.0896  0.3651  0.1852
16827TIP3    H171972   1.514   4.101   2.443  2.2564  0.8646 -1.0915
16827TIP3    H271973   1.606   4.101   2.564  1.3983  1.3347 -0.4241
16828TIP3   OH271974   1.694   5.165   0.415 -0.0071  0.1629  0.2782
16828TIP3    H171975   1.660   5.231   0.474  1.7189  2.5406 -1.1752
16828TIP3    H271976   1.681   5.202   0.328  0.4422 -1.7373 -0.6472
16829TIP3   OH271977   0.068   6.417  10.957 -0.1583  0.1160  0.3301
16829TIP3    H171978   0.049   6.421  10.864  1.1862  0.7009  0.0503
16829TIP3    H271979   0.119   6.337  10.968 -0.1245  0.1640  0.5267
16830TIP3   OH271980   6.349   1.429  14.140 -0.1795  0.6346 -0.0828
16830TIP3    H171981   6.321   1.516  14.170 -0.8106 -0.0503  1.4408
16830TIP3    H271982   6.385   1.388  14.219 -0.7024 -0.8051 -0.5798
16831TIP3   OH271983   6.267   1.137   3.278 -0.2043 -0.3574  0.3540
16831TIP3    H171984   6.311   1.146   3.362 -0.5885 -0.9736  0.6314
16831TIP3    H271985   6.322   1.075   3.229  0.6288  0.8497 -0.2853
16832TIP3   OH271986   1.336   6.428   4.702  0.4973  0.4081 -0.5508
16832TIP3    H171987   1.300   6.514   4.724  0.4374  0.4759 -0.9030
16832TIP3    H271988   1.324   6.376   4.781 -1.6065  0.0246 -1.0470
16833TIP3   OH271989   6.385   6.339   1.827 -0.1107 -0.1520 -0.3162
16833TIP3    H171990   6.330   6.384   1.763 -1.6405  0.4691  1.3730
16833TIP3    H271991   6.354   6.249   1.826  1.0766 -0.5876 -1.6789
16834TIP3   OH271992   1.496   3.244   1.651  0.1248  0.3149 -0.1269
16834TIP3    H171993   1.536   3.331   1.639  1.8342 -0.1701  1.5533
16834TIP3    H271994   1.526   3.216   1.738 -0.4500 -1.9352 -0.6059
16835TIP3   OH271995   4.891   5.155  14.265  0.2919 -0.1928  0.3207
16835TIP3    H171996   4.926   5.244  14.257  0.0497 -0.1938 -1.0842
16835TIP3    H271997   4.920   5.111  14.185 -0.4820 -1.0551  0.4960
16836TIP3   OH271998   2.864   6.544  12.379  0.4092 -0.0982  0.0615
16836TIP3    H171999   2.798   6.497  12.430 -0.0584  1.0653  0.5718
16836TIP3    H272000   2.945   6.495  12.393 -0.1481 -0.9831  0.2225
16837TIP3   OH272001   3.397   4.220   5.808  0.1301 -0.1564 -0.2642
16837TIP3    H172002   3.327   4.155   5.798  0.4037 -0.2791 -1.5628
16837TIP3    H272003   3.389   4.250   5.898 -1.8504  0.0968 -0.4743
16838TIP3   OH272004   0.745   5.546  14.712  0.1956  0.2675  0.0282
16838TIP3    H172005   0.732   5.640  14.719  0.7013  0.3955 -0.6359
16838TIP3    H272006   0.686   5.508  14.777  2.2920  1.1863  2.6353
16839TIP3   OH272007   1.077   1.929   3.662 -0.2470  0.1706  0.4272
16839TIP3    H172008   0.985   1.957   3.658  0.2396  1.9887  1.3510
16839TIP3    H272009   1.123   1.989   3.604  0.5678  0.1613  1.0517
16840TIP3   OH272010   0.506   1.174   1.731 -0.2729 -0.5652 -0.4188
16840TIP3    H172011   0.523   1.118   1.655  1.2847  0.2181 -0.6871
16840TIP3    H272012   0.428   1.223   1.707 -0.6283 -1.3431 -0.9135
16841TIP3   OH272013   2.482   3.961  17.003  0.0602  0.2145 -0.1799
16841TIP3    H172014   2.481   3.891  16.938 -1.2084  0.7087 -0.7017
16841TIP3    H272015   2.558   4.014  16.980  1.1783 -1.0630  0.3483
16842TIP3   OH272016   3.223   1.693  12.045  0.3901 -0.2051 -0.1488
16842TIP3    H172017   3.269   1.629  11.991  0.1783 -0.2286 -0.3004
16842TIP3    H272018   3.290   1.758  12.067  0.6514 -0.5720  0.1585
16843TIP3   OH272019   2.427   2.088  14.045 -0.2512  0.8205  0.0866
16843TIP3    H172020   2.374   2.029  14.097 -0.5445  0.3697 -0.7101
16843TIP3    H272021   2.365   2.138  13.993  0.0737  0.4650 -0.6676
16844TIP3   OH272022   2.938   2.051   1.476  0.0770 -0.0492 -0.4124
16844TIP3    H172023   2.925   2.053   1.381  0.9994 -0.0795 -0.5516
16844TIP3    H272024   3.033   2.056   1.487 -0.0598  0.7999  0.5359
16845TIP3   OH272025   5.597   0.041   1.322 -0.0299 -0.2821 -0.1415
16845TIP3    H172026   5.577   0.108   1.388  2.2097  1.6277 -1.2367
16845TIP3    H272027   5.539   0.062   1.248 -0.4289 -0.5452  0.0942
16846TIP3   OH272028   3.678   3.039   3.876 -0.2886 -0.6699  0.0873
16846TIP3    H172029   3.691   3.109   3.941  2.4052 -1.0719  0.1116
16846TIP3    H272030   3.728   3.068   3.800 -1.0952 -1.5146 -0.7856
16847TIP3   OH272031   2.297   5.994  15.637  0.9036  0.3479 -0.8595
16847TIP3    H172032   2.358   5.971  15.567  2.2909 -2.7018  1.1164
16847TIP3    H272033   2.352   6.026  15.708 -0.1491  0.6463 -0.1575
16848TIP3   OH272034   5.606   1.152   3.261 -0.1377  0.1448  0.1179
16848TIP3    H172035   5.680   1.119   3.312  0.5684 -1.0142 -1.5671
16848TIP3    H272036   5.552   1.198   3.325  1.9381  0.9014  1.4424
16849TIP3   OH272037   1.729   3.263   0.834  0.3095 -0.1293 -0.0100
16849TIP3    H172038   1.811   3.307   0.810  1.0936 -1.7237 -0.3978
16849TIP3    H272039   1.685   3.246   0.751 -0.7180  1.2189  0.2313
16850TIP3   OH272040   3.390   2.537   1.058  0.0440  0.4895  0.0151
16850TIP3    H172041   3.327   2.604   1.085  0.5261  1.2023 -0.6182
16850TIP3    H272042   3.346   2.490   0.988  0.3994  1.3293 -0.7930
16851TIP3   OH272043   0.208   4.781  11.825  0.3586 -0.3835  0.3414
16851TIP3    H172044   0.250   4.718  11.767  0.2109 -2.0068  1.8816
16851TIP3    H272045   0.280   4.821  11.874  0.3711 -0.3961  0.3326
16852TIP3   OH272046   2.615   4.803  16.266  0.4919 -0.2459  0.3364
16852TIP3    H172047   2.595   4.888  16.225 -0.5575 -0.2920  0.7160
16852TIP3    H272048   2.708   4.791  16.250  0.5176  0.6531 -0.3374
16853TIP3   OH272049   5.859   2.203   2.435  0.5860  0.3029 -0.0588
16853TIP3    H172050   5.920   2.165   2.498 -1.2501  1.0319  2.2907
16853TIP3    H272051   5.785   2.142   2.434  0.7174  0.1189 -1.8427
16854TIP3   OH272052   0.049   1.933   1.547  0.2322 -0.0255  0.2154
16854TIP3    H172053   0.081   1.997   1.483  1.3142 -0.6940  0.0656
16854TIP3    H272054   0.061   1.976   1.632 -0.2010  0.4423  0.0480
16855TIP3   OH272055   4.689   1.513  17.212  0.4102 -0.1720 -1.0423
16855TIP3    H172056   4.623   1.572  17.248  1.5381  0.9661 -0.7707
16855TIP3    H272057   4.769   1.565  17.208  1.2067 -1.3804 -1.7700
16856TIP3   OH272058   1.735   6.559   5.495  0.3170  0.4170 -0.6818
16856TIP3    H172059   1.775   6.553   5.408  0.7827  1.5569 -0.5579
16856TIP3    H272060   1.776   6.488   5.544 -0.4988 -0.7179 -1.5811
16857TIP3   OH272061   1.656   2.158  12.053  0.0386 -0.6183 -0.1279
16857TIP3    H172062   1.737   2.126  12.092 -0.3383  1.2350  2.3652
16857TIP3    H272063   1.624   2.084  12.001  3.0141 -1.5636 -0.7854
16858TIP3   OH272064   5.236   2.633  14.663  0.0361 -0.3703  0.1355
16858TIP3    H172065   5.319   2.625  14.616  1.2151 -0.9781  2.2243
16858TIP3    H272066   5.261   2.654  14.753 -2.1123 -0.0038  0.7033
16859TIP3   OH272067   5.047   2.692   4.619 -0.3773  0.5069 -0.1594
16859TIP3    H172068   4.961   2.689   4.576 -1.0840 -3.0788  1.1015
16859TIP3    H272069   5.102   2.637   4.563  0.8293  1.8347 -0.3291
16860TIP3   OH272070   5.073   6.176   5.551  0.1369  0.0510  0.1087
16860TIP3    H172071   5.037   6.230   5.481  2.0675 -1.5643 -2.2795
16860TIP3    H272072   5.154   6.222   5.577  0.3894 -0.3033 -0.0428
16861TIP3   OH272073   5.349   2.645  13.048 -0.0344  0.1155 -0.0160
16861TIP3    H172074   5.283   2.586  13.013  1.2099 -1.3804  0.0449
16861TIP3    H272075   5.373   2.700  12.973 -0.7708  0.1411 -0.2400
16862TIP3   OH272076   5.474   4.812   1.422 -0.2971 -0.2777  0.0871
16862TIP3    H172077   5.540   4.777   1.481 -0.0388  1.6276  1.0283
16862TIP3    H272078   5.391   4.782   1.459 -0.0565 -0.6159  0.3578
16863TIP3   OH272079   3.313   5.592   0.828  0.0184  0.0300  0.6924
16863TIP3    H172080   3.238   5.534   0.814 -0.2014  0.9097 -2.4558
16863TIP3    H272081   3.282   5.678   0.800  2.5872  0.1415 -2.3452
16864TIP3   OH272082   0.803   0.915   3.424 -0.1790  0.0696  0.1477
16864TIP3    H172083   0.802   0.914   3.329 -1.5111  1.3099  0.1119
16864TIP3    H272084   0.754   0.837   3.450  1.4378 -1.0765 -0.1279
16865TIP3   OH272085   6.193   5.295  15.911 -0.1072  0.1347 -0.4079
16865TIP3    H172086   6.195   5.274  15.818  2.2961  1.0628 -0.6240
16865TIP3    H272087   6.160   5.384  15.916 -3.4872 -1.0154 -0.0289
16866TIP3   OH272088   5.857   5.332  12.371  0.3669  0.6477  0.0068
16866TIP3    H172089   5.822   5.421  12.384 -0.1016  0.6143 -0.9744
16866TIP3    H272090   5.808   5.278  12.434  0.9430  1.1378  0.9021
16867TIP3   OH272091   3.290   2.652   1.521  0.4629  0.2802  0.3791
16867TIP3    H172092   3.351   2.725   1.528 -0.4019  0.9407  1.2875
16867TIP3    H272093   3.269   2.629   1.611 -0.5489  0.0194  0.0969
16868TIP3   OH272094   0.974   0.947  14.856 -0.3296  0.1917 -0.4052
16868TIP3    H172095   1.068   0.937  14.838 -0.4676  0.2478 -1.1912
16868TIP3    H272096   0.954   0.875  14.916 -0.1978 -1.0983 -1.8389
16869TIP3   OH272097   3.783   0.932  15.135 -0.0715 -0.5134  0.4961
16869TIP3    H172098   3.784   0.919  15.040  1.1536 -1.0324  0.5597
16869TIP3    H272099   3.811   0.848  15.171 -0.3031 -0.2507  1.3096
16870TIP3   OH272100   2.798   3.633  11.940 -0.2048  0.0374 -0.5056
16870TIP3    H172101   2.821   3.722  11.965  0.5130 -0.7290  1.8468
16870TIP3    H272102   2.871   3.604  11.885 -0.4248  0.8436 -1.2529
16871TIP3   OH272103   1.885   5.333  10.498  0.5681  0.1624 -0.2630
16871TIP3    H172104   1.872   5.239  10.487  1.7438 -0.1974  1.0321
16871TIP3    H272105   1.814   5.361  10.556 -0.1446  0.2238 -1.1385
16872TIP3   OH272106   4.412   4.863  11.541  0.7730  0.1918 -0.1077
16872TIP3    H172107   4.460   4.916  11.604  0.1760 -0.5266  0.9953
16872TIP3    H272108   4.379   4.789  11.592  0.4477 -0.5278 -1.3146
16873TIP3   OH272109   6.050   5.662   5.117 -0.3457  0.1933  0.2957
16873TIP3    H172110   6.007   5.594   5.168 -3.5620  1.9632  0.2109
16873TIP3    H272111   6.080   5.727   5.181  1.0592 -0.3588  0.2453
16874TIP3   OH272112   4.053   6.033   3.893  1.1025  0.0188 -0.3433
16874TIP3    H172113   3.962   6.003   3.891  1.6698 -1.9643  0.9009
16874TIP3    H272114   4.058   6.090   3.969  1.1787 -0.9425  0.3874
16875TIP3   OH272115   1.639   6.462   0.283  0.1499  0.5955 -0.1707
16875TIP3    H172116   1.563   6.498   0.237  0.3361  1.2912  0.0469
16875TIP3    H272117   1.604   6.392   0.338 -0.1127 -0.0570 -1.1560
16876TIP3   OH272118   4.861   4.747   4.041 -0.4080  0.5961 -0.4124
16876TIP3    H172119   4.945   4.727   4.000  0.7394  3.1207  0.5143
16876TIP3    H272120   4.880   4.751   4.134 -1.0429  3.0311 -0.3074
16877TIP3   OH272121   5.641   6.117   1.382  0.3120 -0.6289  0.0730
16877TIP3    H172122   5.720   6.172   1.375 -0.2642  0.0800 -1.1790
16877TIP3    H272123   5.620   6.118   1.475  1.5749 -0.5398  0.3876
16878TIP3   OH272124   2.686   5.507  13.674 -0.0059 -0.3596  0.2183
16878TIP3    H172125   2.659   5.518  13.583  0.5096 -0.5490  0.0405
16878TIP3    H272126   2.647   5.424  13.701 -0.7450  0.0297  0.3948
16879TIP3   OH272127   0.401   5.998   2.520  0.0286 -0.1531 -0.2325
16879TIP3    H172128   0.314   5.994   2.559  0.3452  1.1823  0.6866
16879TIP3    H272129   0.461   5.998   2.594  0.8248 -0.8923 -0.8487
16880TIP3   OH272130   6.476   0.688  15.503  0.0817 -0.2440 -0.3239
16880TIP3    H172131   6.461   0.751  15.573  0.6777  0.9139 -1.2054
16880TIP3    H272132   6.523   0.616  15.545 -1.2168 -0.4550  0.8428
16881TIP3   OH272133   5.836   3.388  14.048  0.0705 -0.3773  0.2334
16881TIP3    H172134   5.807   3.297  14.058  1.5369 -0.8803  0.0802
16881TIP3    H272135   5.755   3.439  14.050 -0.7669 -1.6725  0.4440
16882TIP3   OH272136   5.794   3.607  14.272  0.7925 -0.2772 -0.2491
16882TIP3    H172137   5.869   3.594  14.329 -0.0082 -1.1236  0.6450
16882TIP3    H272138   5.798   3.700  14.249  1.6465 -0.1256  0.4484
16883TIP3   OH272139   6.571   3.840  10.514 -0.2056 -0.5120  0.4511
16883TIP3    H172140   6.539   3.929  10.503 -0.5896 -0.7149 -0.1675
16883TIP3    H272141   6.495   3.785  10.494  0.1111 -0.9792  0.5242
16884TIP3   OH272142   3.321   1.440   6.483  0.2285  0.4103 -0.2970
16884TIP3    H172143   3.383   1.510   6.461  1.1852 -0.9007 -2.0079
16884TIP3    H272144   3.243   1.459   6.432 -0.9593  2.1825  2.0207
16885TIP3   OH272145   4.435   0.699  16.578 -0.0223  0.6287  0.0209
16885TIP3    H172146   4.354   0.748  16.565 -0.5305 -0.3279 -0.5231
16885TIP3    H272147   4.456   0.713  16.670 -0.5768  1.2292  0.0657
16886TIP3   OH272148   2.063   2.857  15.247  0.1809 -0.1203  0.1158
16886TIP3    H172149   2.133   2.879  15.309  0.5844 -3.7412  1.1457
16886TIP3    H272150   2.109   2.822  15.171 -0.4619  1.3279 -0.9957
16887TIP3   OH272151   3.661   1.806  14.412  0.5208  0.1050  0.0207
16887TIP3    H172152   3.658   1.743  14.484  1.9522  1.6317  1.4990
16887TIP3    H272153   3.753   1.810  14.387  0.3369  1.0419 -0.5542
16888TIP3   OH272154   3.482   6.397  11.966  0.3424  0.0568  0.5106
16888TIP3    H172155   3.575   6.389  11.987  0.6898  0.2292 -0.9016
16888TIP3    H272156   3.460   6.315  11.922  0.2143  0.6319 -0.5259
16889TIP3   OH272157   5.674   0.445  12.540 -0.0641 -0.2679 -0.7128
16889TIP3    H172158   5.632   0.527  12.517 -0.3088 -0.1607  0.0854
16889TIP3    H272159   5.734   0.468  12.611  0.2535 -0.6869 -0.8380
16890TIP3   OH272160   6.106   3.605   4.802 -0.0434 -0.4120 -0.1541
16890TIP3    H172161   6.045   3.539   4.769 -1.6265  0.9226 -0.0521
16890TIP3    H272162   6.148   3.641   4.724 -0.3237 -0.4821 -0.3378
16891TIP3   OH272163   3.021   2.834  12.619 -0.3505  0.9479  0.1306
16891TIP3    H172164   3.006   2.900  12.688 -0.4266 -0.6094  1.6859
16891TIP3    H272165   2.965   2.760  12.644  1.1203 -0.4409 -0.4777
16892TIP3   OH272166   0.918   3.831  13.302  0.2056 -0.3123  0.0328
16892TIP3    H172167   0.863   3.843  13.224  1.3376 -1.9647 -1.0998
16892TIP3    H272168   0.986   3.897  13.294  0.1969 -0.3370 -0.2740
16893TIP3   OH272169   0.433   3.352   3.691  0.2465 -0.1539  0.0216
16893TIP3    H172170   0.482   3.270   3.701  0.1884  0.0015  1.9233
16893TIP3    H272171   0.356   3.340   3.747  0.9210  1.6852  1.4454
16894TIP3   OH272172   1.646   5.991   3.593 -0.5094  0.0209 -0.0314
16894TIP3    H172173   1.711   5.959   3.530 -0.5182  0.8010 -0.4462
16894TIP3    H272174   1.670   6.083   3.608 -0.3470 -0.2132  1.3178
16895TIP3   OH272175   2.717   1.741  16.430 -0.6264 -0.6088 -0.0605
16895TIP3    H172176   2.716   1.806  16.360 -1.6246  0.3112  0.7712
16895TIP3    H272177   2.641   1.686  16.413 -0.7598 -0.5025  0.1870
16896TIP3   OH272178   0.383   3.489   0.942 -0.4260  0.3862 -0.0426
16896TIP3    H172179   0.454   3.545   0.972  0.0664  0.2703 -0.9482
16896TIP3    H272180   0.305   3.525   0.983 -0.0845  1.5697 -0.3797
16897TIP3   OH272181   1.014   1.657   4.220  0.0528 -0.0408 -0.2911
16897TIP3    H172182   0.944   1.696   4.273 -1.6051 -0.6877 -1.8706
16897TIP3    H272183   1.082   1.724   4.215  0.4743 -0.0921  2.8833
16898TIP3   OH272184   1.406   0.708  16.358  0.6786  0.1249  0.4562
16898TIP3    H172185   1.426   0.637  16.296 -1.3586 -0.0785 -0.0385
16898TIP3    H272186   1.477   0.704  16.422  1.5590 -1.2133 -0.5336
16899TIP3   OH272187   4.402   3.257  16.848  0.3330 -0.1321 -0.1595
16899TIP3    H172188   4.326   3.282  16.900  0.0267 -2.5361  0.7023
16899TIP3    H272189   4.447   3.192  16.902  1.5259 -0.6850 -1.7499
16900TIP3   OH272190   6.222   5.184  11.717  0.0742  0.5424  0.1748
16900TIP3    H172191   6.243   5.090  11.718  0.9542  0.6842 -1.6938
16900TIP3    H272192   6.306   5.228  11.707 -0.1649  1.6625  2.5055
16901TIP3   OH272193   1.024   0.165  10.666  0.2755 -0.2416 -0.3001
16901TIP3    H172194   1.032   0.106  10.591  1.3971 -1.1011  0.4754
16901TIP3    H272195   0.932   0.191  10.666  0.5833  1.4125 -3.1876
16902TIP3   OH272196   2.194   1.263  15.047  0.0573 -0.0540  0.5223
16902TIP3    H172197   2.213   1.177  15.085 -0.0731 -0.2643  0.1253
16902TIP3    H272198   2.184   1.245  14.953  0.1996  0.4235  0.4134
16903TIP3   OH272199   1.323   3.793   2.453 -0.0811 -0.5866  0.7168
16903TIP3    H172200   1.273   3.754   2.382  0.6497 -0.0760 -0.0901
16903TIP3    H272201   1.374   3.721   2.489  1.9301 -0.2867 -1.3281
16904TIP3   OH272202   6.288   6.396  12.919 -0.3386  0.0780  0.0169
16904TIP3    H172203   6.234   6.318  12.904  0.4972 -0.2603 -1.3877
16904TIP3    H272204   6.229   6.457  12.965 -1.4004 -0.8873 -0.0184
16905TIP3   OH272205   0.207   2.664   5.125 -0.4404 -0.1616 -0.4330
16905TIP3    H172206   0.261   2.734   5.087 -0.4102  1.0717  1.6966
16905TIP3    H272207   0.236   2.658   5.216 -2.8855 -0.4558  0.4169
16906TIP3   OH272208   0.037   6.497   1.150  0.1715 -0.3165  0.0198
16906TIP3    H172209   0.045   6.450   1.067  0.2531  0.9632 -0.7233
16906TIP3    H272210  -0.053   6.530   1.149  0.8580  1.6949 -0.7015
16907TIP3   OH272211   1.680   2.141  16.984 -0.1101  0.0753  0.1821
16907TIP3    H172212   1.739   2.188  16.926  1.9373 -0.8079  1.4397
16907TIP3    H272213   1.593   2.177  16.964  0.6941  0.8263 -2.3253
16908TIP3   OH272214   6.329   0.665  15.163  0.2953  0.5898  0.3371
16908TIP3    H172215   6.289   0.596  15.215 -1.1450 -0.3739 -1.9250
16908TIP3    H272216   6.266   0.737  15.166 -0.2578  0.1814 -0.7663
16909TIP3   OH272217   4.220   3.966  15.543  0.3343 -0.1719  0.3150
16909TIP3    H172218   4.135   3.953  15.502  0.5837 -0.5690 -0.0863
16909TIP3    H272219   4.200   3.989  15.634 -0.2847  2.4186 -0.4039
16910TIP3   OH272220   2.687   1.001  11.186 -0.2514  0.6875  0.8125
16910TIP3    H172221   2.782   1.014  11.194 -0.2045 -0.0559  1.6009
16910TIP3    H272222   2.651   1.032  11.269 -0.4341 -1.2399  1.5072
16911TIP3   OH272223   6.374   0.953  16.248  0.3805  0.3808 -0.1142
16911TIP3    H172224   6.317   1.030  16.245 -1.4348 -0.8428  0.6892
16911TIP3    H272225   6.337   0.899  16.318  1.4023 -1.3363 -0.8403
16912TIP3   OH272226   5.524   1.090   0.762 -0.2023 -0.1351  0.2992
16912TIP3    H172227   5.521   0.995   0.748  5.0448 -0.2495 -2.3906
16912TIP3    H272228   5.482   1.126   0.684 -0.8628 -0.2469  0.5983
16913TIP3   OH272229   3.274   0.165   3.774 -0.2238 -0.5035  0.4632
16913TIP3    H172230   3.289   0.252   3.813 -0.0062 -0.0478 -0.6035
16913TIP3    H272231   3.317   0.169   3.689  0.6541 -2.0188  0.8076
16914TIP3   OH272232   4.502   2.634  10.809 -0.4511 -0.0485 -0.0712
16914TIP3    H172233   4.467   2.651  10.722 -0.4459 -2.1373 -0.5467
16914TIP3    H272234   4.597   2.639  10.799 -0.4742  0.7449  0.0703
16915TIP3   OH272235   3.298   4.180   4.502  0.8991 -0.2236  0.1016
16915TIP3    H172236   3.341   4.255   4.460 -0.3128  0.5785  0.2138
16915TIP3    H272237   3.253   4.136   4.430  2.2116 -1.2889 -0.0804
16916TIP3   OH272238   1.605   3.853  11.594 -1.0564 -0.8311 -0.0376
16916TIP3    H172239   1.601   3.784  11.660 -0.7703  0.3524  1.2694
16916TIP3    H272240   1.613   3.934  11.645  3.9478 -0.1310 -1.4685
16917TIP3   OH272241   0.809   0.119  12.889  0.0979  0.4688  0.1916
16917TIP3    H172242   0.885   0.087  12.839  1.7743 -0.3908  3.0750
16917TIP3    H272243   0.833   0.209  12.914 -0.4415  0.6634  0.0253
16918TIP3   OH272244   4.729   2.373   0.658 -0.8279 -0.2866  0.3429
16918TIP3    H172245   4.782   2.294   0.671  0.6603  0.2480 -2.0186
16918TIP3    H272246   4.650   2.342   0.613 -0.2848 -0.4688 -0.5042
16919TIP3   OH272247   3.589   3.129   1.161  0.5418 -0.1342  0.4022
16919TIP3    H172248   3.554   3.208   1.202  0.1763 -0.5750  0.9551
16919TIP3    H272249   3.516   3.067   1.162  0.1258  0.1875 -1.9756
16920TIP3   OH272250   5.658   5.532  15.210  0.7114 -0.8399 -0.4135
16920TIP3    H172251   5.707   5.454  15.237  0.0825 -1.4203 -0.8921
16920TIP3    H272252   5.636   5.576  15.292 -0.6066 -2.2272  0.0287
16921TIP3   OH272253   0.619   6.197  14.193 -0.1547 -0.3829 -0.3544
16921TIP3    H172254   0.524   6.199  14.183 -0.5533  0.1365  2.5920
16921TIP3    H272255   0.638   6.110  14.227  0.0669  0.3311  1.4432
16922TIP3   OH272256   1.690   1.216   1.560 -0.3753 -0.9473 -1.1956
16922TIP3    H172257   1.666   1.246   1.648  2.0206 -1.1381 -0.4046
16922TIP3    H272258   1.613   1.235   1.507 -1.5551  0.0437  0.7352
16923TIP3   OH272259   0.904   2.936   2.764  0.0289 -0.1940  0.4600
16923TIP3    H172260   0.874   2.885   2.690  1.5598  0.6412 -0.8178
16923TIP3    H272261   0.876   3.025   2.745 -0.4053 -0.1228  1.3813
16924TIP3   OH272262   2.626   2.300   1.012 -0.4091  0.6357 -0.0356
16924TIP3    H172263   2.561   2.354   0.967 -0.2787  0.9103  0.1055
16924TIP3    H272264   2.650   2.350   1.090 -1.0337 -0.0819  0.6325
16925TIP3   OH272265   5.047   6.483   1.353 -0.1721 -0.0804 -0.8872
16925TIP3    H172266   5.039   6.389   1.337 -1.2382  0.1074 -1.5576
16925TIP3    H272267   4.964   6.520   1.322  0.1366  1.0539 -0.4138
16926TIP3   OH272268   4.582   2.032  13.390  0.3154 -1.0632 -0.1651
16926TIP3    H172269   4.651   1.978  13.429 -1.0324 -0.6221  3.1342
16926TIP3    H272270   4.510   1.971  13.375  0.1164 -0.8622 -0.0290
16927TIP3   OH272271   1.252   1.295  15.590  0.5415 -0.4382  0.0329
16927TIP3    H172272   1.217   1.243  15.518  0.8240 -1.2630  0.4742
16927TIP3    H272273   1.213   1.256  15.668 -1.0599  1.4676  0.2638
16928TIP3   OH272274   5.419   0.432   4.809  0.2945  0.5123 -0.0259
16928TIP3    H172275   5.502   0.383   4.814 -0.3627 -0.7594 -0.9564
16928TIP3    H272276   5.427   0.483   4.729  0.3735  0.7719  0.1470
16929TIP3   OH272277   4.510   2.152  14.566  0.4585 -0.0095 -0.2386
16929TIP3    H172278   4.415   2.142  14.560  0.6607 -1.5159 -1.8122
16929TIP3    H272279   4.545   2.084  14.509  2.4975  0.6168  0.1712
16930TIP3   OH272280   0.826   2.759  16.929 -0.1051  0.1404  0.0835
16930TIP3    H172281   0.814   2.839  16.980 -2.2204 -0.8816  1.3187
16930TIP3    H272282   0.847   2.692  16.994 -0.0731 -0.6510 -0.7241
16931TIP3   OH272283   3.516   0.200   1.687 -0.2990  0.0350  0.0558
16931TIP3    H172284   3.510   0.232   1.597 -1.2741  1.5209  0.5885
16931TIP3    H272285   3.424   0.190   1.715 -0.3329  4.2617  2.3217
16932TIP3   OH272286   3.203   1.386  15.139 -0.0347  0.4224  0.2006
16932TIP3    H172287   3.124   1.429  15.172 -0.1515  0.8926 -0.6594
16932TIP3    H272288   3.185   1.370  15.046  0.0818 -1.3134  0.4295
16933TIP3   OH272289   5.099   3.142  11.455 -0.6081 -0.0496  0.0924
16933TIP3    H172290   5.043   3.112  11.527 -0.3715  0.0528  0.3217
16933TIP3    H272291   5.049   3.123  11.376 -0.8074 -0.3008  0.2776
16934TIP3   OH272292   1.981   0.003   2.695 -0.0437 -0.0115 -0.2579
16934TIP3    H172293   1.936  -0.081   2.700 -0.6115  0.3198  0.3158
16934TIP3    H272294   2.029  -0.000   2.612  0.8196 -1.3331  0.2583
16935TIP3   OH272295   2.008   2.129   3.769 -0.3424  0.5675 -0.2225
16935TIP3    H172296   1.982   2.071   3.697 -0.7454 -0.7827  0.9677
16935TIP3    H272297   2.103   2.128   3.767 -0.2116 -2.4055  1.4240
16936TIP3   OH272298   0.607   4.364  13.074  0.8914 -0.2112 -0.1757
16936TIP3    H172299   0.674   4.411  13.024 -0.7045 -0.2210 -2.4721
16936TIP3    H272300   0.565   4.431  13.128  0.6092  0.4401 -1.1861
16937TIP3   OH272301   3.427   0.248  14.801  0.0020 -0.4043 -0.2865
16937TIP3    H172302   3.452   0.285  14.886 -3.2983 -1.7468  1.4056
16937TIP3    H272303   3.510   0.222  14.762  1.5897 -1.7020  3.4620
16938TIP3   OH272304   1.136   6.152  13.529 -0.7239 -0.1590  0.6098
16938TIP3    H172305   1.097   6.078  13.576 -0.0553  0.3011  1.9228
16938TIP3    H272306   1.134   6.224  13.591  0.8683  0.2769  0.1905
16939TIP3   OH272307   3.048   1.218   0.483  0.5765 -0.4634 -0.3682
16939TIP3    H172308   2.980   1.156   0.509  1.3646 -0.9934  0.4559
16939TIP3    H272309   3.061   1.273   0.560 -1.1333  1.7345 -1.5184
16940TIP3   OH272310   0.129   2.134  13.544  0.5131  0.0704 -0.1288
16940TIP3    H172311   0.072   2.173  13.610 -2.1221 -1.7040 -1.1742
16940TIP3    H272312   0.130   2.041  13.565  2.8256 -0.0179 -0.3858
16941TIP3   OH272313   3.842   3.346  12.720  0.1896 -0.5075  0.2902
16941TIP3    H172314   3.937   3.342  12.728  0.2087  0.2042  0.4929
16941TIP3    H272315   3.810   3.334  12.809  0.0073 -2.3937  0.0164
16942TIP3   OH272316   1.002   6.219   5.276 -0.1353  0.2586 -0.3560
16942TIP3    H172317   1.019   6.189   5.365 -1.5244 -0.3606 -0.2804
16942TIP3    H272318   1.036   6.149   5.220 -0.4514  0.0339 -0.2702
16943TIP3   OH272319   1.241   1.490   2.198  0.4427 -0.0550 -0.0696
16943TIP3    H172320   1.225   1.420   2.262 -0.7964  0.9701  0.7999
16943TIP3    H272321   1.306   1.546   2.241 -0.2940  0.5636  0.2678
16944TIP3   OH272322   1.598   0.921   1.889  0.3161  0.2401  0.2627
16944TIP3    H172323   1.547   0.848   1.854  0.9485 -1.9402  3.3681
16944TIP3    H272324   1.591   0.911   1.984  0.6198  4.2025  0.8923
16945TIP3   OH272325   3.448   0.783   2.290  0.2612  0.4348 -0.0075
16945TIP3    H172326   3.494   0.730   2.355  0.8932 -1.5442 -1.9622
16945TIP3    H272327   3.485   0.871   2.300 -1.1814  0.8212  3.6791
16946TIP3   OH272328   4.920   3.058   2.455 -0.0163  0.2837 -0.1031
16946TIP3    H172329   4.932   3.119   2.382 -0.3923 -1.1437 -1.3982
16946TIP3    H272330   4.917   2.972   2.414 -1.5705 -0.4654  1.4566
16947TIP3   OH272331   0.191   5.746   4.426  0.0578 -0.7446 -0.1945
16947TIP3    H172332   0.154   5.790   4.504  0.3226 -1.5295  0.3814
16947TIP3    H272333   0.149   5.791   4.352  0.7241  0.8582  0.3459
16948TIP3   OH272334   2.851   2.896   1.884 -0.2686  0.0823 -0.0367
16948TIP3    H172335   2.798   2.842   1.826  0.2974  0.4379 -0.9001
16948TIP3    H272336   2.936   2.853   1.886 -0.0471  0.5122 -0.1120
16949TIP3   OH272337   5.885   5.141  11.013 -0.2067 -0.4042 -0.0661
16949TIP3    H172338   5.855   5.208  10.950 -0.2075 -0.0492  0.3094
16949TIP3    H272339   5.938   5.081  10.960 -1.6361 -1.1061 -0.7816
16950TIP3   OH272340   3.598   6.071  15.819 -0.5848  0.5158 -0.2002
16950TIP3    H172341   3.571   6.074  15.911 -0.4290  2.2417 -0.1747
16950TIP3    H272342   3.554   5.994  15.783 -0.5146 -0.2895  1.3456
16951TIP3   OH272343   3.340   3.260   1.493 -0.5000 -0.6084  0.0290
16951TIP3    H172344   3.378   3.202   1.559 -1.1808 -2.7846 -1.3926
16951TIP3    H272345   3.246   3.257   1.509 -0.6217 -0.6858 -0.6942
16952TIP3   OH272346   2.223   5.198   1.072  0.3563  0.2458 -0.0622
16952TIP3    H172347   2.155   5.219   1.008  0.4102  1.4714  0.2509
16952TIP3    H272348   2.179   5.142   1.136 -0.2688  0.7160 -0.0677
16953TIP3   OH272349   0.443   0.125   4.545 -0.0110  0.5302  0.4393
16953TIP3    H172350   0.522   0.100   4.592  0.6572  2.3640  0.3693
16953TIP3    H272351   0.391   0.175   4.608 -0.1611  1.0644 -0.0943
16954TIP3   OH272352   4.514   2.396  15.108 -0.2852 -0.6192 -0.2877
16954TIP3    H172353   4.585   2.423  15.050 -2.0129 -0.6310 -2.5355
16954TIP3    H272354   4.500   2.304  15.088 -0.6926 -0.7185  0.4150
16955TIP3   OH272355   3.621   0.518  16.387 -0.0247 -0.2658 -0.2670
16955TIP3    H172356   3.678   0.547  16.316 -1.4717  1.8792 -0.6492
16955TIP3    H272357   3.590   0.432  16.360  0.3584  0.0156 -1.6780
16956TIP3   OH272358   0.778   6.013  13.575  1.0019 -0.0984 -0.2351
16956TIP3    H172359   0.797   6.104  13.552  2.8979  0.1328  1.9094
16956TIP3    H272360   0.689   6.015  13.611  0.9035  0.8406 -0.5157
16957TIP3   OH272361   4.092   1.330   4.283  0.2219 -0.0043  0.4261
16957TIP3    H172362   4.044   1.247   4.291 -0.5083  0.4318  0.6516
16957TIP3    H272363   4.182   1.307   4.305  0.1590 -0.8690 -0.1408
16958TIP3   OH272364   0.495   1.402  10.494  0.1778  0.2206  0.5664
16958TIP3    H172365   0.400   1.407  10.481  0.0675  0.8839  1.5292
16958TIP3    H272366   0.530   1.471  10.438 -0.0713  1.2103  1.5958
16959TIP3   OH272367   6.508   4.532  11.564  0.6268  0.4119  0.4280
16959TIP3    H172368   6.586   4.479  11.550 -0.0312 -0.6323  0.5177
16959TIP3    H272369   6.437   4.468  11.567 -0.5650  1.4947 -1.9807
16960TIP3   OH272370   6.576   2.300  13.454 -0.1204 -0.4337  0.3439
16960TIP3    H172371   6.570   2.236  13.383 -0.5350 -0.6954  0.6072
16960TIP3    H272372   6.543   2.382  13.417  0.6964 -0.2891 -0.0857
16961TIP3   OH272373   4.253   2.172  12.790  0.2927  0.0565 -0.3289
16961TIP3    H172374   4.261   2.264  12.815 -1.0339  0.0677  0.1522
16961TIP3    H272375   4.168   2.167  12.746 -1.0822 -1.4744  2.3159
16962TIP3   OH272376   5.106   3.752  10.521 -0.0437 -0.5094  0.6287
16962TIP3    H172377   5.163   3.763  10.598  1.7790  1.1844 -0.8545
16962TIP3    H272378   5.020   3.732  10.558 -0.0705  3.3970  3.3761
16963TIP3   OH272379   4.255   3.639   3.347  0.2127 -0.1839  0.2226
16963TIP3    H172380   4.291   3.700   3.412  0.4531 -0.0481 -0.0373
16963TIP3    H272381   4.273   3.552   3.385  0.6559 -0.1144  0.1824
16964TIP3   OH272382   3.707   6.481  12.081 -0.3472  0.4491 -0.6486
16964TIP3    H172383   3.704   6.574  12.059 -0.2955  0.3189 -1.2154
16964TIP3    H272384   3.800   6.459  12.083 -0.2735  0.7782  1.1094
16965TIP3   OH272385   2.626   6.104   2.866 -0.1588  0.0188 -0.1111
16965TIP3    H172386   2.695   6.112   2.932  0.6775 -0.1603 -0.9424
16965TIP3    H272387   2.639   6.017   2.829  0.2216  0.6125 -1.4180
16966TIP3   OH272388   6.318   1.437   5.069  0.0234 -0.6770 -0.2183
16966TIP3    H172389   6.360   1.369   5.016 -1.0438  0.0710 -2.1360
16966TIP3    H272390   6.256   1.478   5.009 -0.2665  1.1469  1.2593
16967TIP3   OH272391   6.394   2.762  13.387 -0.4266 -0.0336 -0.1658
16967TIP3    H172392   6.313   2.793  13.346 -1.8548  0.3587  2.6872
16967TIP3    H272393   6.464   2.792  13.329 -2.1372  2.7607 -0.9549
16968TIP3   OH272394   0.851   4.932  10.840  0.3632  0.7130  0.4830
16968TIP3    H172395   0.812   4.942  10.927 -1.5819  1.4124 -0.4055
16968TIP3    H272396   0.934   4.888  10.856 -0.0224  0.6581  2.6716
16969TIP3   OH272397   6.608   2.512  15.190  0.2557 -0.5954  0.1905
16969TIP3    H172398   6.564   2.587  15.230 -2.6461 -2.0840  0.0401
16969TIP3    H272399   6.695   2.545  15.167 -1.5078  3.4031 -1.8428
16970TIP3   OH272400   0.440   4.835  15.160 -0.8216 -0.2267 -0.1887
16970TIP3    H172401   0.459   4.786  15.240 -0.3243  1.0121  0.4903
16970TIP3    H272402   0.348   4.861  15.169 -0.5003  0.7398  0.4724
16971TIP3   OH272403   1.648   4.381  16.393 -0.4017  0.0040  0.1396
16971TIP3    H172404   1.556   4.401  16.413 -0.6038 -1.8234  1.2468
16971TIP3    H272405   1.697   4.452  16.433 -1.2074 -0.3077  1.7445
16972TIP3   OH272406   3.945   4.590  16.812 -0.4134  0.8762  0.6222
16972TIP3    H172407   3.850   4.583  16.798 -0.4594  1.3921  0.6559
16972TIP3    H272408   3.953   4.632  16.898 -0.1394 -1.3376  1.7477
16973TIP3   OH272409   2.949   5.128   6.054  0.0054 -0.1243 -0.0436
16973TIP3    H172410   2.968   5.193   6.122  0.2981 -0.0613 -0.1819
16973TIP3    H272411   2.932   5.047   6.101  2.2804 -0.6095  0.0399
16974TIP3   OH272412   0.087   0.807   1.827  0.2147  0.2785  0.2628
16974TIP3    H172413   0.113   0.728   1.874  1.8793  0.6953  0.1034
16974TIP3    H272414   0.048   0.863   1.894  0.1312 -0.1967  0.6135
16975TIP3   OH272415   6.077   4.283   2.397  0.1081 -0.0271  0.3511
16975TIP3    H172416   6.144   4.247   2.338  0.6390  0.2926  0.7545
16975TIP3    H272417   6.087   4.378   2.390  0.7608  0.0178  1.6033
16976TIP3   OH272418   4.334   4.183  16.787 -0.1269  0.1435 -0.3885
16976TIP3    H172419   4.401   4.251  16.798  0.4674  0.0035 -2.5278
16976TIP3    H272420   4.258   4.230  16.754 -0.5570  0.0865  0.5099
16977TIP3   OH272421   1.872   3.148   0.416 -0.4911 -0.0401 -0.1094
16977TIP3    H172422   1.943   3.208   0.436 -0.9744 -0.1313  2.1646
16977TIP3    H272423   1.909   3.088   0.352  0.5186  1.6603 -1.1942
16978TIP3   OH272424   3.328   0.020   1.097 -0.2522  0.9295  0.6257
16978TIP3    H172425   3.391   0.064   1.040  0.1324  1.3568  1.3649
16978TIP3    H272426   3.298  -0.055   1.046 -0.5907  1.7902 -0.4904
16979TIP3   OH272427   1.601   4.270  14.817 -0.5993  0.1986  0.3537
16979TIP3    H172428   1.663   4.198  14.804 -0.1854  0.3186  1.5183
16979TIP3    H272429   1.528   4.230  14.866 -2.1836 -0.2832 -2.2063
16980TIP3   OH272430   5.152   2.652   3.671  0.3780  0.4544  0.0314
16980TIP3    H172431   5.108   2.569   3.655 -1.4961  0.8883  2.2979
16980TIP3    H272432   5.231   2.649   3.618 -1.1971 -1.4062 -2.3958
16981TIP3   OH272433   3.275   0.674   0.244 -0.2057 -0.8607 -0.0405
16981TIP3    H172434   3.221   0.601   0.213 -0.6914 -0.8806  0.8212
16981TIP3    H272435   3.255   0.745   0.183 -1.7772 -0.6464  0.6683
16982TIP3   OH272436   0.291   0.718  13.872 -0.3281 -0.4903  0.5809
16982TIP3    H172437   0.315   0.651  13.936  0.9824  0.2328  0.8810
16982TIP3    H272438   0.256   0.790  13.924  0.2194 -0.1247  0.4546
16983TIP3   OH272439   3.632   3.165   4.481  0.1436 -0.2454  0.2036
16983TIP3    H172440   3.659   3.073   4.473  3.6599  0.7230 -0.6712
16983TIP3    H272441   3.677   3.196   4.560 -3.3038  0.1471  2.2275
16984TIP3   OH272442   3.110   1.602  13.448 -0.0427 -0.1058  0.1268
16984TIP3    H172443   3.165   1.672  13.413  0.5595  0.8195  2.7086
16984TIP3    H272444   3.098   1.542  13.374  0.4449  2.0624 -1.8307
16985TIP3   OH272445   1.162   0.226   1.185  0.0890 -0.5979  0.1649
16985TIP3    H172446   1.253   0.229   1.214 -0.0735 -0.8237  0.7049
16985TIP3    H272447   1.110   0.235   1.266 -0.3826 -2.8633  0.1762
16986TIP3   OH272448   3.017   6.018  11.274 -0.5062  0.2262 -0.8255
16986TIP3    H172449   3.050   5.974  11.195  1.3730  0.5706 -0.2954
16986TIP3    H272450   3.070   6.098  11.280 -1.4838  0.8279  0.1103
16987TIP3   OH272451   2.273   4.208   6.061 -0.1463 -0.9508 -0.0976
16987TIP3    H172452   2.311   4.295   6.070  1.1898 -1.5100 -0.0944
16987TIP3    H272453   2.277   4.171   6.149 -0.1325 -1.2486 -0.2236
16988TIP3   OH272454   4.342   4.438  10.272  0.5188 -0.2963 -0.2543
16988TIP3    H172455   4.415   4.485  10.313  1.4900 -1.9881  0.0660
16988TIP3    H272456   4.356   4.347  10.297 -0.7669 -0.8967 -1.6136
16989TIP3   OH272457   6.307   2.373   0.809  0.9143  0.5523 -0.3391
16989TIP3    H172458   6.238   2.337   0.753  2.3169  0.4348 -2.0576
16989TIP3    H272459   6.282   2.464   0.822 -0.0365  0.2818 -0.1583
16990TIP3   OH272460   5.952   1.185  15.078  0.1742 -0.0875 -0.1237
16990TIP3    H172461   5.931   1.146  14.993 -1.4949 -1.2490  0.7727
16990TIP3    H272462   5.889   1.147  15.139  1.6196  0.3435  1.7553
16991TIP3   OH272463   5.561   5.851  15.227 -0.4430  0.4330  0.3132
16991TIP3    H172464   5.558   5.805  15.143  0.0454 -0.6257  0.8528
16991TIP3    H272465   5.488   5.912  15.224  0.0027  0.9364 -1.1732
16992TIP3   OH272466   6.404   0.127   2.525 -0.3933 -0.7583 -0.1194
16992TIP3    H172467   6.470   0.196   2.517  0.3976 -1.5862 -0.8858
16992TIP3    H272468   6.337   0.166   2.580 -0.8247  1.2810 -1.9329
16993TIP3   OH272469   3.497   5.208   3.911 -0.0213  0.4481 -0.4024
16993TIP3    H172470   3.476   5.277   3.848 -0.5196  1.0269  0.3838
16993TIP3    H272471   3.412   5.180   3.945  0.0586 -1.4627 -1.6282
16994TIP3   OH272472   6.819   2.211   4.134  0.4131 -0.3957  0.2084
16994TIP3    H172473   6.740   2.160   4.113  1.4108 -2.0204  0.2481
16994TIP3    H272474   6.860   2.163   4.206  0.9651  0.9533  0.8209
16995TIP3   OH272475   6.525   3.806   5.342 -0.1564  0.1809  0.7776
16995TIP3    H172476   6.597   3.757   5.382  0.0261  0.8151  1.2401
16995TIP3    H272477   6.446   3.770   5.383  0.0129  0.6625  1.5416
16996TIP3   OH272478   5.645   1.031   4.238 -0.7243  0.3244 -0.0420
16996TIP3    H172479   5.621   1.076   4.157  3.2225 -1.3475 -2.4297
16996TIP3    H272480   5.574   0.967   4.252 -1.7619  1.0054 -1.8853
16997TIP3   OH272481   3.508   3.658   1.741  0.2793  0.2740  0.1880
16997TIP3    H172482   3.479   3.749   1.728 -0.3919  0.1113  0.4637
16997TIP3    H272483   3.599   3.657   1.715 -0.1418  0.6690 -1.3622
16998TIP3   OH272484   5.562   4.102  16.078  0.2322  0.7099 -0.6011
16998TIP3    H172485   5.643   4.110  16.127  0.0477  0.4529 -0.2464
16998TIP3    H272486   5.562   4.177  16.018 -0.0036  1.5844  0.4677
16999TIP3   OH272487   5.397   5.797   4.689 -0.1369 -0.0278  0.4337
16999TIP3    H172488   5.451   5.769   4.763  0.2318 -0.3859  0.0382
16999TIP3    H272489   5.343   5.720   4.669 -0.3952  0.1428  0.4709
17000TIP3   OH272490   3.004   1.759   2.897  0.0672 -0.4301  0.2863
17000TIP3    H172491   3.072   1.760   2.830 -0.0771 -0.3100  0.1414
17000TIP3    H272492   3.018   1.839   2.946  1.3357 -1.3815  1.5765
17001TIP3   OH272493   3.297   3.894  15.723  0.4529  0.6072 -0.1997
17001TIP3    H172494   3.276   3.987  15.713  2.3877  1.2376  1.0648
17001TIP3    H272495   3.363   3.877  15.656  0.1822  0.1595 -0.3595
17002TIP3   OH272496   3.835   2.046   0.158 -0.0463 -0.4905  0.0356
17002TIP3    H172497   3.806   2.115   0.218 -0.2268 -0.0743 -0.5301
17002TIP3    H272498   3.753   2.005   0.128  0.0516 -0.8202  0.2068
17003TIP3   OH272499   1.383   6.152  14.568 -0.9257 -0.0606  0.4088
17003TIP3    H172500   1.336   6.086  14.518 -0.8927  0.1429  0.1061
17003TIP3    H272501   1.388   6.228  14.509  0.2976 -0.2760  0.2209
17004TIP3   OH272502   5.564   6.214   0.874  0.7545  0.0318  0.3314
17004TIP3    H172503   5.659   6.223   0.870  0.5784  2.6843  0.5206
17004TIP3    H272504   5.547   6.172   0.959  1.7483 -0.8171  0.1192
17005TIP3   OH272505   6.106   4.770  12.452  0.2987 -0.7636  0.5505
17005TIP3    H172506   6.070   4.740  12.536 -1.1894 -2.2764 -0.5681
17005TIP3    H272507   6.033   4.762  12.390  1.6228 -0.5881 -1.1012
17006TIP3   OH272508   1.659   5.587   5.043 -0.0247  0.5542 -0.2277
17006TIP3    H172509   1.739   5.552   5.004 -1.2078 -1.5538 -0.9021
17006TIP3    H272510   1.603   5.607   4.968 -1.7956 -2.2224  0.2225
17007TIP3   OH272511   3.289   2.930   2.704  0.1328  0.2401 -0.5437
17007TIP3    H172512   3.293   2.884   2.620 -3.3158 -1.7443  0.1746
17007TIP3    H272513   3.207   2.978   2.701  0.8776  1.6936  1.0069
17008TIP3   OH272514   5.846   5.109   1.682  0.0882 -0.0910  0.2267
17008TIP3    H172515   5.787   5.149   1.618 -1.1321 -1.1100  0.6651
17008TIP3    H272516   5.873   5.027   1.642  1.8559  0.7038 -0.2878
17009TIP3   OH272517   0.436   5.116  11.045  0.5408  0.3426 -0.7029
17009TIP3    H172518   0.346   5.122  11.013 -0.0658 -1.4951  0.5150
17009TIP3    H272519   0.481   5.189  11.002 -1.3117  0.8168 -1.9811
17010TIP3   OH272520   1.913   1.859   0.496 -0.4446  0.3809  0.0237
17010TIP3    H172521   1.950   1.852   0.407  0.1427  0.3044  0.2657
17010TIP3    H272522   1.851   1.786   0.501 -0.7392  0.5922 -0.4403
17011TIP3   OH272523   5.067   0.747   3.219  0.2833  0.1137  0.7012
17011TIP3    H172524   5.069   0.833   3.176  2.3683 -0.3523 -0.2518
17011TIP3    H272525   4.976   0.719   3.212  0.2719  0.5207 -2.5900
17012TIP3   OH272526   5.202   3.277  13.889  0.2936 -0.3061  0.1156
17012TIP3    H172527   5.165   3.340  13.950  1.6738  0.0932  0.5755
17012TIP3    H272528   5.141   3.276  13.815 -0.3955  0.6188  0.6531
17013TIP3   OH272529   2.223   0.382   3.315 -0.3724 -0.2653 -0.0838
17013TIP3    H172530   2.154   0.385   3.250 -0.0520  1.0058 -0.3933
17013TIP3    H272531   2.259   0.294   3.308 -2.0105 -0.9875  0.1647
17014TIP3   OH272532   0.001   0.011   4.170 -0.3093 -0.1453 -1.1451
17014TIP3    H172533  -0.001  -0.084   4.179 -0.9819 -0.0657 -0.3751
17014TIP3    H272534  -0.068   0.043   4.229 -0.8355  0.7556 -2.1963
17015TIP3   OH272535   4.958   3.056  14.240 -0.4219  0.0310  0.0518
17015TIP3    H172536   5.031   3.118  14.237 -1.4974  1.3423 -0.4282
17015TIP3    H272537   4.885   3.108  14.273 -1.0860 -1.3085  0.7385
17016TIP3   OH272538   0.282   3.694  16.848 -0.2502  0.0146 -0.1814
17016TIP3    H172539   0.343   3.694  16.773  0.3443 -0.8063  0.2894
17016TIP3    H272540   0.240   3.608  16.845 -0.6877  0.2168  0.0644
17017TIP3   OH272541   4.654   6.583   0.927  0.2812  0.4590  0.4233
17017TIP3    H172542   4.673   6.556   0.837  0.7378  1.1195  0.3207
17017TIP3    H272543   4.717   6.535   0.980 -1.5163 -1.8548  0.6820
17018TIP3   OH272544   6.633   0.873  14.047 -0.2108  0.2664  0.5243
17018TIP3    H172545   6.613   0.938  13.980  0.9733 -0.4500 -0.5555
17018TIP3    H272546   6.573   0.800  14.028 -0.7932  0.5867  1.0805
17019TIP3   OH272547   5.502   5.295  12.489  0.2142 -0.4402 -0.2855
17019TIP3    H172548   5.489   5.390  12.487  0.0613 -0.4501  0.1003
17019TIP3    H272549   5.428   5.259  12.441 -0.7237 -0.4496  1.1006
17020TIP3   OH272550   4.773   3.436   2.808  0.1293  0.5597  0.6146
17020TIP3    H172551   4.813   3.433   2.721  0.7298  2.6413  0.7699
17020TIP3    H272552   4.828   3.380   2.862  0.4251  0.1669 -0.0856
17021TIP3   OH272553   1.909   5.314   0.692 -0.2878 -0.5256  0.5052
17021TIP3    H172554   1.907   5.324   0.597 -2.8993 -0.2071  0.5388
17021TIP3    H272555   1.899   5.404   0.725 -0.2441 -0.7334  1.0867
17022TIP3   OH272556   3.132   2.944   2.176 -0.1055 -0.3059  0.0473
17022TIP3    H172557   3.079   2.899   2.241 -0.9838 -0.7156 -0.9378
17022TIP3    H272558   3.108   3.036   2.186  0.3946 -0.2511  0.8642
17023TIP3   OH272559   1.378   1.756  10.778  0.0492  0.9046  0.0149
17023TIP3    H172560   1.343   1.668  10.793 -0.8560  1.1255 -0.7470
17023TIP3    H272561   1.456   1.760  10.833  0.5200 -0.6377 -0.4908
17024TIP3   OH272562   6.358   4.094  15.750  0.2707 -0.5757  0.1115
17024TIP3    H172563   6.297   4.039  15.700  0.1073 -0.6228  0.3567
17024TIP3    H272564   6.429   4.035  15.774  0.3304 -0.5626 -0.0326
17025TIP3   OH272565   1.683   5.166  12.871 -0.1543 -0.0857  0.0160
17025TIP3    H172566   1.698   5.120  12.954 -2.2964  0.5114  0.8043
17025TIP3    H272567   1.745   5.239  12.873  1.3523 -1.2967  0.0194
17026TIP3   OH272568   6.251   5.978  11.675  0.0387  0.1727 -0.4102
17026TIP3    H172569   6.341   5.988  11.645  0.3283 -0.6835  0.1407
17026TIP3    H272570   6.250   6.020  11.762  0.0551 -0.3253 -0.1683
17027TIP3   OH272571   4.464   0.385   3.765 -0.2378 -0.7856  0.1476
17027TIP3    H172572   4.415   0.333   3.828  0.4684  0.7287  2.0645
17027TIP3    H272573   4.556   0.361   3.781 -0.0542 -0.4260 -0.3441
17028TIP3   OH272574   1.929   0.575  17.103  0.3726  0.0561 -0.0600
17028TIP3    H172575   1.878   0.584  17.023 -2.0450 -0.8330  1.2980
17028TIP3    H272576   1.947   0.481  17.110  0.7121  0.1468  0.3563
17029TIP3   OH272577   3.554   6.251   4.192 -0.4484 -0.2368 -0.2926
17029TIP3    H172578   3.513   6.315   4.250  1.4090  1.3110 -0.5852
17029TIP3    H272579   3.576   6.301   4.113  2.2904 -0.8202  0.0025
17030TIP3   OH272580   6.516   2.130  12.200 -0.2203 -0.4094 -0.3127
17030TIP3    H172581   6.537   2.212  12.155  1.2408 -0.2548  0.5946
17030TIP3    H272582   6.588   2.070  12.177 -1.1465 -1.3784 -0.7756
17031TIP3   OH272583   2.668   6.497  16.014 -0.1036  0.4141 -0.1974
17031TIP3    H172584   2.761   6.488  15.999  0.0184  0.4059  0.4928
17031TIP3    H272585   2.662   6.548  16.095 -0.5850 -3.2654  2.3253
17032TIP3   OH272586   6.456   6.284   4.014  0.0120 -0.4267 -0.2086
17032TIP3    H172587   6.504   6.330   4.082 -0.0405 -1.1192  0.3027
17032TIP3    H272588   6.364   6.306   4.030  0.1600  1.4769 -1.6163
17033TIP3   OH272589   3.518   2.952  10.187 -0.1805  0.5162  0.1508
17033TIP3    H172590   3.487   2.862  10.176 -0.6309  0.7842 -0.8811
17033TIP3    H272591   3.613   2.944  10.194 -0.3503 -0.2276  2.3299
17034TIP3   OH272592   2.394   3.218   6.116 -0.9218  0.2237 -0.2481
17034TIP3    H172593   2.376   3.228   6.210  0.6216  1.1115 -0.0031
17034TIP3    H272594   2.356   3.295   6.075 -0.8096  0.2995 -0.2122
17035TIP3   OH272595   6.323   4.824   5.098  0.2528  0.6384 -0.2480
17035TIP3    H172596   6.404   4.838   5.049 -0.1079  1.8659 -0.5409
17035TIP3    H272597   6.349   4.829   5.190  0.4323  1.6082 -0.3396
17036TIP3   OH272598   0.946   5.951   3.823 -0.3079  0.2064  0.2960
17036TIP3    H172599   0.954   5.856   3.833 -3.6046 -0.3360 -0.9881
17036TIP3    H272600   0.944   5.965   3.729 -0.0800  1.5330  0.4737
17037TIP3   OH272601   3.148   1.054   0.767 -0.1044  0.0415  0.0115
17037TIP3    H172602   3.086   1.069   0.696 -0.1678 -0.8662 -0.1376
17037TIP3    H272603   3.109   0.984   0.819  0.4889 -0.0917  0.2923
17038TIP3   OH272604   1.101   6.776   3.778 -0.0819 -0.0988 -0.0424
17038TIP3    H172605   1.012   6.741   3.783 -0.1158  0.1608  1.5257
17038TIP3    H272606   1.140   6.733   3.702 -0.4168 -2.8537  1.2511
17039TIP3   OH272607   4.152   5.620   4.896  0.2792  0.4005 -0.0538
17039TIP3    H172608   4.238   5.578   4.905  0.0238 -0.9438 -2.9029
17039TIP3    H272609   4.121   5.630   4.986  1.2926 -3.6977  0.9487
17040TIP3   OH272610   3.956   0.514   3.143 -0.9007 -0.2897 -0.6126
17040TIP3    H172611   3.911   0.442   3.098 -1.1939 -0.1530 -0.5436
17040TIP3    H272612   3.898   0.536   3.216  0.1234 -1.2859  0.5414
17041TIP3   OH272613   0.232   3.838   1.202  0.2479  0.3298  0.2531
17041TIP3    H172614   0.194   3.766   1.152 -1.6389  1.2735  0.2523
17041TIP3    H272615   0.234   3.806   1.292  0.8523 -0.2750  0.0274
17042TIP3   OH272616   6.714   1.286   5.116 -0.0573 -0.3919 -0.3681
17042TIP3    H172617   6.755   1.346   5.054 -1.9677  0.5405 -0.7966
17042TIP3    H272618   6.636   1.254   5.071 -0.4361 -1.2237  0.8239
17043TIP3   OH272619   2.324   3.568   1.283 -0.2705  0.0484 -0.3088
17043TIP3    H172620   2.278   3.653   1.283  0.3123  0.3749  0.3956
17043TIP3    H272621   2.367   3.564   1.198  0.2898  0.7928 -0.0694
17044TIP3   OH272622   6.674   1.853   5.109 -0.4943 -0.2980 -0.0488
17044TIP3    H172623   6.665   1.760   5.131  1.1919 -0.6288 -0.6315
17044TIP3    H272624   6.748   1.884   5.162  0.4556  0.1069 -1.5463
17045TIP3   OH272625   0.953   5.510  15.274  0.2770  0.2528 -0.4639
17045TIP3    H172626   0.936   5.596  15.237  0.4896  0.4373 -0.1449
17045TIP3    H272627   0.986   5.528  15.362 -1.2416 -0.2010  0.2331
17046TIP3   OH272628   4.347   5.725   2.893 -0.0731 -0.1335 -0.3048
17046TIP3    H172629   4.314   5.711   2.804 -0.3876  1.0103 -0.3911
17046TIP3    H272630   4.348   5.638   2.933  1.2440 -0.8605 -1.8115
17047TIP3   OH272631   5.940   3.300  15.777 -0.0426  0.2233  0.2657
17047TIP3    H172632   5.983   3.331  15.856  0.7877 -0.2735  0.0132
17047TIP3    H272633   5.962   3.207  15.772  0.9681  0.5149 -1.2054
17048TIP3   OH272634   5.348   1.705  17.143 -0.0125  0.1194 -0.0270
17048TIP3    H172635   5.441   1.725  17.128 -0.2233  0.9955 -0.1667
17048TIP3    H272636   5.348   1.612  17.167  0.8053 -0.1734 -1.0516
17049TIP3   OH272637   3.677   2.997   2.913 -0.2330  0.0815 -0.1458
17049TIP3    H172638   3.674   2.980   3.007 -1.4054  0.9894  0.0039
17049TIP3    H272639   3.591   3.035   2.892  0.4619  1.1023 -1.3283
17050TIP3   OH272640   6.114   0.547   2.842 -0.2187  0.7786  0.0018
17050TIP3    H172641   6.183   0.609   2.863 -0.4897  0.5876  1.5281
17050TIP3    H272642   6.033   0.596   2.854 -0.4700 -0.0428  1.9966
17051TIP3   OH272643   4.665   6.002  17.088  0.3868 -0.3493  0.7910
17051TIP3    H172644   4.622   5.925  17.126 -0.6188  1.1374  2.9097
17051TIP3    H272645   4.730   6.027  17.154  0.4730  0.7727  0.2936
17052TIP3   OH272646   3.684   6.713  11.847  0.4902  0.8574  0.1636
17052TIP3    H172647   3.603   6.700  11.896 -0.4191  0.5092 -1.3702
17052TIP3    H272648   3.675   6.799  11.806  0.7774  0.7132 -0.2137
17053TIP3   OH272649   1.801   0.422  16.600 -0.1448 -0.2746  0.0703
17053TIP3    H172650   1.853   0.499  16.575  1.0289 -0.4881  1.7338
17053TIP3    H272651   1.862   0.349  16.597 -0.6972 -0.7712  0.6979
17054TIP3   OH272652   0.427   5.234   1.708  0.0377 -0.3030  0.0589
17054TIP3    H172653   0.378   5.257   1.629 -0.1451  0.0497  0.2701
17054TIP3    H272654   0.364   5.244   1.779  0.6947  1.3343  0.4768
17055TIP3   OH272655   2.525   0.020   5.821 -0.1529 -0.0671 -0.0335
17055TIP3    H172656   2.436  -0.015   5.820  0.4013 -1.5404  0.4900
17055TIP3    H272657   2.524   0.085   5.892 -1.1587  0.9474 -0.9402
17056TIP3   OH272658   4.624   3.955   5.668 -0.2215  0.2084 -0.5289
17056TIP3    H172659   4.689   4.012   5.626 -2.1264  2.1730 -0.9758
17056TIP3    H272660   4.674   3.877   5.693  1.9489  0.9021 -2.3234
17057TIP3   OH272661   1.898   3.467   2.388 -0.3322 -0.2034 -0.0749
17057TIP3    H172662   1.990   3.463   2.364 -0.3928 -1.7827 -0.1923
17057TIP3    H272663   1.898   3.459   2.484 -0.2466  2.7626  0.2449
17058TIP3   OH272664   2.123   4.974   3.870 -0.0190 -0.0582  0.6679
17058TIP3    H172665   2.104   4.915   3.797 -0.1507 -0.8830  1.3396
17058TIP3    H272666   2.158   5.053   3.830 -1.5372  0.1235 -0.3927
17059TIP3   OH272667   5.135   5.985  13.890 -0.1654  0.0119 -0.3353
17059TIP3    H172668   5.043   6.009  13.884  0.1489  1.0566 -1.3909
17059TIP3    H272669   5.159   6.001  13.982 -0.8961  0.2727 -0.1886
17060TIP3   OH272670   2.565   1.384   4.928  0.2130 -0.2011 -0.5938
17060TIP3    H172671   2.597   1.471   4.949 -0.8772  0.5065 -1.7402
17060TIP3    H272672   2.625   1.351   4.861  0.6072 -0.3389 -0.1803
17061TIP3   OH272673   6.000   6.365  15.401  0.2528  0.1554  0.3092
17061TIP3    H172674   6.039   6.316  15.474 -1.4717  1.9286  2.5680
17061TIP3    H272675   5.972   6.297  15.339 -0.5225 -1.6602  2.5019
17062TIP3   OH272676   3.448   6.658   1.315 -0.1886 -0.1944 -0.1306
17062TIP3    H172677   3.421   6.718   1.245 -0.0125 -0.8295 -0.7610
17062TIP3    H272678   3.520   6.702   1.359 -1.3844  0.9716  0.7602
17063TIP3   OH272679   6.240   6.058  11.932  0.0690  0.0300 -0.0536
17063TIP3    H172680   6.254   6.103  12.015  0.7319 -1.0246  0.4258
17063TIP3    H272681   6.190   5.980  11.955 -0.8996  0.3864 -0.8474
17064TIP3   OH272682   4.315   2.329  13.212  0.1110 -0.2216 -0.4900
17064TIP3    H172683   4.269   2.259  13.259 -0.4157  1.0469  0.9918
17064TIP3    H272684   4.388   2.286  13.169  0.4474 -1.5169  1.2896
17065TIP3   OH272685   3.823   0.662   1.863  0.5955  0.1657 -0.9153
17065TIP3    H172686   3.845   0.600   1.933 -2.6465  3.1753  3.2736
17065TIP3    H272687   3.877   0.739   1.882 -1.1310  1.4385 -0.9763
17066TIP3   OH272688   2.230   3.968  15.069 -0.8494 -0.0417  0.0932
17066TIP3    H172689   2.239   3.967  14.973 -3.6632 -1.9322 -0.2849
17066TIP3    H272690   2.319   3.959  15.101  0.3127  1.7532 -2.2752
17067TIP3   OH272691   6.305   3.784   0.509  0.1765  0.1226  0.4151
17067TIP3    H172692   6.365   3.723   0.553 -0.7005 -1.6414 -0.7304
17067TIP3    H272693   6.358   3.824   0.440  0.3862 -0.4999  0.2058
17068TIP3   OH272694   6.488   2.295  15.290  0.0351 -0.6127  0.3780
17068TIP3    H172695   6.525   2.382  15.277  0.1154 -0.6319  0.4784
17068TIP3    H272696   6.547   2.236  15.243 -1.0522 -0.4211 -1.3310
17069TIP3   OH272697   0.567   3.108   5.062 -0.5350 -0.1108 -0.9613
17069TIP3    H172698   0.512   3.148   5.129 -0.4960  0.7691 -1.4427
17069TIP3    H272699   0.655   3.110   5.098 -0.5534  0.1121 -0.9292
17070TIP3   OH272700   4.388   0.476   2.888 -0.0575  0.1514  0.5354
17070TIP3    H172701   4.380   0.568   2.864  1.3228 -0.1789 -1.4327
17070TIP3    H272702   4.402   0.477   2.982 -0.5889  1.9213  0.6296
17071TIP3   OH272703   0.699   6.759  17.020  0.0754  0.2899 -0.0805
17071TIP3    H172704   0.608   6.788  17.030 -0.2959  0.5062 -3.1379
17071TIP3    H272705   0.751   6.836  17.043 -0.4086 -0.0392  2.3707
17072TIP3   OH272706   3.062   4.112  10.900 -0.1037  0.2148  0.1104
17072TIP3    H172707   3.107   4.196  10.887  0.2833 -0.1558 -1.0787
17072TIP3    H272708   2.973   4.128  10.871  0.1823  0.0031 -0.9139
17073TIP3   OH272709   4.037   4.096  17.058 -0.7524  0.6877  0.0645
17073TIP3    H172710   4.038   4.161  17.128 -3.0006 -0.5346  1.3373
17073TIP3    H272711   4.009   4.145  16.980  0.9099  1.8795  0.1656
17074TIP3   OH272712   6.207   3.494   3.688 -0.6786 -0.6735  0.0919
17074TIP3    H172713   6.151   3.443   3.747 -0.2338  0.6902  1.7768
17074TIP3    H272714   6.271   3.535   3.746  0.4106 -0.0789 -1.4922
17075TIP3   OH272715   1.681   3.634   1.257  0.1084  0.5004  0.3888
17075TIP3    H172716   1.687   3.610   1.165 -2.1701 -1.3773  0.6287
17075TIP3    H272717   1.759   3.595   1.297 -0.1502 -0.8183 -0.3502
17076TIP3   OH272718   5.756   5.855   1.160 -0.5303 -0.2259  0.0285
17076TIP3    H172719   5.810   5.834   1.237  0.1547  0.9424 -0.1072
17076TIP3    H272720   5.700   5.927   1.190  0.8982  1.3810 -1.0064
17077TIP3   OH272721   1.532   6.548  14.338 -0.1412 -0.4308 -0.1572
17077TIP3    H172722   1.486   6.631  14.338  0.6251  0.0118 -1.1404
17077TIP3    H272723   1.463   6.482  14.351 -0.7662  0.3303  0.4799
17078TIP3   OH272724   0.856   4.390   4.542  0.5356 -0.3167 -0.3557
17078TIP3    H172725   0.929   4.450   4.526  0.2980  0.0827  0.0228
17078TIP3    H272726   0.834   4.404   4.634  0.3368 -0.8347 -0.3202
17079TIP3   OH272727   3.817   2.084   4.364 -0.4225 -0.0904 -0.2178
17079TIP3    H172728   3.903   2.049   4.388 -0.5975 -1.6989 -1.7368
17079TIP3    H272729   3.836   2.171   4.330  0.4210  0.1320  0.7593
17080TIP3   OH272730   4.264   6.336   1.974  0.0451 -0.1390  0.0291
17080TIP3    H172731   4.313   6.401   2.024 -0.4051 -0.5951  1.0840
17080TIP3    H272732   4.202   6.387   1.922  1.3852  0.4283 -1.0954
17081TIP3   OH272733   2.999   4.765  13.624  0.3835 -0.2584 -0.4848
17081TIP3    H172734   3.002   4.783  13.718  0.2695  0.6077 -0.6410
17081TIP3    H272735   2.906   4.774  13.601  0.3650 -0.7937 -0.6185
17082TIP3   OH272736   0.811   1.759  16.053  0.2173  0.1439 -0.4647
17082TIP3    H172737   0.723   1.786  16.081  0.3279 -1.4308  1.6390
17082TIP3    H272738   0.870   1.796  16.119  0.6929 -2.0868  0.4468
17083TIP3   OH272739   2.899   2.464  16.373 -0.1387  0.3994  0.7794
17083TIP3    H172740   2.968   2.452  16.308 -0.4630 -0.2271  0.5461
17083TIP3    H272741   2.840   2.528  16.335 -0.2803  0.0991  0.4889
17084TIP3   OH272742   5.943   1.362   3.856  0.5405 -0.7866 -0.3061
17084TIP3    H172743   5.942   1.282   3.908 -0.0134 -0.9786 -0.6011
17084TIP3    H272744   5.854   1.397   3.864  0.5826 -0.5693 -0.7360
17085TIP3   OH272745   2.156   0.722  14.619 -0.3367  0.1548  0.3372
17085TIP3    H172746   2.160   0.805  14.667 -0.7595  1.4150 -1.6826
17085TIP3    H272747   2.247   0.707  14.592 -0.2129 -0.2092  0.9316
17086TIP3   OH272748   5.877   0.513  12.777 -0.2646 -0.0331  0.1743
17086TIP3    H172749   5.968   0.486  12.761 -0.2753 -0.1323  0.2843
17086TIP3    H272750   5.847   0.455  12.847 -0.7431 -0.6947 -0.5641
17087TIP3   OH272751   5.506   0.292   5.108  0.2229  0.1084  0.2515
17087TIP3    H172752   5.599   0.311   5.097  0.6961 -2.6526 -1.3508
17087TIP3    H272753   5.463   0.345   5.042  0.7957  0.3997  0.1076
17088TIP3   OH272754   5.701   3.488  15.891  0.1499 -0.0287  0.1354
17088TIP3    H172755   5.623   3.496  15.835  1.5304 -0.4139 -1.9735
17088TIP3    H272756   5.686   3.409  15.942  0.4068 -1.9235 -2.5176
17089TIP3   OH272757   6.528   1.431   4.640  0.2887  0.5220  0.2816
17089TIP3    H172758   6.442   1.433   4.597 -0.0991  2.2013  1.0774
17089TIP3    H272759   6.538   1.340   4.668 -0.7306  0.0534 -0.7970
17090TIP3   OH272760   1.072   2.710  13.951  0.1084 -0.0972 -0.3408
17090TIP3    H172761   1.114   2.632  13.914  0.0238  0.2672 -1.2268
17090TIP3    H272762   1.145   2.770  13.969  0.2293 -0.5785  0.8666
17091TIP3   OH272763   3.727   0.072  15.813  0.1193  0.3153 -0.2176
17091TIP3    H172764   3.695   0.057  15.902  1.1252 -1.6182 -0.1187
17091TIP3    H272765   3.822   0.078  15.823  0.1404  1.5047 -1.0106
17092TIP3   OH272766   1.413   1.413  13.705  0.0739 -0.1476  0.1909
17092TIP3    H172767   1.467   1.400  13.626 -0.7739 -2.9695 -0.0653
17092TIP3    H272768   1.441   1.497  13.740  4.0185 -0.9632 -0.4379
17093TIP3   OH272769   0.727   2.604  14.489 -0.3783  0.0346  0.1301
17093TIP3    H172770   0.693   2.690  14.516  1.5917  0.7742  0.3759
17093TIP3    H272771   0.809   2.594  14.537 -1.4864 -2.9149  1.6574
17094TIP3   OH272772   0.227   6.409  14.779  0.2732 -0.4536 -0.2638
17094TIP3    H172773   0.191   6.384  14.694  0.5365 -1.8883  0.0250
17094TIP3    H272774   0.156   6.455  14.822  0.6956  1.9740 -1.9230
17095TIP3   OH272775   3.152   3.859  16.307 -0.2216  0.3692 -0.4190
17095TIP3    H172776   3.118   3.917  16.375 -0.0928 -0.9765  0.8496
17095TIP3    H272777   3.244   3.884  16.299  0.3720 -0.8853  1.5715
17096TIP3   OH272778   3.116   0.997   3.817  0.0816 -0.4778 -0.3647
17096TIP3    H172779   3.142   0.996   3.724 -3.2124  0.7213 -1.4387
17096TIP3    H272780   3.043   0.936   3.822 -0.2310 -0.0061  1.2881
17097TIP3   OH272781   5.516   1.127   3.981  0.3539 -0.4718 -0.5712
17097TIP3    H172782   5.441   1.131   3.921 -0.7393 -0.2976  0.7552
17097TIP3    H272783   5.547   1.217   3.986 -0.1524 -0.3105 -0.1740
17098TIP3   OH272784   3.721   2.549  15.562  0.3792  0.2114 -0.0341
17098TIP3    H172785   3.681   2.587  15.485  0.9206 -0.1948 -0.5267
17098TIP3    H272786   3.744   2.460  15.536  0.0074 -0.1420  0.7886
17099TIP3   OH272787   6.140   6.714  14.414 -0.1388  0.2719  0.2723
17099TIP3    H172788   6.074   6.770  14.454 -0.0140  0.7348 -0.1625
17099TIP3    H272789   6.220   6.732  14.463 -0.3938 -0.5100  0.9949
17100TIP3   OH272790   0.074   1.168  16.840 -0.0710  0.5095  0.2767
17100TIP3    H172791  -0.021   1.168  16.849 -0.3897  0.4954 -2.2473
17100TIP3    H272792   0.092   1.236  16.774  1.5467 -0.2347 -0.1118
17101TIP3   OH272793   6.776   3.713  15.110 -0.3012  0.2599 -0.0442
17101TIP3    H172794   6.715   3.761  15.167  1.5753  1.1299  1.3606
17101TIP3    H272795   6.779   3.764  15.029 -0.8525  0.6487  0.1760
17102TIP3   OH272796   0.908   4.970  16.243  0.2002 -0.3592  0.1525
17102TIP3    H172797   0.896   5.053  16.289  2.1846 -0.1318  0.3695
17102TIP3    H272798   1.001   4.950  16.255 -0.4512 -3.2761  1.2279
17103TIP3   OH272799   5.484   4.557   1.944 -0.8919  0.0673 -0.0439
17103TIP3    H172800   5.538   4.478   1.953 -0.9370  0.0358 -0.0490
17103TIP3    H272801   5.466   4.562   1.850  1.7728  1.8417 -0.5770
17104TIP3   OH272802   5.390   1.443  17.059 -0.0671  0.6581 -0.0485
17104TIP3    H172803   5.463   1.471  17.004  0.3842  0.4398  0.4300
17104TIP3    H272804   5.342   1.379  17.006 -1.2205  2.4067 -1.2294
17105TIP3   OH272805   4.412   0.220  11.364 -0.0038 -0.5885 -0.2126
17105TIP3    H172806   4.438   0.185  11.449  1.9750 -0.3685 -0.6650
17105TIP3    H272807   4.438   0.153  11.302 -0.6087 -0.3616 -0.7180
17106TIP3   OH272808   4.317   6.670  16.468 -0.6339  0.6569 -0.2940
17106TIP3    H172809   4.382   6.601  16.484  1.2544  2.1487 -1.0477
17106TIP3    H272810   4.302   6.667  16.374 -1.5928  0.4146 -0.1419
17107TIP3   OH272811   3.487   0.043   5.952  0.1226 -1.0804  0.1453
17107TIP3    H172812   3.572   0.082   5.974 -0.3713  0.2431 -0.1689
17107TIP3    H272813   3.423   0.108   5.983 -0.6970 -0.9268 -1.7628
17108TIP3   OH272814   6.612   2.725  17.208  0.2860 -0.2379 -0.1232
17108TIP3    H172815   6.592   2.717  17.301  1.2589  0.0867  0.1216
17108TIP3    H272816   6.698   2.686  17.198 -0.0332 -0.7556 -0.9936
17109TIP3   OH272817   5.747   4.705  11.573  0.6517 -0.4696 -0.0028
17109TIP3    H172818   5.766   4.622  11.618 -0.7877 -0.8771 -0.0754
17109TIP3    H272819   5.676   4.744  11.625 -0.0405 -0.2472 -1.0857
17110TIP3   OH272820   3.410   0.647   1.999 -0.0107  0.5144 -0.6814
17110TIP3    H172821   3.391   0.573   2.056  0.0944  0.3384 -0.8745
17110TIP3    H272822   3.393   0.724   2.054 -1.9953  0.4015 -1.0532
17111TIP3   OH272823   2.650   5.417  16.871 -0.3838  0.0736  0.2837
17111TIP3    H172824   2.716   5.415  16.801 -0.2345 -0.2116  0.4320
17111TIP3    H272825   2.698   5.391  16.950 -0.0559  2.3656  0.9153
17112TIP3   OH272826   0.513   2.076   1.271 -0.3555 -0.2140 -0.2173
17112TIP3    H172827   0.549   2.154   1.229  0.5918  0.1414  1.1538
17112TIP3    H272828   0.429   2.061   1.228 -0.0473  0.9040 -1.2596
17113TIP3   OH272829   3.918   5.539   0.526  0.8935  0.3488  0.4029
17113TIP3    H172830   3.842   5.490   0.496  1.7247 -0.2145 -0.8524
17113TIP3    H272831   3.926   5.517   0.618  0.9781 -1.5424 -0.0212
17114TIP3   OH272832   6.753   2.158   4.514 -0.1423  0.5718 -0.3118
17114TIP3    H172833   6.760   2.217   4.440 -0.5107  0.8246 -0.1498
17114TIP3    H272834   6.832   2.173   4.565  0.0259  0.5269 -0.5577
17115TIP3   OH272835   2.572   5.127   3.373 -0.7192 -0.2142  0.2646
17115TIP3    H172836   2.507   5.188   3.337  0.8779  1.2061 -0.3943
17115TIP3    H272837   2.603   5.170   3.453  1.4089  0.6220 -0.9167
17116TIP3   OH272838   1.698   5.576  16.538  0.3942 -0.1857  0.2045
17116TIP3    H172839   1.605   5.561  16.553  0.6016 -0.5101  1.1996
17116TIP3    H272840   1.708   5.671  16.544  0.5092 -0.2845  2.5591
17117TIP3   OH272841   5.093   2.459   6.297  0.8591 -0.8110  0.0280
17117TIP3    H172842   5.164   2.507   6.339  0.6802  0.3036 -0.8913
17117TIP3    H272843   5.026   2.451   6.364  0.0820  1.9965 -0.3067
17118TIP3   OH272844   5.522   3.397   5.414  0.1294  0.3378 -0.5860
17118TIP3    H172845   5.528   3.440   5.499  0.5122  0.9820 -0.9309
17118TIP3    H272846   5.574   3.318   5.423  0.1739  0.4084 -0.2204
17119TIP3   OH272847   5.580   4.924  11.498  0.4793 -0.2923  0.1566
17119TIP3    H172848   5.523   4.983  11.449 -0.0932 -0.2764  0.8240
17119TIP3    H272849   5.653   4.979  11.526 -0.4556  0.3213  1.4776
17120TIP3   OH272850   3.859   4.589  10.906  0.3716 -0.5845 -0.1736
17120TIP3    H172851   3.943   4.635  10.913  0.0067 -0.1560  2.1941
17120TIP3    H272852   3.872   4.509  10.957 -0.5416 -0.7163 -0.1423
17121TIP3   OH272853   1.483   6.135   1.292  0.4036 -0.3617  0.2194
17121TIP3    H172854   1.513   6.080   1.219  1.1273 -0.4218  0.5492
17121TIP3    H272855   1.514   6.088   1.370  0.3522  0.1239  0.5318
17122TIP3   OH272856   5.053   2.837  12.880 -0.1332  0.4159 -0.3641
17122TIP3    H172857   5.121   2.904  12.876  1.4601 -1.1247 -0.4101
17122TIP3    H272858   5.092   2.761  12.836 -1.3508 -0.9732  0.8651
17123TIP3   OH272859   0.388   0.233  14.761 -0.2243 -0.5681 -0.7200
17123TIP3    H172860   0.344   0.278  14.689 -0.4443  1.1400  0.4339
17123TIP3    H272861   0.325   0.166  14.789 -1.6662  1.0628  0.1310
17124TIP3   OH272862   0.592   2.722   5.077  0.1685  0.0553 -0.1077
17124TIP3    H172863   0.608   2.690   4.988 -1.8979 -1.8071  0.1113
17124TIP3    H272864   0.540   2.802   5.065 -1.0208 -0.7659 -0.5996
17125TIP3   OH272865   3.640   4.498  14.671 -0.4685  0.4255 -0.0105
17125TIP3    H172866   3.615   4.557  14.600 -1.8063  1.0262  0.9115
17125TIP3    H272867   3.612   4.411  14.641 -0.6027  0.6035 -0.4156
17126TIP3   OH272868   4.511   0.175   2.299  0.6138 -0.6259  0.1581
17126TIP3    H172869   4.420   0.170   2.273 -0.4160 -0.0411  3.2105
17126TIP3    H272870   4.510   0.156   2.393  3.7541 -1.4252  0.1463
17127TIP3   OH272871   1.454   4.515   3.207  0.0673  0.4221 -0.0460
17127TIP3    H172872   1.517   4.460   3.254  0.6708  2.8980  2.2680
17127TIP3    H272873   1.495   4.601   3.204 -1.1331  1.0176 -2.9368
17128TIP3   OH272874   4.003   0.750   0.811  0.0230 -0.0978 -0.6102
17128TIP3    H172875   4.081   0.732   0.758  0.5075  0.1309  0.0111
17128TIP3    H272876   4.021   0.708   0.895 -1.0144 -1.0165 -0.8261
17129TIP3   OH272877   2.221   0.130   0.823  0.0775 -0.2098 -0.0929
17129TIP3    H172878   2.276   0.114   0.747  0.3560  0.4618 -0.0369
17129TIP3    H272879   2.279   0.171   0.887 -0.8945  2.4390 -0.7711
17130TIP3   OH272880   4.958   4.357   2.249  0.1370  0.3669  0.1308
17130TIP3    H172881   5.038   4.407   2.234  0.3956 -0.0049  0.2614
17130TIP3    H272882   4.890   4.405   2.201  0.8007 -0.3522 -1.6143
17131TIP3   OH272883   6.121   1.652  11.905  0.0778 -0.6845  0.7712
17131TIP3    H172884   6.040   1.605  11.882 -1.2762  1.3100  1.2198
17131TIP3    H272885   6.188   1.611  11.850 -1.4920 -1.5124 -0.6493
17132TIP3   OH272886   2.141   2.460   2.957  0.1276  0.0819 -0.2380
17132TIP3    H172887   2.200   2.393   2.991  0.8802  1.3829  1.1248
17132TIP3    H272888   2.059   2.446   3.004 -0.2349 -0.8440 -1.1115
17133TIP3   OH272889   4.396   3.436  17.234 -0.0839 -0.2881  0.2080
17133TIP3    H172890   4.314   3.408  17.194  0.3167  0.7864 -1.4577
17133TIP3    H272891   4.447   3.355  17.244 -0.5055 -0.6850 -0.7551
17134TIP3   OH272892   3.731   0.870   3.750  0.3511 -0.2485 -0.0978
17134TIP3    H172893   3.725   0.777   3.772 -0.5497  0.0546  0.9965
17134TIP3    H272894   3.743   0.915   3.834 -1.9055  0.8328 -0.2664
17135TIP3   OH272895   2.917   3.275  15.382 -0.3711  0.1053 -0.4791
17135TIP3    H172896   2.824   3.252  15.384 -0.3510 -0.2303 -1.9728
17135TIP3    H272897   2.919   3.370  15.384 -0.6592  0.1015  1.1635
17136TIP3   OH272898   5.798   1.849   0.944  0.5579 -0.9681  0.3760
17136TIP3    H172899   5.784   1.855   1.039 -0.4524 -0.6747  0.2173
17136TIP3    H272900   5.887   1.882   0.931  0.0946  0.6463  1.0502
17137TIP3   OH272901   6.183   2.994   2.596 -0.3073  0.2912 -0.2053
17137TIP3    H172902   6.123   2.926   2.566 -0.6125 -0.2206  1.4689
17137TIP3    H272903   6.127   3.058   2.640  0.3306 -0.2213  1.4236
17138TIP3   OH272904   6.216   4.546  16.806 -0.0807 -0.3800 -0.3965
17138TIP3    H172905   6.277   4.487  16.848 -1.0058 -0.1162  1.4118
17138TIP3    H272906   6.249   4.634  16.826 -1.8555 -0.1639  2.1067
17139TIP3   OH272907   3.000   1.444   2.036  0.2091  0.9159 -0.7767
17139TIP3    H172908   3.072   1.506   2.040  0.6472  0.3651  1.1301
17139TIP3    H272909   2.929   1.492   1.994  0.5963  2.6722  0.4722
17140TIP3   OH272910   3.382   2.564  10.853  0.0148  0.6195 -0.6817
17140TIP3    H172911   3.387   2.487  10.797 -1.6717 -0.1428  0.1511
17140TIP3    H272912   3.473   2.581  10.878  0.3054 -2.1813  0.5124
17141TIP3   OH272913   4.332   3.024   0.784  0.1232 -0.4006  0.4758
17141TIP3    H172914   4.321   3.075   0.864  0.7071  0.7801 -0.1689
17141TIP3    H272915   4.367   2.940   0.814 -1.3278 -0.6429  1.6039
17142TIP3   OH272916   1.466   5.189  15.739 -0.1162 -0.2025 -0.1156
17142TIP3    H172917   1.536   5.225  15.794  0.7003 -0.7677 -0.7571
17142TIP3    H272918   1.408   5.145  15.801 -0.0756  0.5268  0.4620
17143TIP3   OH272919   6.646   5.779   4.794 -0.1406  0.0091 -0.4129
17143TIP3    H172920   6.710   5.736   4.849 -0.4539  0.4284  0.2980
17143TIP3    H272921   6.580   5.712   4.775  1.1441 -0.8147 -2.2594
17144TIP3   OH272922   3.863   5.680  12.445 -0.2080  0.1663 -0.2811
17144TIP3    H172923   3.929   5.617  12.417  1.2730  0.9955  1.2072
17144TIP3    H272924   3.814   5.700  12.365  3.4791  2.0537 -2.3129
17145TIP3   OH272925   6.758   1.254   3.176 -0.3510  0.2135  0.1513
17145TIP3    H172926   6.688   1.238   3.114 -0.6284 -1.1649  0.7820
17145TIP3    H272927   6.803   1.331   3.143 -0.4944 -0.4780 -1.7475
17146TIP3   OH272928   4.518   4.506   0.581  0.5424  0.4756 -0.1563
17146TIP3    H172929   4.479   4.579   0.533 -3.1351 -2.1204 -1.6388
17146TIP3    H272930   4.460   4.492   0.656  0.1856 -1.7521 -0.7576
17147TIP3   OH272931   5.518   5.813  16.505 -0.5884 -0.5816 -0.3731
17147TIP3    H172932   5.457   5.773  16.443 -0.9586  2.4659 -2.1207
17147TIP3    H272933   5.599   5.762  16.495 -1.6097 -2.1702 -0.9392
17148TIP3   OH272934   6.003   2.601   3.022 -0.3033  0.3123 -0.3127
17148TIP3    H172935   6.006   2.696   3.033 -0.7506  0.4687 -1.4520
17148TIP3    H272936   6.009   2.587   2.927 -3.6797 -0.6221 -0.5214
17149TIP3   OH272937   4.250   6.172  13.834 -0.0817 -0.2979  0.0046
17149TIP3    H172938   4.156   6.185  13.846  0.0094 -1.1599  1.9151
17149TIP3    H272939   4.290   6.210  13.912  1.0220 -1.4342  0.0182
17150TIP3   OH272940   2.726   5.965   5.235  0.4124  0.1515 -0.1449
17150TIP3    H172941   2.653   5.992   5.179 -0.6545 -0.2254  1.0242
17150TIP3    H272942   2.801   5.961   5.176 -1.1467 -2.8096 -2.2297
17151TIP3   OH272943   4.892   2.378  17.240  0.1598 -0.6165  0.3671
17151TIP3    H172944   4.924   2.349  17.325  1.7615  0.4611  0.1886
17151TIP3    H272945   4.807   2.418  17.257 -1.9890 -4.8093  0.6883
17152TIP3   OH272946   5.411   3.495   0.362  0.3032  0.0203  0.4275
17152TIP3    H172947   5.357   3.452   0.296  1.2375  1.6731 -1.5307
17152TIP3    H272948   5.386   3.588   0.355 -1.1250  0.0477  3.9632
17153TIP3   OH272949   0.209   3.414  12.259  0.0217  0.6534  0.1973
17153TIP3    H172950   0.213   3.457  12.344  0.9240 -0.6511  0.8484
17153TIP3    H272951   0.258   3.471  12.200  1.0857  0.5854  1.0065
17154TIP3   OH272952   6.507   2.668   4.833 -0.2073 -0.2529 -0.4887
17154TIP3    H172953   6.591   2.660   4.879 -0.7739 -1.0188  0.4496
17154TIP3    H272954   6.517   2.613   4.755 -0.7065 -2.5764  0.9756
17155TIP3   OH272955   4.792   5.862   4.137  0.0706 -0.2756  0.5115
17155TIP3    H172956   4.872   5.851   4.085  0.8951 -0.6466  1.8192
17155TIP3    H272957   4.751   5.940   4.100  0.9119 -0.2099 -0.3393
17156TIP3   OH272958   2.601   1.871   0.158  0.6813 -0.3790  0.6689
17156TIP3    H172959   2.539   1.926   0.111 -1.4793 -2.2243  1.1787
17156TIP3    H272960   2.580   1.884   0.251  3.4898  1.6223  1.1446
17157TIP3   OH272961   6.318   4.154   3.855  0.3616  0.2831 -0.1707
17157TIP3    H172962   6.384   4.084   3.848  0.3752  0.0498  1.7092
17157TIP3    H272963   6.345   4.219   3.790  1.9885 -0.1746  0.0079
17158TIP3   OH272964   3.709   0.598   4.025  1.1703  0.0218  0.5203
17158TIP3    H172965   3.648   0.524   4.017 -0.3176  1.3558 -1.2769
17158TIP3    H272966   3.796   0.558   4.015  0.4181 -1.5113 -0.2517
17159TIP3   OH272967   1.935   4.886  13.459 -0.0153 -0.0157 -0.0373
17159TIP3    H172968   1.954   4.951  13.526 -1.4225 -0.2723  0.6367
17159TIP3    H272969   1.869   4.926  13.403  1.1229  0.1846 -1.2995
17160TIP3   OH272970   2.444   6.690   1.178 -0.0783 -0.1755 -0.5710
17160TIP3    H172971   2.537   6.684   1.199 -0.0372  0.5594 -0.4846
17160TIP3    H272972   2.404   6.725   1.259 -0.0834  1.6245 -1.2920
17161TIP3   OH272973   1.623   5.276  11.186 -0.3162  0.6114 -0.5128
17161TIP3    H172974   1.715   5.274  11.160 -0.1823 -0.6668 -0.0249
17161TIP3    H272975   1.583   5.204  11.136 -0.7973  0.4142  0.1446
17162TIP3   OH272976   6.679   2.362  16.113  0.0594 -0.4417  0.5869
17162TIP3    H172977   6.750   2.339  16.054 -0.5936 -0.9756  0.0106
17162TIP3    H272978   6.613   2.403  16.057 -0.3767 -0.5530  1.0178
17163TIP3   OH272979   5.501   5.947  12.400  0.3531 -0.5612  0.1571
17163TIP3    H172980   5.487   6.042  12.401 -0.5025 -0.6859  0.0917
17163TIP3    H272981   5.473   5.918  12.487 -0.2986 -0.8817 -0.1562
17164TIP3   OH272982   5.214   2.760  15.424 -1.1608 -0.1067 -0.3894
17164TIP3    H172983   5.259   2.683  15.388  0.1363 -0.1964  1.2649
17164TIP3    H272984   5.232   2.830  15.362 -0.7382 -0.7160 -0.9703
17165TIP3   OH272985   4.853   3.911  14.364  0.1024 -0.1987 -0.2657
17165TIP3    H172986   4.867   3.842  14.299  1.0114 -2.1488  1.8571
17165TIP3    H272987   4.933   3.910  14.418  0.1374  2.5472 -0.1381
17166TIP3   OH272988   4.006   0.174  14.608  0.5977 -0.0224 -0.8778
17166TIP3    H172989   3.974   0.149  14.521 -1.0716  1.5582 -0.7803
17166TIP3    H272990   3.937   0.229  14.644  0.1261 -2.4599  2.4419
17167TIP3   OH272991   1.599   0.470   4.437  0.0864  0.1579  0.6869
17167TIP3    H172992   1.526   0.409   4.449  0.3306 -0.2882 -0.0436
17167TIP3    H272993   1.678   0.417   4.448  0.3208  0.0084 -1.2599
17168TIP3   OH272994   4.688   1.226   3.635  0.1017  0.0589  0.9909
17168TIP3    H172995   4.680   1.208   3.542  2.6410  0.8951  0.5577
17168TIP3    H272996   4.605   1.270   3.658 -0.7441 -0.5603 -0.7227
17169TIP3   OH272997   1.143   0.098  15.461  0.2867  0.6353  0.3899
17169TIP3    H172998   1.101   0.027  15.510 -0.6029  0.3760 -0.6855
17169TIP3    H272999   1.175   0.056  15.381 -0.5705  1.4957 -0.4332
17170TIP3   OH273000   2.069   4.756  17.053  0.1904  0.2347 -0.6581
17170TIP3    H173001   2.059   4.673  17.005 -1.2193  0.2422 -0.4260
17170TIP3    H273002   1.979   4.785  17.069  0.6567  2.0731 -1.1574
17171TIP3   OH273003   3.496   0.413  17.035  0.1637  0.4177 -0.4208
17171TIP3    H173004   3.403   0.428  17.018  0.0711  2.1510  1.3175
17171TIP3    H273005   3.520   0.479  17.099  2.6239 -0.0030 -0.8057
17172TIP3   OH273006   3.812   3.420   1.371 -0.2465 -0.2602 -0.4298
17172TIP3    H173007   3.885   3.466   1.328 -0.6937  0.5635 -0.3374
17172TIP3    H273008   3.830   3.327   1.357  0.1832 -0.0310 -1.4624
17173TIP3   OH273009   4.921   0.542  12.359  0.3751  0.0100 -0.2283
17173TIP3    H173010   4.995   0.488  12.333 -1.0248 -1.6091 -1.0274
17173TIP3    H273011   4.953   0.632  12.349  1.8440 -0.6241 -1.7362
17174TIP3   OH273012   2.802   5.674  12.062 -0.2042  0.0289  0.2690
17174TIP3    H173013   2.867   5.603  12.056  0.0062 -0.0443  2.5300
17174TIP3    H273014   2.806   5.702  12.153  0.1903  3.4548 -0.6785
17175TIP3   OH273015   3.007   1.258  15.913 -0.0770  0.2090 -0.0529
17175TIP3    H173016   2.912   1.243  15.907  0.0223 -1.1050  1.0797
17175TIP3    H273017   3.019   1.347  15.879 -1.6742  0.3184 -0.4540
17176TIP3   OH273018   3.200   3.410  13.782 -0.7485  0.1413 -0.1479
17176TIP3    H173019   3.229   3.492  13.741 -1.6349  0.9100  0.6968
17176TIP3    H273020   3.105   3.419  13.789 -0.7528 -0.5241  0.8583
17177TIP3   OH273021   0.701   0.048   4.589 -0.0671  0.1483  0.4466
17177TIP3    H173022   0.768   0.108   4.621 -0.9884  1.6753 -0.3366
17177TIP3    H273023   0.721   0.038   4.495 -0.3676 -0.1822  0.4145
17178TIP3   OH273024   4.641   4.285   2.049 -0.8161  0.1032  0.5834
17178TIP3    H173025   4.576   4.239   1.995 -2.5860  2.3830  0.6494
17178TIP3    H273026   4.683   4.346   1.989  0.0930 -0.1399  0.9455
17179TIP3   OH273027   1.522   0.306   4.094 -0.1705  0.2483 -0.1395
17179TIP3    H173028   1.501   0.367   4.164 -0.8104  0.8926 -0.8637
17179TIP3    H273029   1.616   0.318   4.078  0.1785 -0.5428  1.1713
17180TIP3   OH273030   1.177   1.948  10.887 -0.7487  0.0248 -0.0269
17180TIP3    H173031   1.243   1.884  10.862 -0.4608  1.1038 -2.2920
17180TIP3    H273032   1.134   1.910  10.964  0.8299 -1.8401 -0.0003
17181TIP3   OH273033   5.403   2.828   0.205 -0.2750  0.4094  0.2293
17181TIP3    H173034   5.328   2.860   0.156 -1.1481  1.6258  2.2352
17181TIP3    H273035   5.477   2.878   0.171 -0.6157  0.2717 -0.7369
17182TIP3   OH273036   6.366   2.339  15.601  0.7081  0.1554 -0.0448
17182TIP3    H173037   6.308   2.318  15.528  0.9232  2.7284 -1.0480
17182TIP3    H273038   6.445   2.287  15.584 -0.0436 -0.9146 -0.4176
17183TIP3   OH273039   4.601   0.191  14.700  0.2673 -0.1016 -0.4199
17183TIP3    H173040   4.639   0.278  14.683  0.5282 -0.3447 -1.1116
17183TIP3    H273041   4.674   0.139  14.734  0.5235 -0.5157 -1.5723
17184TIP3   OH273042   0.009   0.341  12.369 -0.2190  0.0829 -0.8194
17184TIP3    H173043   0.092   0.328  12.323 -0.1287 -0.5280 -0.4870
17184TIP3    H273044  -0.058   0.323  12.302 -0.0957 -1.5571 -0.5404
17185TIP3   OH273045   0.314   6.136   2.074 -0.0420 -0.2740 -0.9352
17185TIP3    H173046   0.284   6.165   2.161  0.3243 -0.1026 -0.8605
17185TIP3    H273047   0.340   6.045   2.087  0.2838 -0.1641 -0.7916
17186TIP3   OH273048   3.205   2.118  12.250  0.4067  0.3923  0.1970
17186TIP3    H173049   3.253   2.195  12.279 -0.5302  0.9920  0.2149
17186TIP3    H273050   3.114   2.138  12.272  0.0946 -0.5107 -0.2517
17187TIP3   OH273051   4.579   5.488   2.712  0.0272  0.2436 -0.1183
17187TIP3    H173052   4.522   5.416   2.741  0.6891  0.3863  1.6355
17187TIP3    H273053   4.549   5.507   2.623  0.7810 -3.1959 -1.2730
17188TIP3   OH273054   5.998   3.473   4.598 -0.6171 -0.0224 -0.2337
17188TIP3    H173055   5.959   3.396   4.640 -2.1121  0.7225 -0.1812
17188TIP3    H273056   6.051   3.437   4.527  1.2637 -1.2717  1.6839
17189TIP3   OH273057   4.568   6.803  15.176  0.1722 -0.1418  0.1580
17189TIP3    H173058   4.654   6.840  15.151  1.2614 -2.6952 -0.1943
17189TIP3    H273059   4.550   6.738  15.108 -0.9832 -1.2104  1.4390
17190TIP3   OH273060   2.856   1.617   2.548  0.3791  0.0529  0.4295
17190TIP3    H173061   2.772   1.571   2.551  1.0646 -1.4152 -1.1847
17190TIP3    H273062   2.914   1.567   2.605  0.9888 -0.8692 -0.9393
17191TIP3   OH273063   6.815   1.555  11.078 -0.3229  0.1628  0.1247
17191TIP3    H173064   6.777   1.468  11.068 -1.5935  0.6252  0.7121
17191TIP3    H273065   6.901   1.539  11.117 -0.7668 -0.8066  0.7610
17192TIP3   OH273066   4.168   1.959  14.066  0.0002 -0.0091  0.3053
17192TIP3    H173067   4.210   1.877  14.042 -2.0870 -1.3002  0.7511
17192TIP3    H273068   4.083   1.933  14.101 -1.4507  2.4195 -1.0644
17193TIP3   OH273069   5.725   1.883  16.958 -0.3128  0.1837 -0.1100
17193TIP3    H173070   5.690   1.952  16.901  0.5727  0.0643 -0.8183
17193TIP3    H273071   5.818   1.904  16.967  0.0549 -1.0897 -0.6205
17194TIP3   OH273072   4.988   6.420   3.997 -0.3588 -0.2211  0.4673
17194TIP3    H173073   4.931   6.491   3.969  0.1755 -0.3206 -0.9520
17194TIP3    H273074   4.999   6.366   3.919  0.1003 -1.2757  1.2452
17195TIP3   OH273075   1.463   5.613   4.149 -0.4884 -0.0963 -0.1118
17195TIP3    H173076   1.538   5.590   4.203 -2.5514 -1.3309  2.4738
17195TIP3    H273077   1.492   5.597   4.059  2.8591  1.3111  0.5814
17196TIP3   OH273078   4.689   3.843  13.615  0.2612  0.8415 -0.0417
17196TIP3    H173079   4.614   3.794  13.648  0.0645  1.1941  0.0401
17196TIP3    H273080   4.651   3.919  13.570  0.4441 -0.4591 -2.5640
17197TIP3   OH273081   1.127   1.833   0.807 -0.6430 -0.3182 -0.3836
17197TIP3    H173082   1.155   1.811   0.896 -0.7812 -1.6096 -0.6537
17197TIP3    H273083   1.098   1.924   0.814  0.7047  0.0801  0.5778
17198TIP3   OH273084   1.882   2.384  15.063 -0.1003 -0.6035  0.6026
17198TIP3    H173085   1.813   2.364  15.126 -0.3942 -1.2841  0.0777
17198TIP3    H273086   1.836   2.391  14.979  0.4381 -0.8336  0.2849
17199TIP3   OH273087   5.382   0.036   5.154  0.0084  0.3639  0.0187
17199TIP3    H173088   5.301   0.036   5.206  0.6390 -1.2441  1.0950
17199TIP3    H273089   5.425   0.118   5.178 -1.4573  1.4546 -0.8982
17200TIP3   OH273090   1.046   0.322   6.185 -0.1276  0.3038 -0.5716
17200TIP3    H173091   1.098   0.342   6.107  0.5483  0.5158 -0.0763
17200TIP3    H273092   0.979   0.260   6.154 -0.3024  0.9177 -1.4553
17201TIP3   OH273093   2.502   6.664   1.870  0.1982 -0.0540 -0.5378
17201TIP3    H173094   2.530   6.682   1.960 -0.6116  0.1904 -0.3259
17201TIP3    H273095   2.527   6.573   1.855 -0.6206 -0.4405  0.3196
17202TIP3   OH273096   5.841   1.251  13.894  0.3431 -0.1967  0.4087
17202TIP3    H173097   5.900   1.180  13.870 -1.5736 -2.0221  0.7585
17202TIP3    H273098   5.877   1.328  13.850  1.2599 -1.8309 -1.9516
17203TIP3   OH273099   2.964   5.106  17.042  0.2085  0.1030  0.1880
17203TIP3    H173100   2.925   5.072  17.123 -1.1903  0.2156 -0.4153
17203TIP3    H273101   2.911   5.069  16.972  0.2797  1.4339 -0.6047
17204TIP3   OH273102   5.933   3.785  15.120  0.2241 -0.1723  0.2506
17204TIP3    H173103   5.989   3.784  15.042  1.4087  0.8422  1.0498
17204TIP3    H273104   5.925   3.693  15.145 -1.6823 -0.7189 -2.0657
17205TIP3   OH273105   1.699   5.540  11.356  0.5128  0.5035  1.1190
17205TIP3    H173106   1.641   5.564  11.284  1.3494 -0.8161 -0.0500
17205TIP3    H273107   1.744   5.461  11.325 -1.1025 -1.8412  4.1168
17206TIP3   OH273108   5.163   0.922  13.585  0.3936 -0.0644 -0.3559
17206TIP3    H173109   5.194   0.971  13.661  1.2049  0.2588 -0.8807
17206TIP3    H273110   5.080   0.884  13.613  0.3943  0.5335  0.4942
17207TIP3   OH273111   6.017   0.211   5.983 -0.3484  0.0298 -0.1371
17207TIP3    H173112   6.092   0.153   5.986 -1.1777 -1.0853  2.9232
17207TIP3    H273113   5.944   0.154   5.959 -0.9653 -0.0735  1.7557
17208TIP3   OH273114   1.336   4.614   2.272  0.5785  0.1039  0.4526
17208TIP3    H173115   1.276   4.541   2.286  0.7791  0.0349  0.9556
17208TIP3    H273116   1.321   4.673   2.346 -1.2424  1.7446 -1.0873
17209TIP3   OH273117   0.490   6.799  14.566 -0.2313  0.4729 -0.2824
17209TIP3    H173118   0.539   6.797  14.484 -1.6547 -0.7564 -1.1667
17209TIP3    H273119   0.511   6.716  14.609 -0.7430  0.3793 -0.1998
17210TIP3   OH273120   6.763   6.771  15.147 -0.1195  0.5018  0.0489
17210TIP3    H173121   6.791   6.863  15.144 -1.7064  1.0244 -0.0996
17210TIP3    H273122   6.667   6.776  15.139 -0.3610 -1.0973  1.4739
17211TIP3   OH273123   6.298   6.611  12.377  0.1284  0.7268 -0.1496
17211TIP3    H173124   6.273   6.523  12.352 -1.7391  1.5842 -1.4806
17211TIP3    H273125   6.247   6.629  12.456  0.0325  0.8240 -0.2332
17212TIP3   OH273126   4.420   5.070  11.766  0.7582  0.4609  0.4184
17212TIP3    H173127   4.447   5.118  11.844 -0.9045  1.0828  0.6612
17212TIP3    H273128   4.401   4.982  11.797 -2.0065  1.2514  1.2353
17213TIP3   OH273129   4.070   0.359  10.517 -0.2225  0.0115 -0.4452
17213TIP3    H173130   4.113   0.344  10.433  0.7233 -3.5557  0.5014
17213TIP3    H273131   3.987   0.400  10.494 -0.3711 -1.5838 -3.2427
17214TIP3   OH273132   2.968   6.640  13.769 -0.0542  0.1135 -0.2313
17214TIP3    H173133   2.999   6.704  13.834 -3.7186  2.1724 -0.2511
17214TIP3    H273134   2.909   6.582  13.818 -0.6078 -0.1191 -1.1565
17215TIP3   OH273135   4.893   6.069   5.726 -0.1196 -0.0845  0.0659
17215TIP3    H173136   4.956   6.091   5.658 -1.8055 -1.2794 -2.0098
17215TIP3    H273137   4.833   6.143   5.728  0.0589  0.0556  0.4646
17216TIP3   OH273138   4.587   0.519  13.194  0.2870  0.0666 -0.0169
17216TIP3    H173139   4.598   0.438  13.144 -1.4660  0.4730 -1.1705
17216TIP3    H273140   4.510   0.503  13.249  0.2818  0.7367  0.1778
17217TIP3   OH273141   1.608   5.933  11.856 -0.7478 -0.0849  0.0120
17217TIP3    H173142   1.664   5.858  11.836  0.7250  0.6117  1.3250
17217TIP3    H273143   1.624   5.952  11.949  0.5160  3.0725 -0.7121
17218TIP3   OH273144   0.233   1.169  14.988 -0.6962  0.0678  0.7594
17218TIP3    H173145   0.259   1.203  14.902 -2.2204 -2.4039 -0.8140
17218TIP3    H273146   0.214   1.247  15.040  1.8525  1.7090 -0.5525
17219TIP3   OH273147   1.153   0.560   3.711  0.4604  0.2736 -0.8759
17219TIP3    H173148   1.144   0.503   3.634  1.8515 -0.6296 -0.3994
17219TIP3    H273149   1.235   0.608   3.696 -0.3140  1.6590 -0.9133
17220TIP3   OH273150   3.807   0.294   1.129 -0.0498 -0.5535 -0.4128
17220TIP3    H173151   3.775   0.324   1.214 -1.0228  0.2604 -1.0466
17220TIP3    H273152   3.821   0.200   1.142 -2.6208 -0.9741 -0.0118
17221TIP3   OH273153   5.155   1.083  14.455  0.1484  0.4924 -0.3213
17221TIP3    H173154   5.091   1.028  14.409  0.3109  0.6828 -0.7804
17221TIP3    H273155   5.231   1.084  14.398 -0.2402  2.0925 -0.8718
17222TIP3   OH273156   0.021   5.898  11.592  0.3850 -0.4056 -0.1126
17222TIP3    H173157  -0.009   5.907  11.502 -0.3226  2.0786  0.2776
17222TIP3    H273158   0.019   5.804  11.609  0.2542 -0.9198 -2.5601
17223TIP3   OH273159   2.902   5.956  15.569 -0.0963 -0.3616  0.4719
17223TIP3    H173160   2.836   5.997  15.513 -0.8237 -0.2990  1.3659
17223TIP3    H273161   2.986   5.982  15.530 -0.5826  0.2171 -0.2064
17224TIP3   OH273162   1.966   4.716   0.716  0.0652  0.1216  0.0001
17224TIP3    H173163   1.963   4.776   0.790  0.6002  0.1446  0.0082
17224TIP3    H273164   2.058   4.691   0.709  0.0668  0.3159 -0.8065
17225TIP3   OH273165   3.222   0.436  16.318  0.0026 -0.0308  0.3662
17225TIP3    H173166   3.203   0.516  16.269  0.2464  0.7707  1.5527
17225TIP3    H273167   3.217   0.366  16.252 -3.0895  0.5638 -0.2013
17226TIP3   OH273168   3.351   5.619  13.468  0.7687  0.1426  0.1373
17226TIP3    H173169   3.429   5.636  13.414  1.1181 -1.2267  0.1688
17226TIP3    H273170   3.382   5.556  13.534 -0.5488 -1.0460 -0.3385
17227TIP3   OH273171   2.578   4.486   0.237  0.2057 -0.1332  0.2261
17227TIP3    H173172   2.644   4.422   0.263  0.0603  0.5615  2.5685
17227TIP3    H273173   2.496   4.453   0.273 -0.1750  0.5371 -0.0010
17228TIP3   OH273174   5.039   5.766   1.120  0.6346 -0.8020  0.7550
17228TIP3    H173175   5.085   5.823   1.058 -1.3511  0.9612  0.7675
17228TIP3    H273176   5.104   5.749   1.188  1.8579 -0.0256 -0.1489
17229TIP3   OH273177   6.788   6.712   3.499  0.3092 -0.4772 -0.0537
17229TIP3    H173178   6.711   6.656   3.487  0.5613 -1.0425  0.8620
17229TIP3    H273179   6.853   6.677   3.438  1.3440 -2.8677  2.2317
17230TIP3   OH273180   4.813   5.666   4.561 -0.2708 -0.5000 -0.0846
17230TIP3    H173181   4.748   5.717   4.513  0.3746 -2.5672 -3.5326
17230TIP3    H273182   4.892   5.670   4.507  1.5011 -0.7029  2.3259
17231TIP3   OH273183   2.442   5.873   2.010  0.4485  0.6755  0.0612
17231TIP3    H173184   2.397   5.839   1.933 -0.6963 -0.0299  1.0119
17231TIP3    H273185   2.374   5.881   2.077  1.6621 -0.2514  1.4860
17232TIP3   OH273186   0.387   6.646   0.423  0.0335 -0.2355 -0.5210
17232TIP3    H173187   0.473   6.628   0.386  0.6510  0.4286  0.5310
17232TIP3    H273188   0.399   6.635   0.518 -0.7826  0.8312 -0.2762
17233TIP3   OH273189   0.463   6.650  15.379  0.6055 -0.9447 -0.4624
17233TIP3    H173190   0.491   6.701  15.302  1.2324 -0.9198 -0.2194
17233TIP3    H273191   0.375   6.682  15.397  0.4977 -0.8614 -1.0978
17234TIP3   OH273192   0.452   2.223   0.268  1.1759 -0.1970 -0.4155
17234TIP3    H173193   0.407   2.166   0.206 -0.1723  1.7170 -1.3053
17234TIP3    H273194   0.392   2.230   0.342  1.5986 -0.4253 -0.0541
17235TIP3   OH273195   6.463   6.609   5.447  0.1950  0.0328  0.4831
17235TIP3    H173196   6.558   6.604   5.451  0.3039 -1.1643 -1.9015
17235TIP3    H273197   6.439   6.551   5.375 -2.5002 -1.0566  2.1294
17236TIP3   OH273198   5.197   1.172  15.309  0.1815  0.1748  0.5761
17236TIP3    H173199   5.193   1.183  15.214 -2.0702  0.4966  0.6545
17236TIP3    H273200   5.177   1.259  15.344 -1.6437 -0.4885  1.2989
17237TIP3   OH273201   1.252   1.630  13.944  0.3406  0.3403  0.4853
17237TIP3    H173202   1.222   1.659  13.858 -0.3267 -0.3020  0.4911
17237TIP3    H273203   1.178   1.582  13.980  0.8406  0.0630  1.1589
17238TIP3   OH273204   0.211   4.579   4.933 -0.3288 -0.3210  0.1114
17238TIP3    H173205   0.290   4.525   4.927  1.1356  1.8036 -1.5473
17238TIP3    H273206   0.160   4.557   4.855 -0.4106 -0.3281  0.1669
17239TIP3   OH273207   2.677   0.013  12.750 -0.2390 -0.3731 -0.2790
17239TIP3    H173208   2.718  -0.072  12.732 -0.2988 -0.5547  0.4135
17239TIP3    H273209   2.742   0.060  12.803  1.3188  1.3958 -3.4454
17240TIP3   OH273210   4.485   1.255   5.051  0.6768 -0.6570 -0.0832
17240TIP3    H173211   4.442   1.202   4.983  2.3577 -0.1379 -1.6455
17240TIP3    H273212   4.413   1.301   5.094 -0.4664 -0.8612 -1.6510
17241TIP3   OH273213   3.826   3.628  10.938  0.0501  0.0150 -0.2255
17241TIP3    H173214   3.846   3.719  10.917 -0.3572  0.3210  0.6627
17241TIP3    H273215   3.784   3.594  10.860 -1.1733  1.0302 -0.0417
17242TIP3   OH273216   4.176   2.583   1.023 -0.3158  0.0256 -0.5120
17242TIP3    H173217   4.180   2.616   0.933 -0.0238 -1.2566 -0.9809
17242TIP3    H273218   4.231   2.505   1.023  0.7179  0.7043  1.0990
17243TIP3   OH273219   4.058   0.493   2.806 -0.4499  0.0340  0.3468
17243TIP3    H173220   4.101   0.408   2.800 -1.4607 -0.4912  0.3156
17243TIP3    H273221   4.129   0.555   2.827 -0.1043 -1.2122  3.3417
17244TIP3   OH273222   6.005   0.141   2.503 -0.7404  0.4266 -0.2305
17244TIP3    H173223   6.002   0.233   2.529 -0.0465  1.0229 -2.1014
17244TIP3    H273224   5.915   0.120   2.477 -0.6690  0.9422 -0.9176
17245TIP3   OH273225   2.171   3.327  15.006  0.3661  0.0322 -0.2138
17245TIP3    H173226   2.128   3.243  15.023  1.1041 -0.1239  0.9581
17245TIP3    H273227   2.264   3.305  14.994  0.4684  0.6140 -0.5618
17246TIP3   OH273228   4.744   6.388  16.707 -0.2298 -0.1759  0.3443
17246TIP3    H173229   4.799   6.315  16.679 -1.0845 -0.9029  0.5462
17246TIP3    H273230   4.793   6.428  16.780  0.0818 -0.7400  0.4494
17247TIP3   OH273231   5.045   4.596  15.532  0.1887 -0.3893  0.6431
17247TIP3    H173232   5.075   4.581  15.621  1.0344 -0.3478  0.3737
17247TIP3    H273233   5.087   4.678  15.506  0.1520 -0.5318  0.1216
17248TIP3   OH273234   2.245   1.087  17.138 -0.2581 -0.0216  0.5514
17248TIP3    H173235   2.314   1.028  17.166  0.2208  1.0633  1.7246
17248TIP3    H273236   2.290   1.159  17.095 -0.7298  0.3192  0.6194
17249TIP3   OH273237   4.996   5.176   2.477  0.4037 -0.0724  0.1805
17249TIP3    H173238   5.041   5.189   2.560  0.3270  1.0644  0.0585
17249TIP3    H273239   4.932   5.248   2.472 -1.4033 -1.6037  0.3154
17250TIP3   OH273240   2.396   4.946   3.943 -0.0357 -0.2329 -0.3858
17250TIP3    H173241   2.303   4.949   3.921 -0.4920 -0.6318  1.3284
17250TIP3    H273242   2.419   5.037   3.960 -0.4624 -0.2734  0.4611
17251TIP3   OH273243   5.896   0.643   3.375  0.1432  0.0829 -0.1879
17251TIP3    H173244   5.900   0.556   3.416 -1.9185 -0.3867 -0.8405
17251TIP3    H273245   5.937   0.630   3.289  1.1266  0.1392  0.2594
17252TIP3   OH273246   1.711   5.770  13.801  0.3300  0.2568  0.0538
17252TIP3    H173247   1.770   5.839  13.770  0.6326 -0.7154 -1.6229
17252TIP3    H273248   1.624   5.811  13.798  0.6159  0.8690 -0.0395
17253TIP3   OH273249   4.869   1.752   1.015 -0.2635  0.2694  0.0005
17253TIP3    H173250   4.925   1.793   1.082 -0.1576 -3.1770  2.2924
17253TIP3    H273251   4.803   1.705   1.065 -0.8900 -1.5614 -2.3871
17254TIP3   OH273252   2.932   3.128   3.265  0.8148 -0.1265  0.4628
17254TIP3    H173253   3.014   3.165   3.232  1.9854 -1.8107  1.3292
17254TIP3    H273254   2.920   3.048   3.215  0.0572 -0.2413  0.8159
17255TIP3   OH273255   1.494   1.943  16.772 -0.1649 -0.1174  0.5366
17255TIP3    H173256   1.443   1.916  16.696 -1.5001  1.7718  0.6804
17255TIP3    H273257   1.471   1.879  16.840  0.3091 -1.2538 -0.3324
17256TIP3   OH273258   0.911   0.949   1.506 -0.4170 -0.8609 -0.0252
17256TIP3    H173259   0.892   0.924   1.597  3.7466 -2.6744  0.5333
17256TIP3    H273260   0.853   0.894   1.454 -1.7809 -0.9107  1.4541
17257TIP3   OH273261   2.803   1.485   1.864 -0.9358 -0.5382  0.6801
17257TIP3    H173262   2.736   1.418   1.877  0.7937 -2.4247  0.5304
17257TIP3    H273263   2.868   1.443   1.808  0.7263  0.9283  1.4098
17258TIP3   OH273264   6.317   4.838  16.534  0.3416  0.2102  0.6762
17258TIP3    H173265   6.275   4.889  16.465 -0.0062 -0.6960  0.1993
17258TIP3    H273266   6.275   4.752  16.529  0.3491  0.1087  1.9846
17259TIP3   OH273267   1.316   5.007   6.401 -0.4447  0.3659  0.2923
17259TIP3    H173268   1.251   5.076   6.387 -1.0509 -0.2792 -0.1596
17259TIP3    H273269   1.275   4.947   6.463 -0.8856 -0.7800 -1.0507
17260TIP3   OH273270   1.560   0.743   4.399  0.1017  0.6479  0.3605
17260TIP3    H173271   1.629   0.803   4.371 -0.3728  0.1245 -2.1458
17260TIP3    H273272   1.604   0.658   4.407 -0.1357  0.3907 -0.8695
17261TIP3   OH273273   2.017   4.751  16.734  0.1588 -0.5305 -0.1408
17261TIP3    H173274   1.940   4.803  16.714 -0.7753 -0.5721  2.9114
17261TIP3    H273275   2.089   4.796  16.689 -1.2671  0.8312 -1.1510
17262TIP3   OH273276   5.270   5.905   5.900 -0.3220  0.2824  0.2904
17262TIP3    H173277   5.290   5.812   5.913 -0.2800 -0.1144 -2.1757
17262TIP3    H273278   5.175   5.911   5.906 -0.5840 -0.4577 -2.0107
17263TIP3   OH273279   2.738   3.053   2.090 -0.3820  0.2875 -0.0901
17263TIP3    H173280   2.776   3.028   2.006 -0.7687  0.7677 -0.4105
17263TIP3    H273281   2.774   2.989   2.152  1.4309  1.0854 -0.2664
17264TIP3   OH273282   3.934   3.143   2.436  0.7249  0.1863 -0.4971
17264TIP3    H173283   3.890   3.061   2.411  0.9135 -0.0293 -0.1439
17264TIP3    H273284   3.918   3.150   2.530  0.7634  0.5265 -0.5166
17265TIP3   OH273285   6.406   0.179  12.332  0.0551 -0.1704 -0.8414
17265TIP3    H173286   6.384   0.244  12.399  1.1443 -1.8092  1.2841
17265TIP3    H273287   6.493   0.206  12.301 -0.0520  0.1031 -0.9044
17266TIP3   OH273288   1.547   5.919  16.323 -0.1267 -0.6575  0.1276
17266TIP3    H173289   1.484   5.984  16.353 -0.2519 -0.3059 -0.8872
17266TIP3    H273290   1.618   5.923  16.388 -1.0462 -0.9389  1.1844
17267TIP3   OH273291   0.362   5.127  16.594 -0.0693  0.1707  0.0614
17267TIP3    H173292   0.435   5.120  16.532  0.3192  1.1139  0.3791
17267TIP3    H273293   0.382   5.206  16.645 -1.7528  0.9573 -0.4119
17268TIP3   OH273294   0.750   3.101  15.379  0.4562  0.3674 -0.4666
17268TIP3    H173295   0.677   3.087  15.439  0.8901  0.7406  0.1611
17268TIP3    H273296   0.828   3.074  15.429  0.7597  0.0817 -1.0835
17269TIP3   OH273297   6.803   1.619  11.655 -0.1346  0.3537 -0.0113
17269TIP3    H173298   6.789   1.596  11.747  0.3578 -0.8018 -0.1987
17269TIP3    H273299   6.888   1.664  11.654 -0.7477  1.5495  0.2592
17270TIP3   OH273300   4.344   2.151  12.147  0.0832  0.4767  0.1828
17270TIP3    H173301   4.301   2.163  12.062  1.1227  1.2619 -0.2659
17270TIP3    H273302   4.288   2.090  12.195  0.1001 -0.9610 -1.5318
17271TIP3   OH273303   2.530   0.931  13.975 -0.0100  0.2504 -0.0019
17271TIP3    H173304   2.492   0.853  13.935  3.8009 -1.3423 -1.0321
17271TIP3    H273305   2.533   0.996  13.905  2.7902 -1.0930 -1.2805
17272TIP3   OH273306   0.535   1.120  17.049 -0.3147  0.5840 -1.2933
17272TIP3    H173307   0.539   1.109  16.954  0.0528  1.4519 -1.3911
17272TIP3    H273308   0.580   1.203  17.065  2.2030 -0.8871 -0.0953
17273TIP3   OH273309   0.173   3.457  12.929  0.2706 -0.0691 -0.0530
17273TIP3    H173310   0.257   3.492  12.958  0.6069 -0.9477  0.0875
17273TIP3    H273311   0.178   3.457  12.833  0.7140 -0.7277 -0.0425
17274TIP3   OH273312   2.471   4.363  16.440 -0.2316 -0.3348 -0.1301
17274TIP3    H173313   2.470   4.394  16.531  0.0649 -0.4225 -0.0943
17274TIP3    H273314   2.385   4.387  16.405 -0.4557 -0.5543  0.2609
17275TIP3   OH273315   5.219   0.624  16.395  0.3160 -0.0226 -0.4329
17275TIP3    H173316   5.228   0.567  16.319  0.8191 -0.2508 -0.2101
17275TIP3    H273317   5.125   0.622  16.415 -0.0259  1.0151 -1.7668
17276TIP3   OH273318   6.422   5.449  16.416  0.2038  0.5194  0.8057
17276TIP3    H173319   6.412   5.477  16.507  2.0790  0.8328  0.9559
17276TIP3    H273320   6.486   5.377  16.420  1.1694  1.2721 -0.3471
17277TIP3   OH273321   4.951   4.925   5.087 -0.0026 -0.4390  0.6030
17277TIP3    H173322   5.040   4.895   5.104 -0.9285 -2.6669  1.8996
17277TIP3    H273323   4.907   4.920   5.171 -1.1086  1.7427  0.2399
17278TIP3   OH273324   2.705   4.208   1.538 -0.2355 -0.1847  0.4858
17278TIP3    H173325   2.738   4.159   1.614 -1.0241  1.0397  1.6680
17278TIP3    H273326   2.653   4.278   1.576 -0.6673  0.4625 -1.2179
17279TIP3   OH273327   3.628   2.618  15.304 -0.6286  0.1066 -0.2220
17279TIP3    H173328   3.715   2.614  15.265  0.1033 -1.9238  1.4312
17279TIP3    H273329   3.570   2.582  15.238  0.2732 -1.3825 -0.2458
17280TIP3   OH273330   2.656   2.532  11.253 -0.1173  0.2614  0.2755
17280TIP3    H173331   2.704   2.526  11.336 -0.1541  1.8634  0.4410
17280TIP3    H273332   2.565   2.546  11.279 -0.9359 -3.4339 -0.0204
17281TIP3   OH273333   4.342   6.154   5.598 -0.1086  0.4039  0.0370
17281TIP3    H173334   4.350   6.060   5.587 -3.3002 -0.0824  0.7471
17281TIP3    H273335   4.401   6.176   5.669  0.1670 -1.1939  0.3321
17282TIP3   OH273336   0.786   1.475   1.028 -0.0374 -0.2105 -0.0983
17282TIP3    H173337   0.848   1.517   1.088  0.2258 -0.4604 -0.1953
17282TIP3    H273338   0.823   1.490   0.941 -0.0956 -0.3887 -0.1542
17283TIP3   OH273339   0.745   4.752   2.023  0.5667 -0.2153  0.6180
17283TIP3    H173340   0.720   4.731   1.932  1.1185 -2.8015  0.9835
17283TIP3    H273341   0.665   4.738   2.073  0.9395 -1.5038  0.8689
17284TIP3   OH273342   3.499   5.676   3.175 -0.6540  0.2272 -0.1050
17284TIP3    H173343   3.430   5.642   3.118  0.4061  1.2571 -2.1131
17284TIP3    H273344   3.560   5.603   3.184 -2.4383 -1.1208  2.6951
17285TIP3   OH273345   0.816   3.731   5.209  0.1872 -0.1265 -0.3012
17285TIP3    H173346   0.828   3.774   5.125  0.0742 -0.2415 -0.3767
17285TIP3    H273347   0.772   3.648   5.188  1.0502 -0.6091 -0.2289
17286TIP3   OH273348   4.729   6.018   6.009 -1.1230  0.0072  0.2860
17286TIP3    H173349   4.684   6.011   5.925  0.6459  0.4872 -0.7582
17286TIP3    H273350   4.726   6.111   6.031 -1.0110 -0.0180  0.4130
17287TIP3   OH273351   3.374   2.808  16.446  0.6343 -0.7629 -0.2379
17287TIP3    H173352   3.443   2.869  16.420 -0.2667  0.2207 -0.4354
17287TIP3    H273353   3.314   2.806  16.372 -1.8184  1.8613  1.4165
17288TIP3   OH273354   0.596   4.445  11.784 -0.2552 -0.7585  0.0981
17288TIP3    H173355   0.565   4.433  11.694  0.9825  1.2967 -0.6639
17288TIP3    H273356   0.683   4.406  11.784  1.4846  2.7329 -0.8630
17289TIP3   OH273357   1.302   1.850  16.618 -0.6581 -0.2562  0.5084
17289TIP3    H173358   1.300   1.762  16.656  0.2886 -0.7276 -0.4886
17289TIP3    H273359   1.215   1.862  16.580 -0.5653 -1.0386  0.0387
17290TIP3   OH273360   6.323   4.817  13.494 -0.3553 -0.3153 -0.0045
17290TIP3    H173361   6.400   4.762  13.509  0.3258 -0.0615 -2.2289
17290TIP3    H273362   6.251   4.756  13.482 -0.2940 -0.5873  0.9153
17291TIP3   OH273363   3.951   0.742  16.837  0.4326 -0.4816  0.1524
17291TIP3    H173364   4.028   0.686  16.848  0.9073 -0.2258 -1.5221
17291TIP3    H273365   3.880   0.681  16.816  0.2985 -0.6727  1.1415
17292TIP3   OH273366   4.688   1.667   4.110  0.3370 -0.3287 -0.6187
17292TIP3    H173367   4.756   1.684   4.176 -0.9365  1.9456  0.2405
17292TIP3    H273368   4.707   1.729   4.040 -2.3380  2.5533  0.9280
17293TIP3   OH273369   6.611   6.044  11.678  0.3413 -0.3110  0.3405
17293TIP3    H173370   6.692   6.027  11.631 -0.4775 -2.2364 -0.5060
17293TIP3    H273371   6.597   5.967  11.732 -0.7282  0.1516  0.7641
17294TIP3   OH273372   6.466   2.543  11.335  0.1333  0.0978  0.3853
17294TIP3    H173373   6.451   2.521  11.243  1.5830  1.4094 -0.2079
17294TIP3    H273374   6.388   2.593  11.361 -0.3431 -0.3972 -0.0903
17295TIP3   OH273375   1.242   1.853   1.056 -0.7431 -0.4603 -0.0933
17295TIP3    H173376   1.332   1.847   1.087 -1.0974 -3.4073  0.6838
17295TIP3    H273377   1.204   1.925   1.106  0.8483 -0.0198  0.5213
17296TIP3   OH273378   1.972   5.572   5.127 -0.1145 -0.3620  0.6688
17296TIP3    H173379   2.031   5.496   5.129 -0.5480 -0.7403 -0.3497
17296TIP3    H273380   1.969   5.601   5.218 -0.2759 -1.8394  1.1686
17297TIP3   OH273381   0.347   6.708   5.744  0.1099  0.0835 -0.1584
17297TIP3    H173382   0.441   6.696   5.758  0.1406 -2.4751 -1.8429
17297TIP3    H273383   0.340   6.784   5.686  1.0300  0.8472  0.6986
17298TIP3   OH273384   4.091   6.448   2.965 -0.6684  0.2864 -0.0099
17298TIP3    H173385   4.098   6.521   3.027 -0.1015 -0.0294  0.2972
17298TIP3    H273386   4.127   6.373   3.011 -2.0651 -0.4123  0.0067
17299TIP3   OH273387   3.254   1.625   2.061 -0.3047  0.2323  0.1075
17299TIP3    H173388   3.341   1.661   2.044 -0.0620 -1.1828 -2.1370
17299TIP3    H273389   3.245   1.625   2.156  1.4343  1.9706  0.3276
17300TIP3   OH273390   0.699   2.438  12.636  0.0462  0.0272 -0.0573
17300TIP3    H173391   0.735   2.472  12.554 -0.3338  0.1600 -0.1694
17300TIP3    H273392   0.694   2.514  12.694 -0.9517  0.2022 -0.3604
17301TIP3   OH273393   1.354   1.808   1.430 -0.2791 -0.3294  0.2445
17301TIP3    H173394   1.394   1.738   1.377 -2.7080  0.1294 -2.4643
17301TIP3    H273395   1.316   1.762   1.505 -0.3784 -1.7296 -0.6105
17302TIP3   OH273396   5.775   4.488   0.988  0.0589  0.0278 -0.5914
17302TIP3    H173397   5.684   4.472   0.961  0.0386  1.3257 -1.3986
17302TIP3    H273398   5.826   4.423   0.939 -0.3100  0.2401 -1.2738
17303TIP3   OH273399   6.231   1.086  10.600 -0.0187  0.1871  0.6120
17303TIP3    H173400   6.185   1.145  10.660  1.6939  0.4420  1.7355
17303TIP3    H273401   6.174   1.082  10.522 -2.2488 -0.0831  2.1635
17304TIP3   OH273402   3.658   1.289   0.695  0.2518  0.3351 -0.7195
17304TIP3    H173403   3.753   1.284   0.696  0.2436 -1.8446 -2.2897
17304TIP3    H273404   3.633   1.262   0.607 -1.8191  1.4737 -0.5573
17305TIP3   OH273405   1.347   2.372   5.094  0.0243 -0.1467 -0.4114
17305TIP3    H173406   1.370   2.463   5.109 -1.5939  0.1394  0.5517
17305TIP3    H273407   1.419   2.337   5.041  0.2634  1.8945 -1.5339
17306TIP3   OH273408   2.686   0.044   3.763  0.2959 -0.0040 -0.0798
17306TIP3    H173409   2.737  -0.028   3.727  0.5529 -0.5097  1.2467
17306TIP3    H273410   2.615   0.056   3.700  2.2730  1.0705 -2.2473
17307TIP3   OH273411   1.700   1.780  17.184 -0.3237  0.6418 -0.4769
17307TIP3    H173412   1.626   1.723  17.207  1.5928 -3.3438 -3.1405
17307TIP3    H273413   1.776   1.738  17.225  0.9228  3.0325 -0.1496
17308TIP3   OH273414   1.172   0.904   3.651 -0.2652 -0.0232  0.2300
17308TIP3    H173415   1.261   0.901   3.685  0.0577 -0.1526 -0.6221
17308TIP3    H273416   1.118   0.877   3.725  0.3468  0.6277  0.9297
17309TIP3   OH273417   3.488   4.896   0.576 -0.4183 -0.0407 -0.0272
17309TIP3    H173418   3.416   4.953   0.550 -0.2712 -1.3419 -3.8708
17309TIP3    H273419   3.452   4.807   0.570  0.3678 -0.5996  2.3183
17310TIP3   OH273420   0.227   2.476  16.257 -0.2085  0.0399 -0.3504
17310TIP3    H173421   0.218   2.386  16.227 -2.3423  0.3180 -0.7182
17310TIP3    H273422   0.286   2.517  16.193 -0.0270 -0.8451 -0.7655
17311TIP3   OH273423   4.008   4.648  14.497  0.0572 -0.1522 -0.1759
17311TIP3    H173424   4.004   4.563  14.541  0.8063 -0.0165  0.1631
17311TIP3    H273425   3.950   4.704  14.547  0.8203 -0.0280  0.5774
17312TIP3   OH273426   4.202   2.060   5.579  0.4877  0.0784 -0.3416
17312TIP3    H173427   4.284   2.019   5.608  0.8933  1.0536 -0.0625
17312TIP3    H273428   4.159   1.993   5.526 -0.4780 -1.9630  2.7425
17313TIP3   OH273429   1.353   1.961  14.890  0.0590 -0.3765 -0.1181
17313TIP3    H173430   1.272   1.915  14.912  0.4452 -0.6768  0.7265
17313TIP3    H273431   1.422   1.898  14.909  0.7143  0.9613  2.5313
17314TIP3   OH273432   6.058   3.733   1.171  0.2391  0.7523 -0.6359
17314TIP3    H173433   6.082   3.656   1.120 -0.6532 -0.2638  0.4199
17314TIP3    H273434   5.971   3.757   1.140  0.5025  1.3311 -0.9418
17315TIP3   OH273435   4.777   3.865   2.327 -0.2653 -0.2874 -0.2678
17315TIP3    H173436   4.778   3.950   2.283 -0.4011 -0.3235 -0.3416
17315TIP3    H273437   4.846   3.871   2.393  1.3687 -0.9485 -1.8456
17316TIP3   OH273438   0.576   3.301  11.236  0.2652  0.3368  0.3593
17316TIP3    H173439   0.637   3.267  11.301  0.6147  0.1242 -0.0732
17316TIP3    H273440   0.498   3.245  11.245  0.0702  0.7089  1.0168
17317TIP3   OH273441   2.261   4.080   2.965 -0.1959  0.5723 -0.0034
17317TIP3    H173442   2.243   4.173   2.949 -1.0573  0.2204 -1.2231
17317TIP3    H273443   2.207   4.034   2.901  0.7470 -0.7569  0.1211
17318TIP3   OH273444   3.230   5.084  11.735  0.0579  0.0113 -0.5341
17318TIP3    H173445   3.176   5.061  11.810  0.8702  0.0837  0.0828
17318TIP3    H273446   3.212   5.016  11.670  0.7900 -1.1592  0.4449
17319TIP3   OH273447   0.822   1.365  15.918  0.0626  1.0548  0.4706
17319TIP3    H173448   0.774   1.380  16.000 -1.0498 -0.6729  0.1857
17319TIP3    H273449   0.835   1.452  15.882  0.9447  1.9173  2.6617
17320TIP3   OH273450   6.663   6.541  14.013 -0.2598  0.0698 -0.4902
17320TIP3    H173451   6.674   6.448  14.032  2.1136  0.2246 -0.7468
17320TIP3    H273452   6.614   6.544  13.931 -1.1449 -0.9087 -0.0127
17321TIP3   OH273453   6.811   4.238  11.299 -0.3240 -0.1724  0.1756
17321TIP3    H173454   6.892   4.191  11.318  0.2053  0.2473 -0.9548
17321TIP3    H273455   6.774   4.192  11.224 -1.3536 -0.6046  0.9283
17322TIP3   OH273456   1.978   1.136   1.700 -0.1399  0.1940  0.4878
17322TIP3    H173457   1.895   1.132   1.654  0.8586 -0.8418 -1.3316
17322TIP3    H273458   2.042   1.101   1.638  1.5518  0.2992  2.0784
17323TIP3   OH273459   5.742   6.820  13.459 -0.2007 -0.1492  0.3697
17323TIP3    H173460   5.672   6.881  13.482  0.0099 -0.2459  1.2861
17323TIP3    H273461   5.744   6.757  13.531  0.8851 -0.0981  0.4077
17324TIP3   OH273462   1.726   5.609   4.220 -0.3726  0.2271 -0.4692
17324TIP3    H173463   1.730   5.644   4.131 -0.1173 -0.9296 -0.9366
17324TIP3    H273464   1.817   5.607   4.249  0.1911 -3.5304 -1.9215
17325TIP3   OH273465   4.573   3.694  15.575  0.4218 -0.2097 -0.6722
17325TIP3    H173466   4.531   3.744  15.505  0.2497  0.7135  0.0849
17325TIP3    H273467   4.596   3.611  15.533 -2.0360 -0.7348 -1.1687
17326TIP3   OH273468   0.656   5.855   2.204  0.0442  0.5076 -0.7403
17326TIP3    H173469   0.623   5.944   2.201 -0.4152  0.3284 -1.0731
17326TIP3    H273470   0.651   5.824   2.113  1.8704  0.7409 -0.9592
17327TIP3   OH273471   3.765   1.070  17.109  0.1158 -0.2564  0.6354
17327TIP3    H173472   3.760   1.103  17.020  1.3873  0.7214  0.8920
17327TIP3    H273473   3.795   0.980  17.100 -0.4550 -0.3881  0.0509
17328TIP3   OH273474   4.695   5.334  13.204 -0.3820  0.1446  0.6558
17328TIP3    H173475   4.704   5.302  13.114 -3.6517  1.3866 -0.2756
17328TIP3    H273476   4.666   5.258  13.254  0.5468 -0.3361  0.4809
17329TIP3   OH273477   0.067   2.354  17.125  0.0704 -0.9873 -0.2157
17329TIP3    H173478   0.117   2.350  17.044  1.2600 -0.9103  0.4958
17329TIP3    H273479   0.014   2.433  17.117  1.1893 -0.2324 -0.3553
17330TIP3   OH273480   3.302   1.960   1.293  0.2854 -0.0327  0.0169
17330TIP3    H173481   3.294   1.889   1.358  0.2834  0.4364  0.5392
17330TIP3    H273482   3.248   1.931   1.219 -0.6825 -0.0473  0.7052
17331TIP3   OH273483   4.143   2.430   5.218  0.4551  0.1795 -0.2600
17331TIP3    H173484   4.144   2.523   5.242 -1.5466 -0.1551  1.4350
17331TIP3    H273485   4.139   2.384   5.302  0.1373 -1.3878 -1.1011
17332TIP3   OH273486   2.694   6.579  10.565 -0.1253  0.6616 -0.0497
17332TIP3    H173487   2.698   6.483  10.560 -0.3193  0.6684 -0.3240
17332TIP3    H273488   2.618   6.597  10.620  1.2944  0.6156  2.0728
17333TIP3   OH273489   6.694   5.357   3.910  0.2647 -0.0344 -0.8775
17333TIP3    H173490   6.636   5.339   3.837  0.6021 -0.7011 -0.9927
17333TIP3    H273491   6.758   5.285   3.908  0.1824 -0.1548  0.1633
17334TIP3   OH273492   3.932   6.102   4.251 -0.0373 -0.1043  0.1935
17334TIP3    H173493   3.986   6.027   4.275  0.5986  0.6140  1.0349
17334TIP3    H273494   3.992   6.164   4.210 -0.4963  0.0907 -0.2026
17335TIP3   OH273495   3.895   5.889   4.920  0.1715  0.7139 -0.3886
17335TIP3    H173496   3.973   5.920   4.874  0.1517  0.5675 -0.5237
17335TIP3    H273497   3.835   5.862   4.850 -0.4430  1.8703 -0.3194
17336TIP3   OH273498   2.104   1.955  15.627 -0.4019  0.0159  0.0480
17336TIP3    H173499   2.021   1.907  15.619  0.4620 -1.5342  0.0035
17336TIP3    H273500   2.105   2.014  15.552 -0.8236 -0.9759 -0.7521
17337TIP3   OH273501   4.543   3.843   2.076  0.5347 -0.3312 -0.2379
17337TIP3    H173502   4.634   3.813   2.069  0.8913  0.3276  1.2976
17337TIP3    H273503   4.533   3.867   2.167 -1.0959 -0.0475 -0.4720
17338TIP3   OH273504   1.494   5.785  16.821 -0.5637 -0.4430  0.1902
17338TIP3    H173505   1.484   5.877  16.798  0.4469 -0.4377 -0.2699
17338TIP3    H273506   1.492   5.739  16.736  0.0804 -0.7253  0.3212
17339TIP3   OH273507   3.134   6.461  15.224 -0.2493 -0.2223  0.0865
17339TIP3    H173508   3.110   6.473  15.316 -0.1792  1.1214 -0.0543
17339TIP3    H273509   3.225   6.430  15.227 -0.0760  0.3140  0.4616
17340TIP3   OH273510   1.113   2.225   4.507  0.4981  0.3543  0.0010
17340TIP3    H173511   1.065   2.294   4.463 -0.0600 -0.9809 -1.6025
17340TIP3    H273512   1.062   2.145   4.490  1.8524 -0.6732  0.5569
17341TIP3   OH273513   3.226   2.422  13.585 -0.0931 -0.2473 -0.1700
17341TIP3    H173514   3.139   2.444  13.551 -0.5343  0.2136  1.2135
17341TIP3    H273515   3.279   2.498  13.564 -0.5397  0.3365  0.7696
17342TIP3   OH273516   6.568   2.820   0.499  0.2090 -0.0900 -0.4527
17342TIP3    H173517   6.609   2.829   0.413  1.6359 -0.3022  0.1792
17342TIP3    H273518   6.509   2.745   0.489  1.0175 -0.6752 -1.0267
17343TIP3   OH273519   5.690   2.695  10.982  0.3094 -0.4853 -0.1077
17343TIP3    H173520   5.668   2.603  10.990  0.8486 -0.5732  0.4877
17343TIP3    H273521   5.785   2.698  10.978  0.2597 -0.0280 -1.3686
17344TIP3   OH273522   6.193   3.283  12.531 -0.2484 -0.3765  0.2844
17344TIP3    H173523   6.242   3.346  12.479  0.1856 -0.9637 -0.0305
17344TIP3    H273524   6.259   3.235  12.581 -0.3763 -1.7650 -0.7936
17345TIP3   OH273525   1.849   2.683  10.650  0.2769 -0.8606  0.3124
17345TIP3    H173526   1.832   2.679  10.556 -1.0324  1.5844  0.3497
17345TIP3    H273527   1.763   2.667  10.690  0.5301 -0.4925  1.0170
17346TIP3   OH273528   1.175   1.232   2.342 -0.5587 -0.5253 -0.1649
17346TIP3    H173529   1.145   1.274   2.422  0.4428 -0.3656  0.1445
17346TIP3    H273530   1.263   1.199   2.364 -0.4711 -0.9080 -1.0458
17347TIP3   OH273531   1.637   4.105  11.703  0.1351 -0.0817 -0.0654
17347TIP3    H173532   1.627   4.110  11.798 -1.9085 -1.7208 -0.1337
17347TIP3    H273533   1.577   4.171  11.669 -1.4127 -1.5120 -0.2284
17348TIP3   OH273534   2.552   0.232  14.196  0.6642 -0.3643  0.0438
17348TIP3    H173535   2.462   0.199  14.195  1.1419 -1.7044 -0.2659
17348TIP3    H273536   2.542   0.327  14.208 -0.8207 -0.3289 -1.1838
17349TIP3   OH273537   2.438   5.941  13.645 -0.5799  0.8229 -0.0720
17349TIP3    H173538   2.469   5.859  13.685 -1.6983  0.1354 -0.5857
17349TIP3    H273539   2.467   6.009  13.706  0.4633  0.0750  0.3157
17350TIP3   OH273540   4.688   3.524  15.789 -0.3853  0.0307 -0.5198
17350TIP3    H173541   4.674   3.583  15.715 -1.8017 -1.7595 -1.7747
17350TIP3    H273542   4.744   3.573  15.849  0.2855  1.7862 -2.4775
17351TIP3   OH273543   1.306   5.741   0.668 -0.4901 -0.6081  0.4401
17351TIP3    H173544   1.352   5.675   0.616 -1.1435 -0.0554 -0.8740
17351TIP3    H273545   1.225   5.697   0.695 -0.8645 -0.4011 -0.3239
17352TIP3   OH273546   0.530   5.889   3.230  0.2648 -0.0384 -0.4286
17352TIP3    H173547   0.499   5.924   3.314 -1.2850  1.4063 -1.5441
17352TIP3    H273548   0.563   5.965   3.183 -1.4628 -0.2895 -2.1903
17353TIP3   OH273549   5.919   0.140  12.545 -0.4052 -0.2921  0.2554
17353TIP3    H173550   5.827   0.142  12.575 -0.2183 -2.2284  1.1464
17353TIP3    H273551   5.916   0.091  12.463 -0.1046 -1.1634  0.7427
17354TIP3   OH273552   1.435   5.894   2.535 -0.1324 -0.0631 -0.0757
17354TIP3    H173553   1.400   5.973   2.578 -0.3563 -0.4188  0.4046
17354TIP3    H273554   1.410   5.904   2.443  1.4465  1.3355 -0.4158
17355TIP3   OH273555   1.162   6.474   4.034  0.0351  0.3955 -0.2270
17355TIP3    H173556   1.087   6.443   4.085  1.2235 -0.7877  0.9027
17355TIP3    H273557   1.185   6.558   4.073  0.9875 -0.5359  1.3699
17356TIP3   OH273558   6.744   3.520  11.810 -0.3466 -0.3648  0.0115
17356TIP3    H173559   6.839   3.526  11.808 -0.3467  0.6841  1.5584
17356TIP3    H273560   6.726   3.429  11.833  0.2962 -0.4226  0.3023
17357TIP3   OH273561   6.746   2.829  12.514 -0.3074 -0.0583  0.1060
17357TIP3    H173562   6.803   2.851  12.588 -1.6960  0.5681  1.0118
17357TIP3    H273563   6.742   2.733  12.515  1.4918 -0.1820 -0.5889
17358TIP3   OH273564   2.559   3.383   5.554  0.0924  0.4140  0.1095
17358TIP3    H173565   2.514   3.314   5.601 -1.0468  0.9371 -0.1828
17358TIP3    H273566   2.597   3.439   5.623 -1.3177  1.0158  0.4237
17359TIP3   OH273567   5.604   3.004   3.117 -0.9692 -0.0922 -0.0505
17359TIP3    H173568   5.553   2.999   3.036 -0.8731 -1.9265 -0.0390
17359TIP3    H273569   5.631   3.096   3.122 -1.0459  0.0948 -2.0554
17360TIP3   OH273570   2.692   4.097  16.919 -0.0426 -0.1813 -0.0600
17360TIP3    H173571   2.703   4.183  16.958 -0.2235 -0.5915  0.9453
17360TIP3    H273572   2.686   4.113  16.825  0.4051  0.8449  0.0781
17361TIP3   OH273573   0.146   1.440   1.905 -0.2904  0.3685  0.2185
17361TIP3    H173574   0.085   1.514   1.911 -0.6846  0.0797 -0.1558
17361TIP3    H273575   0.095   1.371   1.862  0.4091  0.2452 -0.4251
17362TIP3   OH273576   3.795   3.943  11.727  0.2779 -0.5893  0.0607
17362TIP3    H173577   3.767   4.029  11.757  1.2906  0.1162 -0.9204
17362TIP3    H273578   3.716   3.889  11.730 -0.6457  0.6837 -0.3770
17363TIP3   OH273579   2.401   5.224   3.968  0.0892  0.2022  0.0007
17363TIP3    H173580   2.484   5.267   3.990  0.4304  0.4085 -1.5519
17363TIP3    H273581   2.339   5.297   3.959 -0.0083  0.1340  0.1273
17364TIP3   OH273582   0.836   6.026   4.934 -0.2501  0.0987 -0.2411
17364TIP3    H173583   0.932   6.026   4.937 -0.2065 -0.0037 -1.3503
17364TIP3    H273584   0.813   5.944   4.891 -0.8616 -0.0161  0.2783
17365TIP3   OH273585   5.178   5.166   5.388  0.4016  0.2100 -0.6262
17365TIP3    H173586   5.233   5.154   5.466 -1.6112  1.7167  1.1400
17365TIP3    H273587   5.089   5.149   5.419 -0.4576  0.7679 -2.6535
17366TIP3   OH273588   3.976   3.138  14.184  0.5508 -0.2957 -1.1133
17366TIP3    H173589   4.012   3.173  14.102  0.0311  0.1827 -1.1445
17366TIP3    H273590   3.896   3.189  14.198  0.6788 -0.3209 -0.2650
17367TIP3   OH273591   1.319   1.963  11.396 -0.3457  0.1084 -0.0763
17367TIP3    H173592   1.397   1.929  11.439 -0.9686  2.0388  2.9055
17367TIP3    H273593   1.343   1.972  11.304  2.1583 -1.4087  0.3583
17368TIP3   OH273594   6.806   4.287   6.546  0.0288 -0.1160  0.1400
17368TIP3    H173595   6.801   4.378   6.517  0.8197  0.0756  0.5803
17368TIP3    H273596   6.716   4.254   6.538 -0.0515  0.3653 -1.0704
17369TIP3   OH273597   5.750   1.944  15.456 -0.4511 -0.2696  0.4853
17369TIP3    H173598   5.793   2.028  15.445 -3.5036  1.2771 -0.8953
17369TIP3    H273599   5.781   1.891  15.382  0.2737  0.2152  0.4382
17370TIP3   OH273600   4.412   1.869  10.958  0.0853  0.6796  0.0870
17370TIP3    H173601   4.339   1.808  10.973  2.2038 -1.6385  1.7099
17370TIP3    H273602   4.400   1.898  10.867 -2.3963 -0.1718  0.0440
17371TIP3   OH273603   2.525   3.554   1.021  0.1136 -0.4733 -0.6299
17371TIP3    H173604   2.576   3.594   1.091 -0.1977 -1.9345  0.4724
17371TIP3    H273605   2.591   3.520   0.960  0.4592 -1.3366  0.2005
17372TIP3   OH273606   4.926   4.073   0.871 -0.2022  1.2448 -0.0974
17372TIP3    H173607   4.872   4.098   0.946 -1.0646 -0.2386 -0.2053
17372TIP3    H273608   4.864   4.049   0.803  0.5920  0.9930 -0.7446
17373TIP3   OH273609   1.256   3.762  11.710 -0.7228 -0.0469 -0.2741
17373TIP3    H173610   1.295   3.843  11.678  0.2656 -0.6725 -0.7078
17373TIP3    H273611   1.276   3.697  11.642 -0.0521 -1.0250  0.8103
17374TIP3   OH273612   6.074   5.747  16.991  0.3248  0.2051  0.7200
17374TIP3    H173613   6.115   5.804  16.926 -1.4443  1.7974  0.9200
17374TIP3    H273614   6.102   5.659  16.966  2.0773  1.0152 -0.3930
17375TIP3   OH273615   6.552   5.852   3.153  0.5029  0.1823 -0.2744
17375TIP3    H173616   6.626   5.906   3.129  0.5319  0.3207  0.1230
17375TIP3    H273617   6.481   5.914   3.170  0.6993  0.1444  0.7591
17376TIP3   OH273618   4.743   2.799  16.763  0.2887  0.1485 -0.1813
17376TIP3    H173619   4.692   2.843  16.694  1.9669  1.1485 -0.8522
17376TIP3    H273620   4.804   2.743  16.715  1.4270  0.7902  0.4809
17377TIP3   OH273621   1.772   3.082  14.621  1.1844 -0.1751  0.1703
17377TIP3    H173622   1.720   3.156  14.589  0.7426 -0.8219 -0.6391
17377TIP3    H273623   1.716   3.040  14.686  0.8956 -0.5699 -0.3286
17378TIP3   OH273624   3.662   2.465  12.510  0.5726  0.4717 -0.3925
17378TIP3    H173625   3.749   2.505  12.506  1.0441 -0.3956  0.6499
17378TIP3    H273626   3.601   2.537  12.493  1.3349  1.9176  2.3619
17379TIP3   OH273627   4.159   3.199   4.685 -0.7318  0.7514  0.2955
17379TIP3    H173628   4.196   3.110   4.678  0.1300  1.1045  0.2257
17379TIP3    H273629   4.169   3.222   4.777  0.9691  1.5579 -0.0470
17380TIP3   OH273630   0.837   1.987   4.012  0.3786  0.2766 -0.2364
17380TIP3    H173631   0.930   2.005   4.000  0.5970 -0.7045 -0.1329
17380TIP3    H273632   0.792   2.063   3.976  1.2363  1.0310  0.2670
17381TIP3   OH273633   5.709   2.545   3.488  0.8302 -0.0890 -0.2125
17381TIP3    H173634   5.691   2.515   3.577 -0.5503  1.9969  0.2908
17381TIP3    H273635   5.641   2.503   3.434  0.5654  0.0224  0.0308
17382TIP3   OH273636   4.869   3.234   0.378 -0.2186  0.2204  0.2173
17382TIP3    H173637   4.799   3.229   0.313 -0.2199  0.8702  0.1591
17382TIP3    H273638   4.945   3.265   0.328 -0.2345  0.7737  0.5298
17383TIP3   OH273639   1.266   1.144   3.574  0.0193 -0.2180 -0.2850
17383TIP3    H173640   1.230   1.194   3.648 -0.0131 -0.6613  0.0096
17383TIP3    H273641   1.245   1.053   3.596  2.4488 -0.6561  0.5609
17384TIP3   OH273642   5.201   5.698   4.470  0.2524 -0.1285 -0.3970
17384TIP3    H173643   5.234   5.679   4.382  0.0297  2.1567 -1.0234
17384TIP3    H273644   5.130   5.761   4.457  0.9482  1.1343  1.4509
17385TIP3   OH273645   2.226   1.250  13.970  0.4505 -0.2780 -0.0517
17385TIP3    H173646   2.166   1.312  14.011 -0.8279 -0.3471 -1.6945
17385TIP3    H273647   2.180   1.166  13.975  0.1371 -0.2455 -1.7473
17386TIP3   OH273648   0.910   0.515  16.709 -0.3436 -0.2798  0.2446
17386TIP3    H173649   0.836   0.492  16.653 -0.0344 -1.3140  0.2371
17386TIP3    H273650   0.901   0.458  16.785 -0.3463  0.5972  0.9113
17387TIP3   OH273651   5.804   3.192   5.038  0.3415  0.2220  0.1470
17387TIP3    H173652   5.812   3.210   5.132  0.1057  1.2996 -0.0265
17387TIP3    H273653   5.850   3.264   4.995 -1.4787  0.9868 -0.6067
17388TIP3   OH273654   6.309   3.342  15.603  0.0230 -0.1331  0.3340
17388TIP3    H173655   6.235   3.400  15.619 -0.1232  0.0701 -1.0078
17388TIP3    H273656   6.329   3.305  15.689 -1.2833  0.2241  0.8160
17389TIP3   OH273657   3.550   2.731   3.684  0.0674  0.0587 -0.0731
17389TIP3    H173658   3.546   2.777   3.767  0.0023 -1.7103  0.9511
17389TIP3    H273659   3.643   2.729   3.662  0.0315  1.0556 -0.3868
17390TIP3   OH273660   6.064   2.028   5.814  0.1276  0.1587  0.1696
17390TIP3    H173661   6.015   2.107   5.838  0.5396  0.2007  0.9141
17390TIP3    H273662   6.106   2.050   5.731  0.9810  1.0659  0.8243
17391TIP3   OH273663   3.711   6.053   4.084 -0.1182 -0.5262  0.0826
17391TIP3    H173664   3.775   6.057   4.155 -2.3194 -2.3082  2.3338
17391TIP3    H273665   3.650   6.124   4.102  0.5550  0.5301 -1.4927
17392TIP3   OH273666   1.477   0.892   0.552  0.3428 -0.1459 -0.6097
17392TIP3    H173667   1.435   0.932   0.628  0.4450 -0.3384 -0.4508
17392TIP3    H273668   1.418   0.820   0.527  0.4076 -0.2049 -0.5933
17393TIP3   OH273669   1.263   5.773  12.790 -0.5233  0.1116  0.5218
17393TIP3    H173670   1.231   5.695  12.744 -0.6714  0.5002 -0.0347
17393TIP3    H273671   1.319   5.817  12.727  1.8766 -1.0070  1.7533
17394TIP3   OH273672   5.363   1.525   4.439 -0.2789 -0.0426 -0.2280
17394TIP3    H173673   5.326   1.612   4.448 -0.8812 -0.1911 -1.0527
17394TIP3    H273674   5.373   1.513   4.344  0.6250 -0.5309 -0.0831
17395TIP3   OH273675   0.473   0.032  15.205 -0.2373 -1.0222 -0.9111
17395TIP3    H173676   0.436  -0.024  15.137  0.4146 -0.6011 -1.6260
17395TIP3    H273677   0.455   0.122  15.175 -0.6385 -0.8351 -0.1340
17396TIP3   OH273678   2.022   6.181   4.594  0.0855  0.3617  0.1740
17396TIP3    H173679   1.978   6.264   4.577  0.3472  0.6391  0.7956
17396TIP3    H273680   2.033   6.141   4.508  0.4509  1.2232 -0.1879
17397TIP3   OH273681   3.188   1.514  15.897 -0.1232  0.0152 -0.0919
17397TIP3    H173682   3.243   1.533  15.821  0.8112 -0.9622  0.3030
17397TIP3    H273683   3.236   1.446  15.944 -0.5727  0.7587  1.5027
17398TIP3   OH273684   3.553   5.243  11.459 -0.2633  0.4009  0.2259
17398TIP3    H173685   3.467   5.238  11.500  0.2618 -1.4543  1.2110
17398TIP3    H273686   3.557   5.165  11.403  0.5411  0.8023 -0.2872
17399TIP3   OH273687   0.999   3.776  12.263  0.1451  0.0755  0.0634
17399TIP3    H173688   1.067   3.840  12.242 -2.2135  2.9384  0.5316
17399TIP3    H273689   1.020   3.748  12.352 -0.4807  2.7376  1.1396
17400TIP3   OH273690   3.018   2.619  15.403  0.0771 -0.1628  0.0605
17400TIP3    H173691   2.989   2.592  15.490  0.1880 -2.8683 -0.6610
17400TIP3    H273692   3.106   2.584  15.394 -0.0232 -0.1572 -1.2333
17401TIP3   OH273693   3.653   4.050  12.784  0.4539  0.3386  0.1530
17401TIP3    H173694   3.625   3.965  12.749 -0.3208 -0.5401  2.6525
17401TIP3    H273695   3.652   4.109  12.708 -1.1962 -1.3512 -1.2551
17402TIP3   OH273696   5.479   0.112  12.369 -0.1505  0.5447 -0.4234
17402TIP3    H173697   5.525   0.094  12.287  0.1177 -4.4074  0.4713
17402TIP3    H273698   5.545   0.151  12.426  1.6145 -1.7974 -0.7306
17403TIP3   OH273699   6.534   4.600  14.915  0.1011  0.3300  0.1992
17403TIP3    H173700   6.473   4.657  14.869 -0.7364 -0.9065 -0.2870
17403TIP3    H273701   6.582   4.658  14.975 -1.3904  1.3691  0.4300
17404TIP3   OH273702   6.110   4.859   4.945  0.4291  0.3260  0.4555
17404TIP3    H173703   6.164   4.839   5.022  1.0584  0.1817 -0.0115
17404TIP3    H273704   6.165   4.833   4.870 -0.6856 -0.7889 -0.0111
17405TIP3   OH273705   5.438   1.016  15.276  0.9193  0.8902  0.3833
17405TIP3    H173706   5.357   1.066  15.277  0.7819  0.6656  1.5000
17405TIP3    H273707   5.442   0.978  15.188 -0.8040 -0.1085  0.6970
17406TIP3   OH273708   0.640   3.786  16.852  0.3638 -0.8003  0.4412
17406TIP3    H173709   0.594   3.761  16.772  0.5840  0.1062  0.0161
17406TIP3    H273710   0.728   3.809  16.823  0.0119  1.0720  0.6734
17407TIP3   OH273711   1.325   3.833   5.010 -0.1790  0.2928  0.0233
17407TIP3    H173712   1.232   3.843   5.029 -0.2228 -0.1419  0.0325
17407TIP3    H273713   1.329   3.769   4.939  0.0210  1.4054 -1.0219
17408TIP3   OH273714   5.007   4.891   2.758  0.0059 -0.1711  0.4309
17408TIP3    H173715   5.085   4.842   2.783 -0.1524  0.0156  1.3210
17408TIP3    H273716   4.969   4.920   2.841 -0.1538  1.0776 -0.0505
17409TIP3   OH273717   2.989   1.493   1.161 -0.3909  0.5460  0.3630
17409TIP3    H173718   3.045   1.421   1.133 -0.6736  0.2044  0.6606
17409TIP3    H273719   2.992   1.556   1.090  2.4682  1.7508  1.4277
17410TIP3   OH273720   3.612   2.106  13.326  0.0485  0.4154  0.1485
17410TIP3    H173721   3.589   2.190  13.286  0.1998 -0.4086 -1.7800
17410TIP3    H273722   3.543   2.046  13.299  0.0903 -0.1833  1.2780
17411TIP3   OH273723   3.671   6.227   5.845  0.3760  0.0888  0.2676
17411TIP3    H173724   3.687   6.177   5.765  0.0172  0.1650  0.1440
17411TIP3    H273725   3.757   6.237   5.885  0.6044  0.3056 -0.2605
17412TIP3   OH273726   6.541   3.665  12.912 -0.0492  0.0411 -0.4635
17412TIP3    H173727   6.573   3.741  12.863  0.3637  0.2290  0.0826
17412TIP3    H273728   6.472   3.627  12.857  0.3162  0.3235 -1.1220
17413TIP3   OH273729   1.418   4.906   3.362 -0.1571 -0.2824  0.7348
17413TIP3    H173730   1.431   4.911   3.267  2.0920  1.6628  1.0500
17413TIP3    H273731   1.453   4.820   3.386  0.8879 -0.0797 -0.0050
17414TIP3   OH273732   5.023   5.895  12.833 -0.7008  0.2042 -0.1287
17414TIP3    H173733   4.959   5.877  12.902 -0.8807  0.1765 -0.3032
17414TIP3    H273734   5.059   5.809  12.811 -0.7532  0.1964 -0.1802
17415TIP3   OH273735   4.379   6.017   1.753 -0.4996 -0.5050  0.3770
17415TIP3    H173736   4.430   5.937   1.767  1.4989  0.4433 -1.0175
17415TIP3    H273737   4.377   6.028   1.658 -0.3674  1.2821  0.5487
17416TIP3   OH273738   4.159   2.996  13.824 -0.2923  0.2758  0.2596
17416TIP3    H173739   4.106   2.941  13.881  0.3674 -0.7240 -0.0760
17416TIP3    H273740   4.238   3.014  13.875 -0.6119  1.1453  0.4688
17417TIP3   OH273741   6.691   3.877   2.478  0.3117  0.5708  0.3738
17417TIP3    H173742   6.684   3.964   2.518 -0.3403  0.4510  0.5356
17417TIP3    H273743   6.600   3.849   2.464  0.4154 -1.0321  2.4179
17418TIP3   OH273744   2.937   6.170  14.432  0.0871 -0.3262 -0.1063
17418TIP3    H173745   2.875   6.237  14.402 -1.1891 -1.9590 -1.3246
17418TIP3    H273746   2.933   6.175  14.527 -0.7005  0.6687 -0.1661
17419TIP3   OH273747   2.480   1.593   3.891 -0.5713  0.1379 -0.1460
17419TIP3    H173748   2.568   1.625   3.908 -0.1198 -0.9269 -0.3795
17419TIP3    H273749   2.481   1.502   3.919 -1.3848 -0.1013 -0.8176
17420TIP3   OH273750   5.910   0.764  10.725 -0.1233 -1.0201 -0.0682
17420TIP3    H173751   5.913   0.673  10.755  1.0338 -0.7958  0.5362
17420TIP3    H273752   5.856   0.761  10.646  0.9464 -2.4463 -0.7925
17421TIP3   OH273753   1.960   5.924  14.280 -0.1163 -0.3141  0.0868
17421TIP3    H173754   1.981   6.001  14.227 -1.1027  0.2542  0.5038
17421TIP3    H273755   1.889   5.952  14.338  1.1233 -0.8167  1.9450
17422TIP3   OH273756   1.814   1.500  16.899  0.1346 -0.1470  0.0309
17422TIP3    H173757   1.827   1.561  16.826  0.3587 -0.0538  0.1481
17422TIP3    H273758   1.720   1.484  16.899  0.1194 -0.0719 -0.2200
17423TIP3   OH273759   6.188   6.214   6.097  0.4520  0.4972 -0.1743
17423TIP3    H173760   6.252   6.233   6.165  1.3738 -0.9416 -0.5923
17423TIP3    H273761   6.103   6.224   6.140  0.9669 -2.9971  2.0824
17424TIP3   OH273762   3.770   1.502  14.140  0.4539 -0.1225 -0.1146
17424TIP3    H173763   3.760   1.554  14.061  0.0953 -0.9041 -0.5841
17424TIP3    H273764   3.695   1.443  14.141  0.6517 -0.3791  0.6118
17425TIP3   OH273765   5.564   3.309   0.654 -0.5216  0.3284 -0.8182
17425TIP3    H173766   5.504   3.285   0.584 -1.2686 -1.5581  0.3758
17425TIP3    H273767   5.509   3.357   0.717 -0.1479  0.9123 -0.9291
17426TIP3   OH273768   2.874   3.676   3.285  0.4590  0.3295  0.8183
17426TIP3    H173769   2.958   3.661   3.329  0.2064  0.7249  1.4545
17426TIP3    H273770   2.809   3.655   3.352  0.0152 -1.2414 -0.0625
17427TIP3   OH273771   2.301   5.470   3.601  0.1935 -0.5267  0.5654
17427TIP3    H173772   2.346   5.555   3.606 -0.4545 -0.2207  1.3296
17427TIP3    H273773   2.372   5.407   3.588  0.6045  0.2193 -1.0743
17428TIP3   OH273774   4.417   2.549   0.477 -0.7204 -0.5697 -0.0874
17428TIP3    H173775   4.440   2.456   0.479 -0.2508 -0.4703 -0.7364
17428TIP3    H273776   4.491   2.592   0.435 -0.7200  0.1701  0.6523
17429TIP3   OH273777   2.118   6.142  12.554  0.0315 -0.2071  0.0349
17429TIP3    H173778   2.209   6.173  12.562 -0.4407  1.2147  0.2506
17429TIP3    H273779   2.066   6.209  12.599 -1.1862 -0.7069 -0.5824
17430TIP3   OH273780   1.034   1.246   3.707 -0.1301 -0.4454  0.2722
17430TIP3    H173781   1.012   1.262   3.798  0.6167  1.3348  0.1873
17430TIP3    H273782   0.972   1.179   3.678  0.0337 -1.4953  2.2304
17431TIP3   OH273783   4.056   2.035  15.057  0.1069 -0.0659 -0.1581
17431TIP3    H173784   4.027   1.944  15.051  0.2584 -0.6141  4.1030
17431TIP3    H273785   4.131   2.032  15.117  1.8950  2.6340 -2.0226
17432TIP3   OH273786   2.041   4.832   5.505  0.4677 -0.2604  0.8091
17432TIP3    H173787   2.090   4.765   5.457  1.2912  0.7059  0.2381
17432TIP3    H273788   2.102   4.862   5.573 -0.3013 -0.8606  1.7903
17433TIP3   OH273789   4.214   4.588  12.035  0.0237  0.0364  0.0444
17433TIP3    H173790   4.250   4.673  12.060  0.1662  0.4176 -1.3587
17433TIP3    H273791   4.277   4.552  11.973 -1.1550 -0.0436 -1.1597
17434TIP3   OH273792   6.474   4.436   1.126 -0.3823  0.0619  0.5937
17434TIP3    H173793   6.467   4.369   1.058  0.1696  0.1755  0.4205
17434TIP3    H273794   6.389   4.434   1.171 -0.8880  0.2456 -0.3336
17435TIP3   OH273795   4.491   1.699   0.067  0.0994  0.0615  0.1978
17435TIP3    H173796   4.472   1.776   0.014  2.0361  0.4420 -0.0322
17435TIP3    H273797   4.563   1.727   0.124  0.6683 -1.4982  0.2790
17436TIP3   OH273798   6.287   5.903  16.827 -0.0958  0.2143  0.3864
17436TIP3    H173799   6.242   5.987  16.821  0.0582  0.3384  0.9051
17436TIP3    H273800   6.331   5.894  16.743 -3.2412 -1.1806 -1.2652
17437TIP3   OH273801   4.422   1.172  16.901  0.0959  0.4050  0.0047
17437TIP3    H173802   4.437   1.212  16.815 -1.4072  0.9860 -0.0221
17437TIP3    H273803   4.403   1.247  16.958 -2.8143 -0.1784 -0.0499
17438TIP3   OH273804   5.953   2.880   3.013  0.4529  0.7805  0.1612
17438TIP3    H173805   5.872   2.863   3.062  0.5687  1.6807  0.7037
17438TIP3    H273806   5.924   2.890   2.922 -0.1320  1.6016  0.4251
17439TIP3   OH273807   5.190   2.166  14.366  0.1424  0.2170 -0.2688
17439TIP3    H173808   5.203   2.255  14.398 -1.5655  0.4519 -0.1248
17439TIP3    H273809   5.278   2.129  14.361  0.7281  1.2028  1.7203
17440TIP3   OH273810   3.972   0.117  15.189  0.1691  0.1820 -0.4608
17440TIP3    H173811   3.960   0.166  15.108 -1.3209  0.5150 -0.0741
17440TIP3    H273812   4.041   0.164  15.236 -0.3350  1.1657 -0.6696
17441TIP3   OH273813   4.143   6.247  16.290 -0.3260 -0.3415 -0.0566
17441TIP3    H173814   4.099   6.295  16.360 -1.2071 -0.8894 -0.2222
17441TIP3    H273815   4.141   6.307  16.215 -1.6286 -0.7010 -0.3324
17442TIP3   OH273816   5.373   6.404  17.174 -0.3456 -0.0377 -0.4667
17442TIP3    H173817   5.409   6.462  17.107 -2.5595  0.3748 -1.3920
17442TIP3    H273818   5.410   6.437  17.256 -0.4457  1.8123 -1.1099
17443TIP3   OH273819   6.509   5.159   0.196  0.3356 -0.6321 -0.2987
17443TIP3    H173820   6.556   5.237   0.224  0.3462 -0.2047 -1.4505
17443TIP3    H273821   6.488   5.113   0.278  0.9417  0.2075  0.3504
17444TIP3   OH273822   5.477   0.637   2.138 -0.0401 -0.1540 -0.2355
17444TIP3    H173823   5.414   0.573   2.104  0.3153 -0.2404 -0.7452
17444TIP3    H273824   5.443   0.722   2.110 -0.2896 -0.1514  0.0769
17445TIP3   OH273825   4.523   5.676   5.490  0.0516 -0.1679  0.2479
17445TIP3    H173826   4.553   5.639   5.573  0.1380  0.5556  0.5428
17445TIP3    H273827   4.591   5.651   5.427 -0.1337 -0.9227  0.3364
17446TIP3   OH273828   0.346   6.171  13.801  0.0850  0.5991  0.2670
17446TIP3    H173829   0.311   6.137  13.718 -1.1970  2.5345 -0.0425
17446TIP3    H273830   0.417   6.230  13.775  1.1287 -0.4102  0.7100
17447TIP3   OH273831   1.310   4.234   0.582  0.2084 -0.6249  0.2657
17447TIP3    H173832   1.322   4.142   0.559  0.7324 -0.4252 -0.2802
17447TIP3    H273833   1.352   4.283   0.512 -1.2485  0.0685 -0.1729
17448TIP3   OH273834   2.623   2.055  14.286 -0.5409  0.2436 -0.2358
17448TIP3    H173835   2.575   2.116  14.230  0.1448 -0.2801 -1.4294
17448TIP3    H273836   2.558   1.988  14.308 -1.0576  0.9267  0.3620
17449TIP3   OH273837   3.969   5.073   3.739 -0.2117 -0.7259  0.3025
17449TIP3    H173838   3.943   5.147   3.683  0.0949  0.0110  1.1039
17449TIP3    H273839   3.902   5.071   3.808  0.0499 -0.8896  0.5545
17450TIP3   OH273840   3.541   6.678   2.510  0.5013  0.1978  0.1264
17450TIP3    H173841   3.500   6.712   2.590 -0.5151 -1.5379  0.3939
17450TIP3    H273842   3.489   6.716   2.439 -0.6346 -0.7260  0.4213
17451TIP3   OH273843   4.370   4.593   2.973  0.0001  0.1384 -0.1630
17451TIP3    H173844   4.399   4.597   3.065 -1.0734 -1.6821  0.3031
17451TIP3    H273845   4.283   4.632   2.974 -0.3847 -0.6981 -0.2110
17452TIP3   OH273846   1.997   1.624   4.550  0.4617  0.1588 -0.1477
17452TIP3    H173847   2.047   1.641   4.470 -0.1787  0.4218 -0.5014
17452TIP3    H273848   2.063   1.616   4.618  0.9616  1.0573 -0.5057
17453TIP3   OH273849   1.683   2.620  11.576  0.0075  0.6653 -0.2626
17453TIP3    H173850   1.605   2.674  11.587 -0.2738  0.1785  0.2284
17453TIP3    H273851   1.756   2.682  11.575 -0.2973  1.0506  0.4252
17454TIP3   OH273852   5.450   1.048   2.604  0.0578  0.9681 -0.2737
17454TIP3    H173853   5.452   1.094   2.519 -0.8886  0.1977 -0.7234
17454TIP3    H273854   5.431   1.117   2.667 -1.8227  1.1678 -0.9929
17455TIP3   OH273855   4.829   1.507  11.692  0.3210 -0.6733  0.3017
17455TIP3    H173856   4.764   1.543  11.753  0.1037  0.1676 -0.3993
17455TIP3    H273857   4.913   1.529  11.732  0.1760 -0.7308  0.6406
17456TIP3   OH273858   4.274   2.964   4.082  0.0722  0.3590  0.2708
17456TIP3    H173859   4.345   3.013   4.125  0.3804  0.3590 -0.2347
17456TIP3    H273860   4.202   3.027   4.076  0.2427  0.5500  0.2163
17457TIP3   OH273861   0.688   1.260  16.557  0.2961 -0.4489 -0.2952
17457TIP3    H173862   0.679   1.351  16.530 -0.0005 -0.3531  0.1081
17457TIP3    H273863   0.675   1.209  16.477  2.7733 -0.0754 -1.0172
17458TIP3   OH273864   2.614   1.126   5.558 -0.6278 -0.2830  0.2243
17458TIP3    H173865   2.689   1.185   5.557 -0.7584 -0.1073  0.6275
17458TIP3    H273866   2.542   1.179   5.523 -0.7735 -0.1619  0.7034
17459TIP3   OH273867   5.917   6.667  12.962  0.2897  0.1311 -0.0056
17459TIP3    H173868   5.924   6.603  12.891  0.2422  0.4420 -0.2927
17459TIP3    H273869   5.983   6.639  13.025 -0.9985 -1.3144  0.7655
17460TIP3   OH273870   2.060   0.979  13.448  0.2147  0.0128  0.7486
17460TIP3    H173871   2.053   1.023  13.363  0.9847 -0.3692  0.4683
17460TIP3    H273872   1.977   0.996  13.492  0.2353  1.1462  0.3642
17461TIP3   OH273873   4.812   2.371  14.376 -0.4770  0.1926 -0.0814
17461TIP3    H173874   4.717   2.364  14.364 -0.5055  0.2080  0.1259
17461TIP3    H273875   4.829   2.466  14.377 -0.4962  0.1949  0.1484
17462TIP3   OH273876   2.331   2.221  15.871  0.4023 -0.3572  0.4949
17462TIP3    H173877   2.351   2.128  15.865  0.3217 -0.3157 -0.8949
17462TIP3    H273878   2.257   2.233  15.811  2.3805  1.1054 -1.8504
17463TIP3   OH273879   3.618   6.256   2.214 -0.8858  0.1180 -0.1676
17463TIP3    H173880   3.524   6.246   2.225 -1.0324 -0.5367 -1.8496
17463TIP3    H273881   3.651   6.167   2.203  0.0443  0.2820  1.0853
17464TIP3   OH273882   5.823   6.162  14.145 -0.2816 -0.1596  0.1700
17464TIP3    H173883   5.854   6.122  14.226  1.1501 -0.3943 -0.4735
17464TIP3    H273884   5.733   6.130  14.135  0.1152 -1.5116  0.7729
17465TIP3   OH273885   1.084   3.296   5.487  0.1564 -0.4867  0.6368
17465TIP3    H173886   1.098   3.381   5.447 -1.7819 -1.5760 -2.7381
17465TIP3    H273887   0.992   3.298   5.515  0.2601 -1.2802  1.0739
17466TIP3   OH273888   4.527   0.682   3.126  0.0960  0.3932  0.0653
17466TIP3    H173889   4.486   0.742   3.063 -0.1268  0.0827 -0.0873
17466TIP3    H273890   4.469   0.606   3.128  0.1793  0.3400  0.5431
17467TIP3   OH273891   5.915   0.997  16.347  0.2353  0.1817 -0.1157
17467TIP3    H173892   5.832   0.978  16.391  0.4380  0.6540  0.4838
17467TIP3    H273893   5.982   0.972  16.411  0.5699 -0.4188 -0.6798
17468TIP3   OH273894   5.827   1.008  12.125 -0.1289 -0.5880 -0.4266
17468TIP3    H173895   5.785   1.060  12.194 -0.5347 -0.5461 -0.7001
17468TIP3    H273896   5.780   1.032  12.045 -1.4060 -2.5624 -0.3197
17469TIP3   OH273897   1.032   4.659   5.244  0.2766  0.3021 -0.3755
17469TIP3    H173898   0.972   4.596   5.206 -0.8434  1.4493 -0.5709
17469TIP3    H273899   1.082   4.693   5.170 -0.1768  0.7395 -0.4818
17470TIP3   OH273900   1.039   5.298   5.178 -0.2562 -0.3114  0.0046
17470TIP3    H173901   1.025   5.377   5.127 -1.4716 -0.1365  0.5811
17470TIP3    H273902   1.021   5.226   5.117  0.1220 -0.1478 -0.3075
17471TIP3   OH273903   2.195   6.768   6.496  0.5844 -0.2028 -0.2145
17471TIP3    H173904   2.225   6.690   6.542 -0.7457  0.0790  1.2268
17471TIP3    H273905   2.100   6.766   6.505  0.4500  0.9695 -1.1742
17472TIP3   OH273906   6.751   0.348   5.900  0.1024  0.4530  0.1998
17472TIP3    H173907   6.713   0.275   5.950  1.2420 -0.1933  0.1660
17472TIP3    H273908   6.681   0.413   5.896 -2.0152 -1.7194 -2.1925
17473TIP3   OH273909   4.744   0.927   1.833  0.5825 -0.3454 -1.1069
17473TIP3    H173910   4.677   0.989   1.802  1.3537  0.4141 -1.2759
17473TIP3    H273911   4.735   0.928   1.929  0.9134  0.4047 -1.0778
17474TIP3   OH273912   0.241   5.832  15.554 -0.1787  0.0665 -0.3241
17474TIP3    H173913   0.179   5.869  15.618 -0.0076 -0.9187  0.4383
17474TIP3    H273914   0.218   5.875  15.472 -2.1489 -0.5566 -0.1493
17475TIP3   OH273915   4.454   1.031  13.879 -0.2440  0.4921  0.2509
17475TIP3    H173916   4.546   1.047  13.900 -0.0985  0.9843 -0.6918
17475TIP3    H273917   4.409   1.111  13.906 -0.2539  0.6014 -0.0816
17476TIP3   OH273918   5.919   4.357  17.091  0.0704  0.6822 -0.4590
17476TIP3    H173919   5.918   4.345  16.996 -0.0434  2.1744 -0.6822
17476TIP3    H273920   5.876   4.279  17.126 -2.3592  1.3048 -1.7961
17477TIP3   OH273921   3.068   0.954  14.239 -0.0507  0.3681 -0.9004
17477TIP3    H173922   3.072   0.864  14.206  2.0624 -0.5860  1.6026
17477TIP3    H273923   3.126   1.003  14.180  1.1668 -0.6183 -0.5763
17478TIP3   OH273924   4.811   5.783  14.525  0.3096 -0.2500  0.1221
17478TIP3    H173925   4.815   5.804  14.432  0.9698  0.5248  0.3182
17478TIP3    H273926   4.752   5.848  14.562  0.6577 -0.0785  0.3771
17479TIP3   OH273927   2.545   2.192   5.695  0.0317 -0.1963  0.3176
17479TIP3    H173928   2.559   2.286   5.704 -0.8725 -0.0815  0.6300
17479TIP3    H273929   2.622   2.152   5.736  1.8111  0.3759 -2.2400
17480TIP3   OH273930   6.108   4.741   5.246  0.0097  0.2209 -0.1198
17480TIP3    H173931   6.170   4.792   5.193  0.8119 -1.2410 -0.6588
17480TIP3    H273932   6.148   4.736   5.333 -0.2192  0.7651  0.0162
17481TIP3   OH273933   5.472   4.632   2.607  0.1217 -0.1232  0.5558
17481TIP3    H173934   5.476   4.725   2.626  0.6929 -0.1993  0.8186
17481TIP3    H273935   5.563   4.605   2.596 -0.1047 -0.3505 -1.0316
17482TIP3   OH273936   4.804   3.832   5.899 -0.9435 -0.1297  0.2395
17482TIP3    H173937   4.897   3.845   5.879 -0.5748 -2.1953  0.3595
17482TIP3    H273938   4.785   3.897   5.967  0.4199  0.2969  0.2550
17483TIP3   OH273939   6.217   4.579  16.523  0.5045  0.3744 -0.4679
17483TIP3    H173940   6.219   4.525  16.602 -1.4022 -0.1143 -0.7015
17483TIP3    H273941   6.294   4.552  16.474 -0.2081 -1.9918 -0.4293
17484TIP3   OH273942   4.899   6.779   1.390  0.1222  0.0377  0.4016
17484TIP3    H173943   4.897   6.736   1.476  0.8354  0.3224  0.5580
17484TIP3    H273944   4.989   6.768   1.359 -0.3234 -0.8110 -0.6983
17485TIP3   OH273945   0.880   2.500  11.107  0.1735 -0.1009 -0.3144
17485TIP3    H173946   0.875   2.470  11.016 -2.2345 -0.0810 -0.2692
17485TIP3    H273947   0.824   2.439  11.155 -1.7759  2.0815  0.4338
17486TIP3   OH273948   6.038   4.113   3.876 -0.1229 -0.2326  0.3070
17486TIP3    H173949   6.133   4.108   3.889 -0.2285  0.0453  1.2366
17486TIP3    H273950   6.025   4.194   3.827  0.1808 -0.6821 -0.5373
17487TIP3   OH273951   3.211   2.034   1.559  0.1034  0.4019 -0.2592
17487TIP3    H173952   3.221   2.116   1.607 -1.9138  0.0069  0.9213
17487TIP3    H273953   3.283   2.034   1.496  1.9719  1.6413  1.7494
17488TIP3   OH273954   4.240   0.970  16.914 -0.1539  0.3001  0.2977
17488TIP3    H173955   4.278   1.057  16.930 -0.2614  0.2131  1.0522
17488TIP3    H273956   4.216   0.938  17.000  1.1210 -1.0635  0.1887
17489TIP3   OH273957   3.775   1.577  11.342  0.2063  0.0224  0.2323
17489TIP3    H173958   3.740   1.638  11.406  1.0343 -0.0412  0.7580
17489TIP3    H273959   3.728   1.597  11.261  0.1901  1.0877  0.4968
17490TIP3   OH273960   2.668   0.999  16.064 -0.2379  0.2701 -0.5034
17490TIP3    H173961   2.589   0.961  16.027  1.1200 -1.4627 -1.7863
17490TIP3    H273962   2.689   0.943  16.139  0.6386 -0.3238 -1.1635
17491TIP3   OH273963   6.113   3.237   3.573  0.0932  0.4688 -0.1926
17491TIP3    H173964   6.051   3.188   3.518 -0.1218 -1.2903  1.5156
17491TIP3    H273965   6.174   3.277   3.511 -0.8669 -0.4054 -1.7637
17492TIP3   OH273966   3.321   3.196   0.268  0.2272  0.3131 -0.7396
17492TIP3    H173967   3.272   3.129   0.316  0.3219  0.3188 -0.6343
17492TIP3    H273968   3.309   3.174   0.176 -0.5779  0.7375 -0.7415
17493TIP3   OH273969   3.691   5.448   0.166 -0.9204  0.5128 -0.4839
17493TIP3    H173970   3.597   5.460   0.176 -0.6473  0.8185  2.5639
17493TIP3    H273971   3.728   5.536   0.176 -0.2625  0.3212 -1.1374
17494TIP3   OH273972   6.029   5.843   2.128 -0.3877 -0.1307 -0.4265
17494TIP3    H173973   5.977   5.769   2.098 -1.4441  0.7490 -0.8607
17494TIP3    H273974   5.975   5.920   2.107 -0.2315  0.6668  1.7890
17495TIP3   OH273975   4.748   5.559  16.890  0.4474  0.4854 -0.4604
17495TIP3    H173976   4.823   5.610  16.920  1.3692 -0.4159 -1.1742
17495TIP3    H273977   4.766   5.541  16.798  0.1121 -1.0202 -0.2707
17496TIP3   OH273978   1.049   1.235  16.053 -0.4348 -0.1176  0.0701
17496TIP3    H173979   1.011   1.225  16.140  2.1677 -2.2315  1.0743
17496TIP3    H273980   1.026   1.325  16.028 -0.4917  0.9045  3.3110
17497TIP3   OH273981   6.709   6.797   0.171 -0.0144  0.6448 -0.7009
17497TIP3    H173982   6.756   6.857   0.228  0.7510  1.3200 -1.9848
17497TIP3    H273983   6.624   6.840   0.157 -0.7725 -0.2071  1.0050
17498TIP3   OH273984   3.636   1.943   3.663 -0.1876  0.0396 -0.2697
17498TIP3    H173985   3.685   1.976   3.739 -0.2958  0.6443 -0.4585
17498TIP3    H273986   3.565   2.005   3.651 -0.3629 -0.2336 -0.6719
17499TIP3   OH273987   0.526   5.163  13.844 -0.2238 -0.0491  0.4041
17499TIP3    H173988   0.519   5.068  13.857  2.3855 -0.3196  0.5026
17499TIP3    H273989   0.522   5.174  13.749  0.5501 -0.4122  0.3192
17500TIP3   OH273990   6.182   6.794   3.317  0.2358  0.0609 -0.3588
17500TIP3    H173991   6.104   6.766   3.366  1.5029 -1.1224  1.1041
17500TIP3    H273992   6.194   6.726   3.251 -0.9533  1.1892 -1.8133
17501TIP3   OH273993   6.327   1.414   1.526 -0.4072 -0.7744 -0.2068
17501TIP3    H173994   6.314   1.433   1.433 -2.0476  0.3720  0.2179
17501TIP3    H273995   6.392   1.478   1.555 -0.3778 -0.7066 -0.4205
17502TIP3   OH273996   0.686   6.556   1.748 -0.0879  0.2276  0.2793
17502TIP3    H173997   0.647   6.469   1.760  0.0221 -0.0379 -1.1294
17502TIP3    H273998   0.613   6.616   1.758 -0.5805 -0.1711 -0.7845
17503TIP3   OH273999   4.096   6.029   2.322 -0.1090  0.0257 -0.5306
17503TIP3    H174000   4.081   6.090   2.250 -0.1714  0.3191 -0.2650
17503TIP3    H274001   4.051   6.067   2.397 -0.1798 -0.3625 -0.3742
17504TIP3   OH274002   4.162   6.578  16.235 -0.0626 -0.1702  0.3124
17504TIP3    H174003   4.094   6.636  16.268  1.1792  0.5831  1.6152
17504TIP3    H274004   4.135   6.558  16.145 -1.0110  1.6427  0.1549
17505TIP3   OH274005   6.327   4.419  10.820  0.3122 -0.4717 -0.7188
17505TIP3    H174006   6.421   4.414  10.836 -0.0567 -2.0506  1.3646
17505TIP3    H274007   6.316   4.388  10.731  1.6553 -1.8323 -0.4445
17506TIP3   OH274008   4.261   5.610  16.086 -0.3031  0.7263  0.2401
17506TIP3    H174009   4.168   5.594  16.098 -0.2475  0.0846 -0.1202
17506TIP3    H274010   4.296   5.613  16.175 -0.4517 -0.4693  0.3608
17507TIP3   OH274011   0.550   5.722   3.023  0.1337  0.1233 -0.1612
17507TIP3    H174012   0.589   5.658   3.082  0.9450  0.9158  0.1836
17507TIP3    H274013   0.521   5.793   3.081  2.0165  1.4622 -0.7764
17508TIP3   OH274014   4.650   5.938  15.500 -0.2128 -0.6619  0.0794
17508TIP3    H174015   4.598   5.860  15.524 -1.4507 -0.1033 -0.6818
17508TIP3    H274016   4.622   6.004  15.563 -1.6078  0.0797 -1.2444
17509TIP3   OH274017   4.218   0.802   6.335  0.1451 -0.3160 -0.2617
17509TIP3    H174018   4.265   0.806   6.252 -1.9212 -1.2447 -1.5765
17509TIP3    H274019   4.219   0.709   6.359 -2.4958 -0.7266 -1.3520
17510TIP3   OH274020   2.197   4.610   0.565 -0.5424 -0.3765 -0.5673
17510TIP3    H174021   2.172   4.518   0.577 -0.3783 -0.3649 -0.1306
17510TIP3    H274022   2.172   4.630   0.475  2.5515 -1.8641 -1.8776
17511TIP3   OH274023   1.595   5.087   3.422 -0.0131 -0.1922  0.1703
17511TIP3    H174024   1.511   5.045   3.404  0.1536 -0.0728 -0.9487
17511TIP3    H274025   1.650   5.065   3.346  1.0451 -0.4617  0.9827
17512TIP3   OH274026   2.066   3.180  12.186  0.8097 -0.1978 -0.5753
17512TIP3    H174027   2.020   3.125  12.123  1.2058 -1.7084  0.4110
17512TIP3    H274028   1.998   3.210  12.246  1.0704 -2.7013  1.0831
17513TIP3   OH274029   0.204   0.372  11.099  0.0161 -0.3308 -0.1028
17513TIP3    H174030   0.168   0.461  11.095  2.3757  0.8035  1.7135
17513TIP3    H274031   0.279   0.374  11.040  1.4661 -0.3461  1.6604
17514TIP3   OH274032   0.409   0.562   1.742  0.1765 -0.1060 -0.2343
17514TIP3    H174033   0.443   0.504   1.674  0.2254  0.3550 -0.6077
17514TIP3    H274034   0.348   0.619   1.697  1.4809  1.3412 -0.2379
17515TIP3   OH274035   2.761   2.842   1.293  0.1730 -0.3759 -0.7188
17515TIP3    H174036   2.753   2.748   1.273 -1.5470 -0.0951 -1.5427
17515TIP3    H274037   2.855   2.860   1.285  0.2870 -1.5348 -3.0385
17516TIP3   OH274038   4.483   3.193   5.583  0.1316  0.8648 -0.8872
17516TIP3    H174039   4.467   3.288   5.585 -1.5318  0.6236 -0.9275
17516TIP3    H274040   4.437   3.163   5.505 -0.2137 -0.0989 -0.3310
17517TIP3   OH274041   5.108   3.341  12.158  0.0067 -0.0356  0.0804
17517TIP3    H174042   5.036   3.372  12.214  0.9429  0.4251  1.0651
17517TIP3    H274043   5.137   3.420  12.111  0.6248  0.0382  0.5696
17518TIP3   OH274044   1.393   2.608  15.099 -0.3448  0.0481  0.6422
17518TIP3    H174045   1.440   2.691  15.101 -0.6085  0.2338  3.4645
17518TIP3    H274046   1.437   2.557  15.031  1.0936  1.7660  0.2117
17519TIP3   OH274047   5.490   4.461  11.555  0.4340  0.3319 -0.1114
17519TIP3    H174048   5.473   4.514  11.476 -0.8551 -0.0729 -0.1254
17519TIP3    H274049   5.575   4.493  11.586  1.5663 -0.2916 -2.3037
17520TIP3   OH274050   3.789   0.138   3.301  0.6496 -0.2149  0.0675
17520TIP3    H174051   3.755   0.082   3.370 -1.8104 -0.2571 -1.0871
17520TIP3    H274052   3.785   0.226   3.338 -1.1861 -0.1725 -0.1630
17521TIP3   OH274053   1.565   5.384  14.128 -0.5883 -0.3496  0.0943
17521TIP3    H174054   1.578   5.305  14.076  0.5628  0.7089 -1.3146
17521TIP3    H274055   1.651   5.401  14.167 -0.7538  0.3721  0.1538
17522TIP3   OH274056   3.367   3.375   4.005 -0.7341 -0.1559  0.0750
17522TIP3    H174057   3.425   3.305   4.033 -0.4686  0.2759  0.6458
17522TIP3    H274058   3.399   3.400   3.918 -0.2287 -0.0989  0.2746
17523TIP3   OH274059   5.906   4.731   5.941  0.0805  0.0599  0.5464
17523TIP3    H174060   5.817   4.759   5.920 -0.0006 -0.0386  0.7545
17523TIP3    H274061   5.962   4.793   5.895 -0.0954  0.1765  0.4876
17524TIP3   OH274062   5.587   6.378  15.511 -0.0310 -0.3820 -0.3861
17524TIP3    H174063   5.521   6.325  15.465 -1.3540  1.2915 -0.5342
17524TIP3    H274064   5.535   6.440  15.562  1.4136 -1.2059  2.2652
17525TIP3   OH274065   0.877   2.018  12.002  0.2796  0.1548  0.1927
17525TIP3    H174066   0.915   2.069  11.931  0.6846 -0.8260 -0.3126
17525TIP3    H274067   0.783   2.034  11.996  0.4131  0.9669  0.1602
17526TIP3   OH274068   3.257   2.833  12.505 -0.0176  0.2955 -0.6877
17526TIP3    H174069   3.225   2.809  12.419 -1.4773  1.9585 -0.6770
17526TIP3    H274070   3.178   2.856  12.555  0.8675  0.3429  0.7556
17527TIP3   OH274071   1.947   0.086   4.157  0.2891 -0.0303 -0.2111
17527TIP3    H174072   2.009   0.084   4.084  0.8200  0.7081  0.2122
17527TIP3    H274073   1.988   0.142   4.222 -1.2980  1.3726 -0.3391
17528TIP3   OH274074   4.212   5.856  15.443  0.0192 -0.6146  0.0048
17528TIP3    H174075   4.228   5.779  15.389  0.5660  0.4053 -1.3326
17528TIP3    H274076   4.223   5.931  15.384  0.0614  0.5249  1.3831
17529TIP3   OH274077   4.424   4.758   0.478  0.6272 -0.1855 -0.1744
17529TIP3    H174078   4.417   4.798   0.565  0.2259 -0.9593  0.1521
17529TIP3    H274079   4.335   4.760   0.443  0.3168 -1.9941  0.3971
17530TIP3   OH274080   0.454   4.395   0.440  0.1787  0.6104 -0.3560
17530TIP3    H174081   0.457   4.461   0.370  0.3076  0.7161 -0.2506
17530TIP3    H274082   0.506   4.433   0.511  1.1299 -0.0500 -0.6858
17531TIP3   OH274083   5.193   0.378   4.248  0.1703  0.0031 -0.5359
17531TIP3    H174084   5.275   0.328   4.241  0.7049  0.7225  0.2434
17531TIP3    H274085   5.174   0.377   4.342 -0.3218  0.4526 -0.6315
17532TIP3   OH274086   2.390   1.445  12.154  0.4274 -0.0829  0.3325
17532TIP3    H174087   2.431   1.461  12.069  2.0603 -1.3634  0.8344
17532TIP3    H274088   2.413   1.355  12.175 -1.4031 -0.3503  1.3785
17533TIP3   OH274089   5.893   0.238   1.244  0.1795 -0.3577 -0.3444
17533TIP3    H174090   5.815   0.292   1.257  1.2456  1.0865  0.3552
17533TIP3    H274091   5.926   0.222   1.332  0.1289 -1.8279 -0.5691
17534TIP3   OH274092   5.897   1.441  15.294 -0.0895  0.6263  0.2215
17534TIP3    H174093   5.929   1.505  15.231  2.9177  0.4361  1.3526
17534TIP3    H274094   5.897   1.358  15.246  2.2067  0.4747  0.3421
17535TIP3   OH274095   3.550   1.200   4.901  0.5376  0.6005  0.0886
17535TIP3    H174096   3.467   1.232   4.934  0.0891  0.4566 -0.8690
17535TIP3    H274097   3.555   1.233   4.811  1.8243  1.1804  0.3361
17536TIP3   OH274098   3.077   0.850   0.924 -0.0307 -0.4731  0.0614
17536TIP3    H174099   3.073   0.781   0.858 -0.6364 -0.3695 -0.0198
17536TIP3    H274100   3.032   0.812   1.000 -1.2932  0.1935 -0.3277
17537TIP3   OH274101   4.027   4.806  12.230 -0.4223  0.3495 -0.0713
17537TIP3    H174102   3.988   4.749  12.297  0.5167  0.1492  0.3182
17537TIP3    H274103   3.952   4.835  12.178 -0.8796 -1.8437 -0.7556
17538TIP3   OH274104   6.673   6.255   5.373 -0.0503 -0.8806 -0.4105
17538TIP3    H174105   6.709   6.343   5.376  0.0279 -0.8470 -1.7163
17538TIP3    H274106   6.590   6.264   5.326  0.6301 -1.6847 -1.8538
17539TIP3   OH274107   3.584   1.382   0.962 -0.0868 -0.0647  0.2480
17539TIP3    H174108   3.584   1.475   0.940 -2.1788  0.2765  1.4794
17539TIP3    H274109   3.595   1.338   0.878 -0.1294  1.2706 -0.4846
17540TIP3   OH274110   6.123   6.528  13.116  0.0142 -0.4082 -0.0385
17540TIP3    H174111   6.177   6.542  13.194 -0.6789 -1.1538  0.6090
17540TIP3    H274112   6.058   6.462  13.144 -1.3119  0.5518 -0.7241
17541TIP3   OH274113   1.911   2.023  12.045  0.4693  0.4680  0.0146
17541TIP3    H174114   1.905   2.068  11.960  2.6840 -0.1696 -0.5437
17541TIP3    H274115   1.922   1.931  12.022  1.2773  0.3112  0.9953
17542TIP3   OH274116   1.063   4.044   1.040 -0.0487 -0.0509 -0.3704
17542TIP3    H174117   1.052   4.011   1.129 -0.5709 -0.0183 -0.4248
17542TIP3    H274118   1.158   4.045   1.027  0.0031 -1.5505 -0.3639
17543TIP3   OH274119   5.773   3.900  12.436  0.0610 -0.1533  0.4465
17543TIP3    H174120   5.860   3.935  12.456  0.2851  0.4384 -1.3703
17543TIP3    H274121   5.784   3.805  12.437  0.9097 -0.0800 -0.4291
17544TIP3   OH274122   5.532   5.041   1.706  0.3160  0.1847  0.4578
17544TIP3    H174123   5.480   4.961   1.702  0.3491  0.1274 -4.0697
17544TIP3    H274124   5.623   5.010   1.706  0.4200  0.3276  2.5770
17545TIP3   OH274125   3.409   1.398  15.324  0.5313 -0.2444 -0.1491
17545TIP3    H174126   3.330   1.387  15.272 -0.4723  2.0084  0.7720
17545TIP3    H274127   3.454   1.473  15.285  0.9550  0.0172  0.7993
17546TIP3   OH274128   3.007   0.585  15.574  0.4552 -0.5992  0.1791
17546TIP3    H174129   3.075   0.539  15.524  0.5305  0.8533 -1.1316
17546TIP3    H274130   3.055   0.654  15.621 -0.1667  1.1056 -1.5713
17547TIP3   OH274131   6.686   2.664   3.316  0.4512 -0.2395  0.9173
17547TIP3    H174132   6.662   2.728   3.248 -0.0025  1.6955  2.7645
17547TIP3    H274133   6.610   2.607   3.323  1.5575 -2.2551 -2.0161
17548TIP3   OH274134   6.397   3.751   6.431  0.5695  0.4615 -0.4004
17548TIP3    H174135   6.434   3.712   6.352  2.1731  0.8464  0.1228
17548TIP3    H274136   6.440   3.704   6.503 -1.3531 -0.3565  0.2919
17549TIP3   OH274137   3.575   1.592   2.470 -0.8374  0.0556 -0.1671
17549TIP3    H174138   3.670   1.598   2.479 -0.8756  1.2376 -0.4793
17549TIP3    H274139   3.561   1.563   2.380 -0.7951  0.7206 -0.3877
17550TIP3   OH274140   5.937   6.210   1.617 -0.2936  0.0689  0.2069
17550TIP3    H174141   6.007   6.260   1.575 -1.8790  1.5834 -0.7566
17550TIP3    H274142   5.894   6.273   1.675  0.3868 -1.3926  2.4303
17551TIP3   OH274143   1.121   2.408   1.978 -0.0683 -0.3635 -0.1303
17551TIP3    H174144   1.087   2.433   2.064 -0.7047 -0.6126 -0.3056
17551TIP3    H274145   1.071   2.330   1.954  0.7165 -0.8118 -0.3421
17552TIP3   OH274146   4.246   6.622  16.731 -0.1844  0.0302  0.6968
17552TIP3    H174147   4.338   6.604  16.752 -0.2138  0.7492  1.4931
17552TIP3    H274148   4.247   6.651  16.640  0.3075 -0.4355  0.5474
17553TIP3   OH274149   3.090   0.726   5.239  0.3488 -0.1502 -0.0331
17553TIP3    H174150   3.032   0.690   5.172  0.1851 -0.1504  0.1098
17553TIP3    H274151   3.176   0.690   5.218  0.6997  1.3420 -1.4058
17554TIP3   OH274152   4.747   0.728  12.067 -0.3078 -0.3249  0.7163
17554TIP3    H174153   4.663   0.709  12.025 -0.2262 -0.7425  0.7293
17554TIP3    H274154   4.724   0.776  12.147 -0.5133 -0.1843  0.5723
17555TIP3   OH274155   4.043   1.578  14.555  0.2121  0.2617  0.3527
17555TIP3    H174156   4.065   1.507  14.616 -2.1633 -0.0864  0.8872
17555TIP3    H274157   4.125   1.595  14.508  0.9073 -2.7424  0.2731
17556TIP3   OH274158   4.689   2.020   1.450 -0.1320  0.0853 -0.1484
17556TIP3    H174159   4.781   2.002   1.431  0.0590  0.0615  0.7321
17556TIP3    H274160   4.664   1.952   1.513 -0.4938  0.6163  0.2967
17557TIP3   OH274161   3.994   4.921   6.031  0.3059 -0.0739  0.1348
17557TIP3    H174162   3.915   4.943   6.081  0.7859 -0.2759  0.9856
17557TIP3    H274163   4.044   4.863   6.088  2.1785  1.8357  0.5538
17558TIP3   OH274164   5.890   1.986   5.551  0.1448  0.3325  0.3582
17558TIP3    H174165   5.837   2.044   5.606  0.1927  2.0184 -1.2518
17558TIP3    H274166   5.981   2.013   5.569  0.4281 -1.5018  1.9726
17559TIP3   OH274167   0.812   5.362  13.869  0.2386  0.4783  0.6694
17559TIP3    H174168   0.785   5.453  13.858  0.9613  0.5936 -0.3449
17559TIP3    H274169   0.901   5.368  13.903  1.0247  0.2118 -1.2215
17560TIP3   OH274170   1.231   3.813  13.173  0.4360 -0.1094  0.5841
17560TIP3    H174171   1.213   3.758  13.097  1.9691  0.2549 -0.0858
17560TIP3    H274172   1.223   3.754  13.248 -1.7462 -0.3191  0.2378
17561TIP3   OH274173   0.218   5.533   5.342  0.3200  0.4406  0.3780
17561TIP3    H174174   0.295   5.587   5.359  0.2372  0.6302  0.1567
17561TIP3    H274175   0.250   5.443   5.353  1.0185  0.4301 -1.3651
17562TIP3   OH274176   0.224   2.393  15.049 -0.2605  0.0774 -0.1245
17562TIP3    H174177   0.158   2.340  15.005 -1.2066  1.0266  0.1073
17562TIP3    H274178   0.305   2.375  15.001 -0.9318 -0.1632 -1.2092
17563TIP3   OH274179   3.021   3.874   2.323 -0.1509  0.5426 -0.1575
17563TIP3    H174180   3.063   3.788   2.331  0.2584  0.5498 -1.7433
17563TIP3    H274181   2.967   3.882   2.401 -0.1842 -1.1631  0.0414
17564TIP3   OH274182   1.811   5.677  12.931 -0.0087  0.2212 -0.0347
17564TIP3    H174183   1.842   5.628  12.855  1.3969  0.7452  0.1796
17564TIP3    H274184   1.720   5.648  12.942 -0.0823 -0.2390 -1.5930
17565TIP3   OH274185   1.442   4.685   0.015 -0.4034  0.5222  0.2073
17565TIP3    H174186   1.500   4.610   0.005  1.6052  1.9978  0.2139
17565TIP3    H274187   1.374   4.672  -0.052  0.8976 -0.4089 -0.9836
17566TIP3   OH274188   1.656   5.251   0.171  0.5661  0.0422 -0.5670
17566TIP3    H174189   1.744   5.244   0.134  0.3867 -0.0681 -0.9706
17566TIP3    H274190   1.606   5.301   0.107  0.2133 -0.2803 -0.5468
17567TIP3   OH274191   3.958   0.787  16.002  0.1697  0.3190 -0.2035
17567TIP3    H174192   4.024   0.719  15.998  0.6502  0.6589  1.3031
17567TIP3    H274193   3.976   0.844  15.927  1.0353 -0.0739 -0.2931
17568TIP3   OH274194   5.867   3.185  15.021  0.3312 -0.1359  0.0412
17568TIP3    H174195   5.775   3.210  15.016  0.5917  1.1170  0.9497
17568TIP3    H274196   5.892   3.169  14.930 -0.6791 -0.1374 -0.2505
17569TIP3   OH274197   0.713   5.368  12.074  0.6333  0.4502  0.2228
17569TIP3    H174198   0.668   5.289  12.044  0.0615  0.3086  1.3990
17569TIP3    H274199   0.796   5.336  12.110  0.7106  0.4673  0.0614
17570TIP3   OH274200   4.000   0.539   5.945  0.1975 -0.3684  0.3075
17570TIP3    H174201   3.991   0.494   5.861 -0.4021 -0.2512  0.3032
17570TIP3    H274202   3.915   0.528   5.987  0.2861  0.1256  0.6260
17571TIP3   OH274203   4.278   1.459  12.744  0.0959 -0.5912 -0.1321
17571TIP3    H174204   4.349   1.431  12.687 -1.1760 -2.2451 -0.9932
17571TIP3    H274205   4.202   1.410  12.714 -1.8855  2.4155 -0.4592
17572TIP3   OH274206   1.220   1.337   1.451  0.0449 -0.5625  0.3069
17572TIP3    H174207   1.228   1.323   1.546  0.7582 -0.2138  0.3008
17572TIP3    H274208   1.130   1.313   1.432 -0.5490  0.7085  1.3155
17573TIP3   OH274209   2.502   4.341   5.914  0.0079 -0.1854  0.1619
17573TIP3    H174210   2.578   4.359   5.859 -0.4217  1.9292  0.1677
17573TIP3    H274211   2.436   4.307   5.853  0.0977  0.5337 -0.3575
17574TIP3   OH274212   2.245   0.614   0.671 -0.2238  0.2761 -0.7684
17574TIP3    H174213   2.192   0.674   0.619  0.9417  0.1687 -2.1545
17574TIP3    H274214   2.281   0.552   0.607  1.4837  0.3070  0.0973
17575TIP3   OH274215   2.231   2.932   2.639  0.3457 -0.3891 -0.0529
17575TIP3    H174216   2.178   2.883   2.576  1.7170 -1.7526 -0.1771
17575TIP3    H274217   2.306   2.963   2.588  0.1257  0.8201  0.3200
17576TIP3   OH274218   0.403   4.352   5.186  0.3435  0.0927 -0.0839
17576TIP3    H174219   0.335   4.311   5.240  0.8414  0.1313  0.5832
17576TIP3    H274220   0.361   4.366   5.101 -0.3135 -0.3743  0.1574
17577TIP3   OH274221   2.212   2.071  12.901 -0.3868 -0.2644  0.3981
17577TIP3    H174222   2.223   2.008  12.829  0.3735 -0.9583  1.0976
17577TIP3    H274223   2.301   2.100  12.920 -0.8742  2.9983 -1.5771
17578TIP3   OH274224   4.194   3.528   5.648  0.5823 -0.4253  0.5424
17578TIP3    H174225   4.225   3.460   5.589  0.4558  1.1538 -1.4964
17578TIP3    H274226   4.241   3.607   5.620 -0.6559  0.7149  1.5383
17579TIP3   OH274227   4.119   3.606  14.719  0.0485  0.1916 -0.1104
17579TIP3    H174228   4.062   3.530  14.707 -0.0195  0.1294  0.5923
17579TIP3    H274229   4.076   3.676  14.671  0.1256 -0.2183 -0.7897
17580TIP3   OH274230   3.387   0.425  12.800 -0.2934  0.6172 -0.2793
17580TIP3    H174231   3.413   0.419  12.708 -0.4587  0.0151 -0.2945
17580TIP3    H274232   3.294   0.401  12.799  0.0412 -0.7447  0.2127
17581TIP3   OH274233   6.663   1.041   3.288 -0.2772  0.0719  0.0434
17581TIP3    H174234   6.714   0.963   3.266  0.3805  1.0941 -2.3513
17581TIP3    H274235   6.716   1.114   3.257 -0.4726  1.6164  3.0055
17582TIP3   OH274236   3.852   2.104  14.643  0.0784  0.4030 -0.0449
17582TIP3    H174237   3.889   2.022  14.676  0.1428  0.9111  1.1954
17582TIP3    H274238   3.757   2.093  14.651  0.0567  0.2208 -0.4839
17583TIP3   OH274239   3.847   3.006  16.795  0.5245 -0.5612  0.3900
17583TIP3    H174240   3.804   3.024  16.879 -2.1595  0.2994 -1.0728
17583TIP3    H274241   3.819   2.918  16.771 -0.4849 -0.0105 -0.5548
17584TIP3   OH274242   0.137   3.901   2.410 -0.1931 -0.1787  0.2857
17584TIP3    H174243   0.053   3.878   2.450 -0.8984  3.0787  0.9077
17584TIP3    H274244   0.202   3.881   2.477 -0.7619 -0.0598  0.8739
17585TIP3   OH274245   5.184   4.162  14.341 -0.1337 -0.1054  0.0555
17585TIP3    H174246   5.211   4.217  14.415  2.1877 -2.6964  1.3066
17585TIP3    H274247   5.228   4.201  14.266  0.0549  0.7545  0.5983
17586TIP3   OH274248   2.621   4.555   1.857 -0.1932  0.0836  0.3289
17586TIP3    H174249   2.662   4.529   1.940  0.8778  1.5085  0.2829
17586TIP3    H274250   2.549   4.613   1.883 -1.7368 -1.7575  0.3657
17587TIP3   OH274251   2.902   2.010  10.966 -0.1946 -0.5898  0.6904
17587TIP3    H174252   2.933   2.092  11.006  2.0038 -1.7661  1.5554
17587TIP3    H274253   2.915   1.944  11.035 -3.3414 -1.4962  0.5775
17588TIP3   OH274254   0.560   0.157  12.266  0.1555  0.4041  0.4695
17588TIP3    H174255   0.548   0.080  12.322  0.0346  1.1006  1.4278
17588TIP3    H274256   0.653   0.179  12.276  0.2256  0.2915  0.0725
17589TIP3   OH274257   4.023   4.805  13.619  0.7995  0.4619 -0.9164
17589TIP3    H174258   4.012   4.741  13.689  0.7646  1.3832 -0.0617
17589TIP3    H274259   4.117   4.813  13.608  0.8392  1.1049 -0.2117
17590TIP3   OH274260   1.382   6.403  14.082  0.0116  0.0475 -0.3391
17590TIP3    H174261   1.385   6.475  14.146  0.8903 -0.9036  0.7363
17590TIP3    H274262   1.289   6.382  14.074 -0.1258  0.2420  0.5818
17591TIP3   OH274263   0.401   2.070  11.671 -0.6179  0.4786  0.3447
17591TIP3    H174264   0.311   2.096  11.692 -0.5166  0.0098  1.4192
17591TIP3    H274265   0.414   2.102  11.582 -2.1564 -0.2386 -0.1887
17592TIP3   OH274266   6.112   3.499   0.602  0.0487  0.4159 -0.1024
17592TIP3    H174267   6.104   3.408   0.572  1.5898  0.3298 -0.3546
17592TIP3    H274268   6.024   3.524   0.628 -0.3837 -1.1991  0.0859
17593TIP3   OH274269   0.329   1.494   5.075 -0.4148  0.6873 -0.1841
17593TIP3    H174270   0.403   1.551   5.094 -0.3750 -0.0757  2.3550
17593TIP3    H274271   0.367   1.406   5.070 -1.1104  0.2985  1.0710
17594TIP3   OH274272   2.145   4.578   5.338 -0.4001 -0.3685 -0.8620
17594TIP3    H174273   2.099   4.494   5.328 -1.2924  0.0350 -0.2559
17594TIP3    H274274   2.226   4.556   5.384 -0.8360 -0.8355 -0.3136
17595TIP3   OH274275   1.133   5.296  12.415  0.1308 -0.1933  0.0250
17595TIP3    H174276   1.086   5.234  12.471  0.0507  1.2373  1.6214
17595TIP3    H274277   1.221   5.260  12.409 -0.2971 -1.2112 -0.2882
17596TIP3   OH274278   1.868   2.459  13.315 -0.5083  0.2584  0.2066
17596TIP3    H174279   1.841   2.492  13.401 -1.7812  0.9125 -0.4243
17596TIP3    H274280   1.811   2.503  13.253 -0.1607 -0.8257 -0.9276
17597TIP3   OH274281   5.611   3.060  13.587  0.4132 -0.3169  0.2928
17597TIP3    H174282   5.562   3.120  13.642 -1.6066  0.2007 -1.9101
17597TIP3    H274283   5.657   3.117  13.525  1.6750 -0.9247  0.6358
17598TIP3   OH274284   4.208   4.929  16.956  0.1026  0.1887 -0.7685
17598TIP3    H174285   4.218   4.838  16.983 -0.2758  0.6766  1.1274
17598TIP3    H274286   4.229   4.928  16.862 -0.2961 -1.8996 -0.8855
17599TIP3   OH274287   4.701   1.936   0.658  0.5862  0.0885 -0.4835
17599TIP3    H174288   4.679   1.893   0.742 -0.2613  1.6111  0.1028
17599TIP3    H274289   4.631   1.909   0.599 -0.6181  1.5369  0.2133
17600TIP3   OH274290   0.814   2.960   5.446 -0.3099  0.2798 -0.1809
17600TIP3    H174291   0.817   2.996   5.535 -1.8513  0.7737 -0.2920
17600TIP3    H274292   0.793   2.868   5.458 -1.2547  0.4997 -0.0295
17601TIP3   OH274293   6.793   0.886   4.219 -0.2935  0.5900 -0.6580
17601TIP3    H174294   6.883   0.907   4.246 -0.2488  1.7391 -1.6482
17601TIP3    H274295   6.758   0.968   4.184 -1.8578  0.2463  0.0147
17602TIP3   OH274296   4.082   2.813  14.340  1.0211 -0.5282 -0.2376
17602TIP3    H174297   4.021   2.751  14.381 -0.9420  1.1668 -0.4459
17602TIP3    H274298   4.113   2.767  14.261  1.0271 -1.9168  0.5387
17603TIP3   OH274299   1.186   3.566   5.621 -0.0634 -0.2874 -0.6539
17603TIP3    H174300   1.126   3.519   5.680  0.2923 -0.0586 -0.0990
17603TIP3    H274301   1.134   3.638   5.586 -0.2353 -0.3372 -0.5033
17604TIP3   OH274302   4.710   0.033  15.656  0.3270 -0.2358  0.2987
17604TIP3    H174303   4.650  -0.029  15.613  1.2581 -0.1905 -1.1585
17604TIP3    H274304   4.701   0.014  15.749  0.1663 -2.2072 -0.0607
17605TIP3   OH274305   1.912   2.331   2.333 -0.9958  0.0670  0.2950
17605TIP3    H174306   1.816   2.332   2.342 -1.2322 -1.8892 -1.1803
17605TIP3    H274307   1.927   2.327   2.239  0.5195 -0.5282  0.5302
17606TIP3   OH274308   6.600   4.524  14.098  0.2486  0.3733  0.4676
17606TIP3    H174309   6.655   4.598  14.122 -0.3300  1.1422 -0.4769
17606TIP3    H274310   6.514   4.545  14.136 -0.0637  0.4680 -0.2829
17607TIP3   OH274311   2.832   3.787  15.698 -0.1923  0.5628  0.5955
17607TIP3    H174312   2.912   3.757  15.742 -0.1238 -1.0863 -0.5323
17607TIP3    H274313   2.763   3.731  15.733 -1.2960  3.1939  2.9471
17608TIP3   OH274314   2.052   0.213  13.509  0.0859 -0.2109 -0.0281
17608TIP3    H174315   2.117   0.264  13.557  0.0099 -1.5438  1.5793
17608TIP3    H274316   2.002   0.167  13.577  0.4193 -2.7402 -1.3460
17609TIP3   OH274317   1.649   3.664   2.750  0.7535 -0.1497  0.1609
17609TIP3    H174318   1.698   3.595   2.795  1.5927  1.3136  1.6065
17609TIP3    H274319   1.704   3.688   2.676  0.9987 -0.2878  0.2956
17610TIP3   OH274320   1.974   2.648  11.357  0.0332  0.6606  0.7837
17610TIP3    H174321   2.017   2.578  11.405 -0.1307  1.3258  1.9590
17610TIP3    H274322   1.922   2.604  11.290  0.9872 -0.2530  0.6342
17611TIP3   OH274323   2.075   3.335   4.221 -0.3212  0.0009 -0.2299
17611TIP3    H174324   2.138   3.377   4.281  0.3886  0.8456 -1.5139
17611TIP3    H274325   2.118   3.254   4.194  0.5266  0.8458 -1.5461
17612TIP3   OH274326   5.636   2.668  12.196 -0.1834 -0.1832  0.8233
17612TIP3    H174327   5.699   2.696  12.263 -0.0796  2.4168 -0.2552
17612TIP3    H274328   5.691   2.629  12.128  0.1470  0.6993  0.5649
17613TIP3   OH274329   4.951   2.914  16.959  0.3584 -0.9617 -0.4493
17613TIP3    H174330   4.909   2.881  17.039 -0.6885 -1.3047 -1.1341
17613TIP3    H274331   4.900   2.876  16.888  0.1506  0.8223 -1.2847
17614TIP3   OH274332   3.403   6.145   3.847  1.1517 -0.1376 -0.0016
17614TIP3    H174333   3.457   6.118   3.773  1.8904  1.4486 -0.0663
17614TIP3    H274334   3.433   6.233   3.869 -2.4993  1.5794 -1.1331
17615TIP3   OH274335   0.864   2.522   3.617  0.3952 -0.3004  0.6235
17615TIP3    H174336   0.959   2.531   3.629  0.5801 -1.6935  0.2938
17615TIP3    H274337   0.852   2.517   3.523 -0.1723  1.2400  0.5791
17616TIP3   OH274338   2.320   4.128   2.337 -0.3356 -0.3764  0.3739
17616TIP3    H174339   2.331   4.040   2.301 -0.9495 -0.7729  1.1337
17616TIP3    H274340   2.406   4.150   2.373 -0.0719 -0.5029 -0.1770
17617TIP3   OH274341   6.722   4.088  11.665  0.4156 -0.1794 -0.3903
17617TIP3    H174342   6.635   4.090  11.624  0.6256  2.5601 -0.9125
17617TIP3    H274343   6.759   4.003  11.639 -1.9905 -1.3286 -0.3185
17618TIP3   OH274344   5.731   6.069  14.861  0.4397 -0.1525 -0.9139
17618TIP3    H174345   5.726   6.128  14.936 -0.1637 -2.3933  0.9064
17618TIP3    H274346   5.823   6.074  14.834  0.0066  3.2041 -2.2887
17619TIP3   OH274347   3.965   3.621   3.075 -0.0429 -0.0759  0.0517
17619TIP3    H174348   3.949   3.532   3.044  3.9919 -0.7941 -0.5209
17619TIP3    H274349   3.968   3.612   3.170 -2.1258  0.0459  0.1779
17620TIP3   OH274350   4.150   1.085  12.887  0.4201 -0.3050 -0.0831
17620TIP3    H174351   4.111   1.030  12.954 -0.3243 -0.5935 -0.7427
17620TIP3    H274352   4.216   1.030  12.845 -1.8295 -1.5215 -2.2359
17621TIP3   OH274353   6.086   4.161  16.646  0.6387  0.4283 -0.5300
17621TIP3    H174354   6.027   4.132  16.576  1.5332 -1.0999 -0.7004
17621TIP3    H274355   6.169   4.177  16.601  0.6624  1.4656 -0.1213
17622TIP3   OH274356   1.499   4.418   0.460 -0.3228 -0.7639 -0.8692
17622TIP3    H174357   1.519   4.392   0.371  1.3085  0.8536 -1.0370
17622TIP3    H274358   1.497   4.514   0.457 -0.4547 -0.6794  0.7898
17623TIP3   OH274359   0.276   6.733  15.888 -0.1001  0.4934  0.1350
17623TIP3    H174360   0.345   6.703  15.828 -0.1688 -0.7992  0.6575
17623TIP3    H274361   0.198   6.687  15.857 -0.4642  1.0177  0.2842
17624TIP3   OH274362   6.253   2.399   3.864  0.0830 -0.2970  0.2318
17624TIP3    H174363   6.194   2.457   3.816 -1.6482  0.3355  2.8815
17624TIP3    H274364   6.312   2.458   3.911  0.2740 -0.7758  0.6050
17625TIP3   OH274365   3.557   5.117  17.156 -0.1005  0.0500 -0.1709
17625TIP3    H174366   3.480   5.166  17.126 -0.3083 -0.6181 -0.7416
17625TIP3    H274367   3.623   5.185  17.173 -0.1464  0.5001 -1.6222
17626TIP3   OH274368   5.652   3.651   2.932  0.1905 -0.3574  0.2760
17626TIP3    H174369   5.590   3.627   3.001  1.0581 -0.9865  0.8641
17626TIP3    H274370   5.692   3.732   2.963  0.1397 -0.3117  0.2208
17627TIP3   OH274371   3.673   3.383   3.910 -0.5270 -0.0296  0.2410
17627TIP3    H174372   3.622   3.320   3.859 -1.0499  1.0464 -0.6001
17627TIP3    H274373   3.621   3.463   3.909 -0.3485  0.1626  2.1385
17628TIP3   OH274374   5.574   2.861  16.881  0.1706 -0.1427 -0.0410
17628TIP3    H174375   5.555   2.950  16.851 -0.0253 -0.3271 -0.4619
17628TIP3    H274376   5.660   2.841  16.844  1.0640  0.5485  1.5512
17629TIP3   OH274377   1.996   4.509  15.042  0.0536 -0.1405 -0.5389
17629TIP3    H174378   1.927   4.448  15.017  3.0572 -3.9888 -0.4376
17629TIP3    H274379   2.019   4.485  15.132  2.2650  0.1132 -0.9702
17630TIP3   OH274380   1.068   0.181   2.171  0.3640  0.4988 -0.4109
17630TIP3    H174381   1.131   0.231   2.119  0.1248  0.1916 -1.0066
17630TIP3    H274382   1.025   0.123   2.108  0.4564 -0.2789  0.2201
17631TIP3   OH274383   3.714   1.090  13.056  0.3785  0.0534  0.1303
17631TIP3    H174384   3.698   1.115  12.965 -1.2025  0.8431  0.5976
17631TIP3    H274385   3.722   0.995  13.053 -0.3810 -0.0002 -0.7350
17632TIP3   OH274386   6.586   0.104  15.394 -0.3340  0.5923 -0.0012
17632TIP3    H174387   6.496   0.074  15.406  1.1008 -3.8988  1.5594
17632TIP3    H274388   6.624   0.042  15.332  2.4919  0.1532  1.9585
17633TIP3   OH274389   0.876   3.365  11.536 -0.1323 -0.0476 -0.7286
17633TIP3    H174390   0.860   3.395  11.626  0.8891  0.4211 -0.6878
17633TIP3    H274391   0.805   3.404  11.485  0.9492  2.2117 -0.6232
17634TIP3   OH274392   3.920   0.441   3.932 -0.4025  0.3178  0.4109
17634TIP3    H174393   3.911   0.371   3.997  1.7928  1.3680  1.9499
17634TIP3    H274394   3.953   0.397   3.853  0.7360 -0.4267  1.2791
17635TIP3   OH274395   1.867   2.184  13.654 -0.4758  0.2892  0.5872
17635TIP3    H174396   1.894   2.274  13.635 -1.2281  0.3009 -0.4754
17635TIP3    H274397   1.925   2.130  13.600  1.8983 -0.0867  3.2536
17636TIP3   OH274398   4.103   6.256   0.438  0.0559 -0.0954  0.9420
17636TIP3    H174399   4.126   6.326   0.499  1.9643 -0.4725  0.6965
17636TIP3    H274400   4.174   6.192   0.446 -1.3027 -1.7293  0.6869
17637TIP3   OH274401   3.450   2.565   4.007  0.1374 -0.1284 -0.1693
17637TIP3    H174402   3.496   2.642   3.974  1.2511 -0.0199  1.5238
17637TIP3    H274403   3.519   2.504   4.032 -0.7254 -1.5131 -1.0412
17638TIP3   OH274404   3.843   6.149  17.017  0.5431 -0.1047 -0.1903
17638TIP3    H174405   3.785   6.098  17.074  0.3133  0.2654 -0.0911
17638TIP3    H274406   3.875   6.220  17.072  3.3374 -1.8545  0.6318
17639TIP3   OH274407   3.073   0.418   2.001 -0.0410 -0.0379 -0.1099
17639TIP3    H174408   3.158   0.402   2.042  0.3248 -0.4728 -1.0307
17639TIP3    H274409   3.094   0.454   1.915 -0.8080  0.7568  0.0168
17640TIP3   OH274410   5.129   5.220  12.549 -0.4713  0.7167  0.0331
17640TIP3    H174411   5.170   5.228  12.635  1.0033  0.1261 -0.5801
17640TIP3    H274412   5.164   5.293  12.498 -1.5473  1.2259 -0.0135
17641TIP3   OH274413   2.433   2.491  14.497  0.3945  0.1255  0.3459
17641TIP3    H174414   2.370   2.539  14.443  1.6371  0.3470 -0.9658
17641TIP3    H274415   2.379   2.431  14.549 -0.8252 -0.8916 -1.9424
17642TIP3   OH274416   2.888   1.801   2.309  0.3724  0.2413 -0.3428
17642TIP3    H174417   2.846   1.875   2.354  2.3511  0.6308  1.0091
17642TIP3    H274418   2.898   1.734   2.377 -1.2216 -1.2540 -1.5056
17643TIP3   OH274419   6.819   1.138  14.042  0.5390  0.0936 -0.3601
17643TIP3    H174420   6.804   1.232  14.031  1.0198  0.1091 -0.9148
17643TIP3    H274421   6.735   1.105  14.075 -0.4282  0.3574 -2.3648
17644TIP3   OH274422   0.131   1.052   0.863 -0.2610 -0.4004 -0.0115
17644TIP3    H174423   0.094   1.019   0.780  0.1553  1.6210 -1.0611
17644TIP3    H274424   0.058   1.048   0.924 -0.3130 -2.9018 -0.1307
17645TIP3   OH274425   6.034   0.953  14.323 -0.1451  0.8973  0.5351
17645TIP3    H174426   5.949   0.924  14.357 -0.0641 -0.6128 -0.4365
17645TIP3    H274427   6.078   0.872  14.298 -0.0666  1.8340 -2.7893
17646TIP3   OH274428   4.889   2.935   5.029 -0.1939  0.0540  0.1520
17646TIP3    H174429   4.958   2.893   4.978  0.5286 -0.0743  1.2246
17646TIP3    H274430   4.814   2.876   5.020  0.9235 -1.7805  1.9839
17647TIP3   OH274431   6.414   4.154   4.167  0.0199  0.0587  0.0714
17647TIP3    H174432   6.404   4.062   4.143  1.3400 -0.4604  1.3449
17647TIP3    H274433   6.342   4.172   4.227 -1.0677  0.2940 -1.2520
17648TIP3   OH274434   0.176   2.366  14.682 -0.2406 -0.6153 -0.2007
17648TIP3    H174435   0.184   2.291  14.741 -2.2633 -0.0912  0.8258
17648TIP3    H274436   0.221   2.437  14.727  0.3176 -0.8027 -0.4485
17649TIP3   OH274437   4.986   2.984   2.901  0.1188 -0.3776 -0.3127
17649TIP3    H174438   4.954   2.957   2.987  0.9758 -1.2084 -0.2262
17649TIP3    H274439   4.933   2.934   2.839 -0.9450  0.7102 -0.3147
17650TIP3   OH274440   6.744   4.980   2.810 -0.7889  0.3927 -0.4163
17650TIP3    H174441   6.745   4.936   2.725 -3.2907 -0.2071 -0.2143
17650TIP3    H274442   6.729   5.072   2.790 -3.1796  0.0128 -0.6448
17651TIP3   OH274443   6.272   3.294  14.449 -0.5985 -0.5391 -0.4134
17651TIP3    H174444   6.290   3.205  14.481 -0.3381 -0.8885 -1.4804
17651TIP3    H274445   6.358   3.328  14.424 -0.8400 -0.4434 -1.1360
17652TIP3   OH274446   2.781   0.059   4.612  0.2697 -0.9663 -0.0910
17652TIP3    H174447   2.742   0.120   4.549 -0.1314 -0.2253  0.8391
17652TIP3    H274448   2.728  -0.020   4.605 -1.1167 -0.1578  0.7781
17653TIP3   OH274449   2.771   4.616   3.761 -0.3315  0.5960 -0.0175
17653TIP3    H174450   2.754   4.697   3.810 -1.7266 -0.2344  0.9646
17653TIP3    H274451   2.703   4.616   3.693 -1.1373 -0.3235  0.7633
17654TIP3   OH274452   2.736   4.427   6.132  0.5244 -0.0323  0.7702
17654TIP3    H174453   2.685   4.476   6.067 -0.4672 -0.0654  1.4863
17654TIP3    H274454   2.816   4.478   6.143  0.3638  0.3826  0.0856
17655TIP3   OH274455   2.468   1.308  14.118 -0.1166  0.0267 -0.2693
17655TIP3    H174456   2.387   1.298  14.068  0.3356  0.0831 -1.0339
17655TIP3    H274457   2.439   1.329  14.207 -0.9315  0.6825 -0.6707
17656TIP3   OH274458   0.701   0.472   3.352  0.4609 -0.2161 -0.0597
17656TIP3    H174459   0.764   0.410   3.390 -1.1540 -1.0819  1.3082
17656TIP3    H274460   0.616   0.444   3.385 -0.9073 -0.0359 -3.0602
17657TIP3   OH274461   0.295   1.816   3.740 -0.8457  0.1579  0.3921
17657TIP3    H174462   0.283   1.911   3.741 -4.3359 -0.1032 -1.5283
17657TIP3    H274463   0.245   1.785   3.815 -0.1892 -0.2367  0.6765
17658TIP3   OH274464   5.864   6.075   2.047 -0.0384 -0.3334 -0.3833
17658TIP3    H174465   5.798   6.130   2.006 -0.1985 -0.1285  0.1371
17658TIP3    H274466   5.869   6.107   2.137 -1.9414 -2.7315  0.6911
17659TIP3   OH274467   5.113   4.415   4.296 -0.7184 -0.3488  0.3402
17659TIP3    H174468   5.087   4.405   4.205 -2.1421  3.3171  0.1830
17659TIP3    H274469   5.033   4.402   4.346 -0.4792  0.0746  0.8478
17660TIP3   OH274470   6.620   1.262  11.893 -0.8894  0.1107 -0.3555
17660TIP3    H174471   6.591   1.351  11.878 -2.7106 -0.3475  0.2273
17660TIP3    H274472   6.543   1.216  11.926  0.9088 -0.7910  3.0226
17661TIP3   OH274473   5.557   3.840  11.678 -0.2662  0.9464 -0.4813
17661TIP3    H174474   5.465   3.864  11.670 -0.3680  0.3118 -1.3328
17661TIP3    H274475   5.572   3.779  11.606  0.6612  0.5592  0.0269
17662TIP3   OH274476   2.080   0.577  12.024 -0.1234 -0.4812  0.4423
17662TIP3    H174477   1.990   0.569  11.991 -0.6192  0.6342  1.4627
17662TIP3    H274478   2.073   0.633  12.101  1.5652  0.3240  0.0646
17663TIP3   OH274479   4.129   5.769   3.854  0.0914  0.1342  0.2614
17663TIP3    H174480   4.181   5.731   3.925  2.2771  0.7127 -0.9302
17663TIP3    H274481   4.136   5.863   3.867  1.3322  0.2897 -1.1788
17664TIP3   OH274482   1.178   2.972  11.305  0.0268  0.0386  0.4800
17664TIP3    H174483   1.126   2.896  11.279  0.7269 -0.3182  0.0961
17664TIP3    H274484   1.114   3.039  11.329 -0.6346  0.2481 -1.7445
17665TIP3   OH274485   1.123   2.727  10.835 -0.1966  0.0128 -0.0334
17665TIP3    H174486   1.197   2.787  10.843 -0.4393  0.2476  0.4782
17665TIP3    H274487   1.061   2.773  10.778 -1.5556  1.4624  2.4476
17666TIP3   OH274488   5.431   5.986   5.607 -0.1733 -0.2484  0.2642
17666TIP3    H174489   5.473   5.926   5.668  0.5476  0.3420  0.3646
17666TIP3    H274490   5.338   5.964   5.612  0.3064 -3.6149 -2.1158
17667TIP3   OH274491   4.196   6.214   6.177  0.1944 -0.2141  0.1229
17667TIP3    H174492   4.214   6.153   6.248 -0.6626 -0.7636 -0.1283
17667TIP3    H274493   4.260   6.285   6.191  1.6518 -1.4547  0.0321
17668TIP3   OH274494   5.310   0.596  16.839  0.1125  0.5112 -0.2103
17668TIP3    H174495   5.318   0.632  16.751 -0.5076  1.6781  0.1943
17668TIP3    H274496   5.255   0.518  16.829 -2.1184  2.0495 -0.5201
17669TIP3   OH274497   4.889   1.348  14.728 -0.3820  0.2545 -0.4040
17669TIP3    H174498   4.860   1.302  14.649 -1.9892  0.5825 -0.0377
17669TIP3    H274499   4.963   1.402  14.698 -0.5445 -0.1162 -1.5316
17670TIP3   OH274500   6.258   0.157  14.177 -0.0144 -0.1432 -0.0647
17670TIP3    H174501   6.314   0.120  14.245  1.5665 -1.5745 -2.0327
17670TIP3    H274502   6.310   0.228  14.139 -1.3206  1.3709  0.8776
17671TIP3   OH274503   3.520   0.405  11.934 -0.0158 -0.2652  0.2723
17671TIP3    H174504   3.464   0.329  11.951 -1.5173  0.8249  0.3762
17671TIP3    H274505   3.497   0.467  12.003  0.3055  0.7543 -0.5230
17672TIP3   OH274506   4.391   4.090  10.853  0.2570 -0.2944  0.4113
17672TIP3    H174507   4.362   4.174  10.890  0.0063  0.2472 -0.9365
17672TIP3    H274508   4.486   4.098  10.848  0.1088  1.0210 -2.0672
17673TIP3   OH274509   2.815   0.619  11.094  0.4303 -0.2930 -0.2752
17673TIP3    H174510   2.878   0.610  11.022  1.3971  2.1489  0.1902
17673TIP3    H274511   2.846   0.559  11.161  1.1528 -0.5056 -0.7941
17674TIP3   OH274512   1.540   5.705   4.534  0.6741 -0.2462  0.2081
17674TIP3    H174513   1.512   5.792   4.505 -1.2514 -0.7272  0.4403
17674TIP3    H274514   1.592   5.672   4.461 -2.3746 -0.6382 -2.0311
17675TIP3   OH274515   3.812   0.948  12.528  0.0764  0.0080 -0.2064
17675TIP3    H174516   3.874   1.011  12.494  0.7186 -2.1488 -3.4778
17675TIP3    H274517   3.773   0.907  12.451 -3.1042 -1.0130  1.7052
17676TIP3   OH274518   4.125   6.308  11.900 -0.5210 -0.2811  0.1672
17676TIP3    H174519   4.183   6.278  11.831  0.0754  1.0430  0.0682
17676TIP3    H274520   4.178   6.369  11.952 -0.6460 -1.9554  2.3919
17677TIP3   OH274521   5.380   3.807   2.928 -0.1065 -0.1395 -0.6908
17677TIP3    H174522   5.441   3.762   2.870  0.9453 -0.5154  0.6679
17677TIP3    H274523   5.314   3.741   2.949  0.2169 -0.3915 -0.4558
17678TIP3   OH274524   2.081   5.134   5.489  0.0406 -0.3699  0.3692
17678TIP3    H174525   2.003   5.174   5.528  0.2164  0.4000 -0.0574
17678TIP3    H274526   2.050   5.049   5.458 -0.4239 -0.4284  0.9554
17679TIP3   OH274527   0.474   6.411   4.596 -0.0700 -0.0108  0.0738
17679TIP3    H174528   0.469   6.316   4.608 -0.6570  0.1191  0.8716
17679TIP3    H274529   0.561   6.435   4.628  0.5503 -0.4166 -1.2084
17680TIP3   OH274530   4.721   5.404   4.662  0.1495  0.1140 -0.4736
17680TIP3    H174531   4.705   5.410   4.756 -0.6201  0.1025 -0.5978
17680TIP3    H274532   4.800   5.456   4.647  0.1011  0.3637  0.1322
17681TIP3   OH274533   5.416   4.607  15.877 -0.2031 -0.5505  0.2427
17681TIP3    H174534   5.326   4.622  15.904 -0.1871 -0.7921  0.4344
17681TIP3    H274535   5.410   4.538  15.811 -0.4372  1.3136 -1.7695
17682TIP3   OH274536   1.128   2.756   0.636 -0.0818 -0.0624 -0.3521
17682TIP3    H174537   1.130   2.698   0.713  2.2390 -0.4459 -0.6320
17682TIP3    H274538   1.127   2.696   0.562 -4.3691  0.2512 -0.7979
17683TIP3   OH274539   3.880   5.251   1.359  1.0433 -0.7961 -0.0707
17683TIP3    H174540   3.936   5.189   1.312  1.7436 -2.0227  2.2247
17683TIP3    H274541   3.941   5.305   1.409  0.2893 -0.4280  0.4688
17684TIP3   OH274542   3.184   2.178  11.180  0.3544  0.5582  0.1428
17684TIP3    H174543   3.171   2.258  11.129  1.7945  0.0173 -1.1641
17684TIP3    H274544   3.267   2.142  11.148 -0.1750 -1.3913  0.7861
17685TIP3   OH274545   2.611   4.230   3.679 -0.0998  0.3985  0.7670
17685TIP3    H174546   2.538   4.286   3.707 -1.7183 -0.6287 -1.1579
17685TIP3    H274547   2.658   4.284   3.615 -0.0131  0.5495  0.9562
17686TIP3   OH274548   4.461   6.577  14.715 -0.5126  0.2241  0.3689
17686TIP3    H174549   4.384   6.558  14.769 -0.7156  2.3782  0.9282
17686TIP3    H274550   4.437   6.655  14.665  0.3323 -0.6708 -1.5619
17687TIP3   OH274551   5.719   5.995  15.607 -0.0892  0.6544  0.8032
17687TIP3    H174552   5.811   5.971  15.594  0.2520  1.6487  1.3157
17687TIP3    H274553   5.690   5.940  15.680  0.1971  0.5884  0.8695
17688TIP3   OH274554   4.152   0.838  12.514 -0.0972  0.3997 -0.2728
17688TIP3    H174555   4.220   0.799  12.569 -0.6839 -0.3285 -0.0458
17688TIP3    H274556   4.190   0.841  12.427  0.6496  1.0769  0.0612
17689TIP3   OH274557   0.668   1.249  14.111 -0.0000  0.3686 -0.0089
17689TIP3    H174558   0.718   1.187  14.058 -0.1351 -0.3918  0.7274
17689TIP3    H274559   0.684   1.334  14.070 -0.1514 -0.2030 -1.2908
17690TIP3   OH274560   5.986   4.279  13.462 -0.0389  0.1223 -0.2960
17690TIP3    H174561   5.969   4.340  13.391 -0.3291 -0.1978 -0.5049
17690TIP3    H274562   5.926   4.206  13.446 -1.1535  0.6899  1.0897
17691TIP3   OH274563   5.297   5.034   5.176  0.0513  0.4618  0.2136
17691TIP3    H174564   5.285   5.075   5.262 -0.1593 -0.5713  0.6859
17691TIP3    H274565   5.254   4.949   5.183  0.6515  0.0647 -0.6928
17692TIP3   OH274566   2.056   4.576  12.991  0.6022 -0.2126 -0.4652
17692TIP3    H174567   2.065   4.567  12.896  1.1053 -0.1672 -0.4251
17692TIP3    H274568   1.965   4.600  13.005  1.3755  3.8532 -1.2313
17693TIP3   OH274569   3.606   5.651  16.311 -0.0562  0.0040  0.3011
17693TIP3    H174570   3.661   5.590  16.361 -0.1830 -0.1537  0.2496
17693TIP3    H274571   3.547   5.688  16.377  1.4394  1.7338  0.7846
17694TIP3   OH274572   0.600   5.490  16.902 -0.4036  0.0044  0.1741
17694TIP3    H174573   0.641   5.415  16.858 -1.7081 -0.8183  0.2890
17694TIP3    H274574   0.669   5.556  16.906  0.4760 -0.8024 -0.8811
17695TIP3   OH274575   3.061   5.892   6.379  0.0015  0.1752  0.4276
17695TIP3    H174576   3.015   5.886   6.463  1.2336 -1.5040  1.0499
17695TIP3    H274577   2.999   5.859   6.315 -0.2042 -0.6171  1.0226
17696TIP3   OH274578   4.959   4.030   5.154 -0.4089 -0.0861  0.0650
17696TIP3    H174579   4.948   4.001   5.245  1.9954  2.0170  1.1421
17696TIP3    H274580   4.981   3.950   5.106 -0.2187 -1.0257  1.6469
17697TIP3   OH274581   2.693   2.538   3.358  0.1769 -0.5450  0.1979
17697TIP3    H174582   2.752   2.606   3.326  0.3635 -0.4911  0.6455
17697TIP3    H274583   2.631   2.585   3.414  1.3666 -0.9526  1.9569
17698TIP3   OH274584   3.597   0.114  16.442  0.2489 -0.1412  0.1331
17698TIP3    H174585   3.655   0.162  16.500 -0.0831  1.6882 -0.9687
17698TIP3    H274586   3.575   0.176  16.372 -2.0488 -1.1472 -0.1503
17699TIP3   OH274587   1.833   2.548   5.715 -0.1001  0.4729  0.1580
17699TIP3    H174588   1.913   2.537   5.767 -0.1629 -0.0450  0.1526
17699TIP3    H274589   1.772   2.592   5.774 -0.6747 -1.4327  1.0654
17700TIP3   OH274590   5.687   1.645   2.983 -0.2787  0.1184  0.0714
17700TIP3    H174591   5.657   1.682   3.066 -2.1830 -0.9909 -0.0644
17700TIP3    H274592   5.734   1.565   3.009  2.1949  1.5140  0.2374
17701TIP3   OH274593   3.822   4.373   6.174  0.3407  0.1648 -0.0923
17701TIP3    H174594   3.726   4.371   6.176  0.1876 -3.0387 -2.2257
17701TIP3    H274595   3.848   4.356   6.264 -1.2736 -2.2450  0.0231
17702TIP3   OH274596   3.570   3.257   5.592 -0.0195 -0.2918 -0.0657
17702TIP3    H174597   3.490   3.287   5.635 -0.3963 -0.8274 -0.3941
17702TIP3    H274598   3.634   3.251   5.662 -0.4346 -0.4535  0.3020
17703TIP3   OH274599   2.386   5.653  15.488  0.2090 -0.4298 -0.1882
17703TIP3    H174600   2.381   5.568  15.532  0.3133 -0.6491 -0.5952
17703TIP3    H274601   2.295   5.681  15.479  0.2225  0.6352  2.0895
17704TIP3   OH274602   2.199   2.870  13.928  0.6200 -0.8922  0.0343
17704TIP3    H174603   2.257   2.930  13.880  0.4643  0.2690  1.2282
17704TIP3    H274604   2.247   2.787  13.929  0.2230 -1.2496 -2.8588
17705TIP3   OH274605   1.333   2.646  12.392  0.1855  0.6221 -0.6291
17705TIP3    H174606   1.368   2.569  12.437 -0.8389  1.0496  0.9789
17705TIP3    H274607   1.350   2.629  12.300  1.1970 -0.8993 -0.2050
17706TIP3   OH274608   6.119   5.208   0.979  0.3142  0.1204  0.1672
17706TIP3    H174609   6.051   5.144   0.955 -1.0944  1.4716  0.4410
17706TIP3    H274610   6.095   5.288   0.933  2.2243  0.4179 -0.4073
17707TIP3   OH274611   4.990   4.507   5.821  0.1767 -0.3610 -0.3072
17707TIP3    H174612   4.905   4.477   5.853 -0.6106  2.4910  0.5369
17707TIP3    H274613   4.970   4.560   5.744  1.0090  1.3016  0.5627
17708TIP3   OH274614   1.463   2.134   1.992  0.1884  0.0165 -0.3454
17708TIP3    H174615   1.515   2.054   1.989 -1.0678 -0.9205  0.8870
17708TIP3    H274616   1.399   2.117   2.062 -1.0389  1.5224 -1.0430
17709TIP3   OH274617   6.746   0.126   3.168 -0.1807 -0.0604 -0.4509
17709TIP3    H174618   6.675   0.136   3.231 -0.8897 -0.3302 -1.1901
17709TIP3    H274619   6.702   0.112   3.084  0.7474 -0.3041 -0.9099
17710TIP3   OH274620   3.642   4.870   5.519  0.1542 -0.1511 -0.2181
17710TIP3    H174621   3.597   4.943   5.561 -0.5493 -0.9960  0.5334
17710TIP3    H274622   3.640   4.891   5.426  0.1629  0.8847  0.0017
17711TIP3   OH274623   2.096   1.541  15.062  0.6253  0.5413 -0.3194
17711TIP3    H174624   2.123   1.471  15.002  0.9018  0.7892 -0.4892
17711TIP3    H274625   2.170   1.602  15.062  0.1544  1.1337 -0.6372
17712TIP3   OH274626   6.728   5.980   2.996  0.1129  0.0340  0.2787
17712TIP3    H174627   6.722   5.907   2.935 -2.7333  1.0546 -0.8664
17712TIP3    H274628   6.799   6.034   2.962  1.5635 -1.6081  0.5539
17713TIP3   OH274629   3.254   2.696   3.591  0.0680 -0.1169 -0.5661
17713TIP3    H174630   3.331   2.672   3.642  0.2780  0.0268 -0.8128
17713TIP3    H274631   3.242   2.789   3.608 -1.0885 -0.4904  0.8473
17714TIP3   OH274632   1.860   4.302  11.863 -0.1051 -0.5168 -0.8023
17714TIP3    H174633   1.936   4.252  11.836  2.3809  1.6898  1.5079
17714TIP3    H274634   1.818   4.249  11.931  0.0492 -1.2096 -1.2435
17715TIP3   OH274635   4.908   1.997  13.425 -0.5123 -0.8110  0.2737
17715TIP3    H174636   4.877   2.026  13.511 -1.8333  0.9552 -0.7643
17715TIP3    H274637   4.979   1.935  13.446 -0.8224 -0.4686  2.6228
17716TIP3   OH274638   5.100   2.273   3.729 -0.1492 -0.3985 -0.0436
17716TIP3    H174639   5.047   2.208   3.683 -0.1280  0.3304 -1.1403
17716TIP3    H274640   5.082   2.258   3.822  0.2578 -2.2854 -0.2431
17717TIP3   OH274641   3.223   4.300  11.177 -0.2009 -0.2871  0.1296
17717TIP3    H174642   3.199   4.241  11.249 -0.0297 -1.2524 -0.5856
17717TIP3    H274643   3.140   4.324  11.137 -0.3257  0.5391  0.8520
17718TIP3   OH274644   5.535   6.312  12.067 -0.2322  0.1477  0.4132
17718TIP3    H174645   5.627   6.314  12.097 -0.7427 -0.4404  2.1876
17718TIP3    H274646   5.531   6.375  11.996  1.1740  1.4866  1.4610
17719TIP3   OH274647   5.037   1.762  16.893 -0.5540 -0.0221  0.4618
17719TIP3    H174648   5.066   1.683  16.848 -2.0781 -0.1344 -0.3713
17719TIP3    H274649   5.013   1.823  16.823 -1.5799  0.3257  1.0883
17720TIP3   OH274650   1.163   1.327   1.710  0.8953  0.3653 -0.1841
17720TIP3    H174651   1.129   1.259   1.768  3.1638 -0.7872 -0.0647
17720TIP3    H274652   1.131   1.409   1.746  2.0489 -0.3229  2.6514
17721TIP3   OH274653   2.638   4.548  15.904 -0.0375 -0.3309 -0.1329
17721TIP3    H174654   2.646   4.452  15.898 -0.7946 -0.4960  1.1254
17721TIP3    H274655   2.620   4.575  15.814 -3.0425 -1.7457 -0.0950
17722TIP3   OH274656   6.490   6.810  15.134  0.5104  0.2062 -0.5079
17722TIP3    H174657   6.450   6.738  15.184 -1.7505  1.0339 -1.0101
17722TIP3    H274658   6.452   6.802  15.046  2.1690  0.5433 -1.3005
17723TIP3   OH274659   0.534   2.178   3.071 -0.2232  0.3782 -0.0817
17723TIP3    H174660   0.458   2.214   3.116  0.2256 -1.5908  2.5107
17723TIP3    H274661   0.510   2.087   3.053  0.6629  0.3824 -1.3559
17724TIP3   OH274662   2.857   4.347  13.235  0.5437  0.1186  0.1358
17724TIP3    H174663   2.822   4.377  13.151 -0.6877  2.2504  1.3032
17724TIP3    H274664   2.923   4.412  13.258  0.3990 -0.0577  1.1039
17725TIP3   OH274665   4.812   5.422  14.908 -0.0435  0.4844 -0.4110
17725TIP3    H174666   4.763   5.340  14.919  0.9802 -0.2144 -0.9424
17725TIP3    H274667   4.779   5.459  14.826  0.5284 -0.1486 -0.9386
17726TIP3   OH274668   2.028   1.272   3.440 -0.4495  0.0150 -0.3521
17726TIP3    H174669   1.961   1.210   3.411  0.0963 -0.5076 -0.5146
17726TIP3    H274670   2.011   1.352   3.390 -0.8935 -0.1455 -0.4546
17727TIP3   OH274671   5.679   3.817   0.880 -0.1528 -0.0014  0.3490
17727TIP3    H174672   5.615   3.783   0.817 -0.5217  0.3687  0.5194
17727TIP3    H274673   5.763   3.780   0.852 -0.4720 -0.6668  0.2486
17728TIP3   OH274674   0.577   5.476   6.395  0.3120  0.1816  0.0521
17728TIP3    H174675   0.496   5.424   6.391  0.0105  0.6138  0.4349
17728TIP3    H274676   0.549   5.561   6.430  0.1685  1.9040 -3.7730
17729TIP3   OH274677   1.624   3.106  15.867 -0.0795 -0.6216 -0.8108
17729TIP3    H174678   1.580   3.023  15.881 -0.9626  0.0730  0.7770
17729TIP3    H274679   1.672   3.123  15.948 -1.6823  1.4073 -0.1822
17730TIP3   OH274680   0.819   4.691   0.066  0.1116 -0.6064  0.1210
17730TIP3    H174681   0.793   4.705   0.157  1.6343  3.2997  0.1839
17730TIP3    H274682   0.905   4.650   0.072  1.4645  2.0574  0.7418
17731TIP3   OH274683   2.155   0.403  13.146 -0.4965 -0.2932 -0.3653
17731TIP3    H174684   2.128   0.399  13.054  0.7156 -1.5922 -0.7072
17731TIP3    H274685   2.078   0.374  13.194 -0.6118 -1.2996 -1.1209
17732TIP3   OH274686   4.520   6.524  11.491  0.6521 -0.4741  0.7380
17732TIP3    H174687   4.470   6.494  11.567  1.2672 -2.1787  0.5168
17732TIP3    H274688   4.611   6.523  11.521  0.7271  1.0028  0.6322
17733TIP3   OH274689   2.668   0.912   6.492  0.0064  0.2103 -0.4509
17733TIP3    H174690   2.576   0.906   6.466 -0.2299  3.1681 -0.6511
17733TIP3    H274691   2.665   0.940   6.583  0.7010  0.5730 -0.5324
17734TIP3   OH274692   0.693   6.547  15.941  0.0664  0.1408 -0.1677
17734TIP3    H174693   0.694   6.638  15.910 -1.0868  0.0140 -0.6293
17734TIP3    H274694   0.778   6.512  15.914 -0.6386  0.1940 -2.7622
17735TIP3   OH274695   1.094   5.068  13.760 -0.0111  0.0692  0.1377
17735TIP3    H174696   1.169   5.057  13.818 -1.4760 -1.9183  1.8027
17735TIP3    H274697   1.018   5.073  13.819 -1.3679  0.1351 -1.5360
17736TIP3   OH274698   0.922   5.564   2.049  0.3259 -0.1004 -0.0526
17736TIP3    H174699   0.940   5.512   1.971 -0.1386  0.6744 -0.6991
17736TIP3    H274700   0.969   5.646   2.034 -0.5092  0.4106  0.0445
17737TIP3   OH274701   6.726   5.607   3.154 -0.3489 -0.7312  0.1888
17737TIP3    H174702   6.669   5.683   3.146  0.2267 -0.4891 -3.1888
17737TIP3    H274703   6.701   5.551   3.080  0.9306 -2.6337  1.1190
17738TIP3   OH274704   4.582   1.158  16.623 -0.5025 -0.3431  0.3190
17738TIP3    H174705   4.655   1.203  16.580 -0.2067 -0.0098  1.1686
17738TIP3    H274706   4.504   1.199  16.586 -0.2517  1.7245  1.9103
17739TIP3   OH274707   2.033   6.312   3.729 -0.0910 -0.1191  0.4841
17739TIP3    H174708   2.019   6.228   3.684 -0.1849 -0.4146  1.0517
17739TIP3    H274709   2.106   6.294   3.788 -0.1254  0.1962  0.6192
17740TIP3   OH274710   3.557   5.249   1.708  0.1740  0.0741 -0.2665
17740TIP3    H174711   3.650   5.232   1.717  0.7772  2.1385 -1.7381
17740TIP3    H274712   3.549   5.296   1.625 -2.2151 -0.2276 -0.2838
17741TIP3   OH274713   5.875   3.371   5.338 -0.0810  0.2348 -0.2602
17741TIP3    H174714   5.843   3.459   5.357 -0.0224  0.2604 -0.2811
17741TIP3    H274715   5.852   3.320   5.415 -0.0296  0.2905 -0.2073
17742TIP3   OH274716   3.105   1.674  14.793  0.2446  0.2154 -0.1624
17742TIP3    H174717   3.027   1.682  14.847  0.0983 -1.8180  0.0392
17742TIP3    H274718   3.072   1.656  14.705  0.2122 -4.5857  0.5358
17743TIP3   OH274719   5.796   3.698  11.055  0.5434  0.5458 -0.3906
17743TIP3    H174720   5.704   3.721  11.042  0.3518  0.4721  0.7450
17743TIP3    H274721   5.844   3.763  11.004 -0.0135  2.9749  1.9531
17744TIP3   OH274722   1.085   4.147  12.783  0.6519 -0.0229  0.7551
17744TIP3    H174723   1.067   4.111  12.696 -0.8641  0.2889  0.9082
17744TIP3    H274724   1.124   4.075  12.832  0.7095 -0.4518  0.0823
17745TIP3   OH274725   1.199   0.056  15.843 -0.5257  0.2900  0.5838
17745TIP3    H174726   1.242   0.137  15.815  0.7463 -0.1356  1.2285
17745TIP3    H274727   1.139   0.085  15.912 -1.1417  0.8614 -0.1687
17746TIP3   OH274728   4.418   1.323   2.751  0.0936 -0.5648 -0.1147
17746TIP3    H174729   4.353   1.280   2.696  0.6837 -1.8578  0.1509
17746TIP3    H274730   4.502   1.286   2.723  0.6544  0.6213 -0.0422
17747TIP3   OH274731   6.713   5.574  16.300 -0.0046  0.4758  0.7238
17747TIP3    H174732   6.669   5.545  16.380  0.3682  2.0184  1.5436
17747TIP3    H274733   6.785   5.629  16.332 -0.2884  1.7131 -0.6897
17748TIP3   OH274734   0.014   1.344   4.595 -0.1023  0.1191  0.1204
17748TIP3    H174735   0.073   1.277   4.560  0.5131 -0.1888  1.6683
17748TIP3    H274736  -0.051   1.358   4.525  0.4481 -1.2180 -0.6940
17749TIP3   OH274737   2.229   3.654   4.944 -0.9045 -0.0914 -0.1757
17749TIP3    H174738   2.313   3.622   4.911 -1.7734 -0.4092 -2.1955
17749TIP3    H274739   2.251   3.731   4.996  0.9188 -1.9195  2.0110
17750TIP3   OH274740   4.864   3.497   6.948 -0.5414  0.0648 -0.1687
17750TIP3    H174741   4.913   3.559   7.001  1.2470 -1.4706  0.0767
17750TIP3    H274742   4.820   3.551   6.882 -1.2981  1.8128  1.6788
17751TIP3   OH274743   2.260   6.246  13.272 -0.2908  0.0727  0.2771
17751TIP3    H174744   2.170   6.230  13.242  0.0145 -1.3419  0.0220
17751TIP3    H274745   2.282   6.168  13.323 -0.0415  1.4922  2.4528
17752TIP3   OH274746   2.939   3.948   2.568  0.3817 -0.5252 -0.0463
17752TIP3    H174747   2.897   3.907   2.644  0.1314  1.7919  1.1773
17752TIP3    H274748   2.983   4.026   2.605  2.1125 -0.5072 -1.9609
17753TIP3   OH274749   3.055   2.848   1.609  0.2647  0.3594  0.0672
17753TIP3    H174750   3.035   2.755   1.595  0.4703  0.3206  0.0346
17753TIP3    H274751   3.098   2.851   1.694  1.6864  0.2206 -0.6162
17754TIP3   OH274752   3.747   0.665   0.807  0.0467 -0.4666 -0.1980
17754TIP3    H174753   3.731   0.615   0.887 -1.9359  1.9194  1.0151
17754TIP3    H274754   3.832   0.706   0.820 -0.1573 -0.2902  0.5875
17755TIP3   OH274755   1.391   3.097  13.601  0.6669 -0.1247  0.2492
17755TIP3    H174756   1.313   3.111  13.548  0.4101  0.2715  0.7240
17755TIP3    H274757   1.462   3.092  13.538  0.1535 -1.4032 -0.2630
17756TIP3   OH274758   6.084   5.209  12.960  0.4967  0.2796 -0.0285
17756TIP3    H174759   6.107   5.229  13.051  0.6490 -0.7558  0.1708
17756TIP3    H274760   6.126   5.125  12.942 -2.1404 -1.1341 -0.0297
17757TIP3   OH274761   4.167   3.122  10.456  0.0699 -0.2704 -0.0293
17757TIP3    H174762   4.084   3.088  10.423  0.2138 -0.1733 -0.4988
17757TIP3    H274763   4.219   3.044  10.474 -0.0401 -0.3249  0.0589
17758TIP3   OH274764   2.329   5.584   5.797  0.2376  0.0312 -0.4541
17758TIP3    H174765   2.303   5.639   5.872 -0.3206 -2.0156  0.9446
17758TIP3    H274766   2.404   5.534   5.830  1.1714  0.4126 -1.9282
17759TIP3   OH274767   0.151   4.069   1.870  0.0268 -0.3547 -0.3562
17759TIP3    H174768   0.210   4.111   1.933  2.3940 -0.8276 -2.0979
17759TIP3    H274769   0.148   4.130   1.796 -2.2665 -0.0511 -0.0877
17760TIP3   OH274770   2.813   2.260   5.010  0.0917  0.3703  0.3635
17760TIP3    H174771   2.802   2.353   5.026 -0.2838  0.3486  0.2626
17760TIP3    H274772   2.749   2.218   5.068  0.7495  0.1356  0.9302
17761TIP3   OH274773   6.213   0.739  13.147  0.0595  0.3919  0.1454
17761TIP3    H174774   6.280   0.804  13.124  0.9765 -1.1325 -1.7330
17761TIP3    H274775   6.200   0.688  13.068 -1.4560 -1.0384  1.2381
17762TIP3   OH274776   6.486   5.189  13.153  0.0638 -0.1507  0.4402
17762TIP3    H174777   6.527   5.128  13.091 -0.2551 -0.7338  0.7872
17762TIP3    H274778   6.416   5.137  13.193  0.0615  0.3223  1.0501
17763TIP3   OH274779   0.203   2.320   3.661 -0.4923 -0.0069 -0.3746
17763TIP3    H174780   0.117   2.363   3.670 -0.2739  0.3924 -0.1797
17763TIP3    H274781   0.263   2.392   3.642  0.2258  0.0620  1.9489
17764TIP3   OH274782   2.909   4.214   6.056 -0.1475  0.0601 -0.7661
17764TIP3    H174783   2.914   4.153   5.982  0.5606 -0.5853 -0.1973
17764TIP3    H274784   2.816   4.232   6.066 -0.1727  1.4709 -2.8717
17765TIP3   OH274785   2.480   4.086   4.003  0.0897  0.5857 -0.1289
17765TIP3    H174786   2.404   4.103   3.947 -0.2735 -0.4614  0.0222
17765TIP3    H274787   2.505   3.996   3.981  1.0585  0.7933  0.0947
17766TIP3   OH274788   2.598   3.222   5.868 -0.2497 -0.3415  0.2538
17766TIP3    H174789   2.535   3.185   5.807 -1.6570  2.0459  0.0988
17766TIP3    H274790   2.558   3.211   5.954 -0.1249 -0.2424  0.3260
17767TIP3   OH274791   0.755   2.460   0.543 -0.3014  0.6718 -0.6636
17767TIP3    H174792   0.779   2.371   0.518 -1.1012 -0.1228  1.2497
17767TIP3    H274793   0.815   2.482   0.614 -1.0342  1.1070 -0.1644
17768TIP3   OH274794   0.492   4.306   0.986 -0.7563 -0.1627 -0.2663
17768TIP3    H174795   0.422   4.263   1.035 -1.0926  0.4249 -0.2153
17768TIP3    H274796   0.562   4.320   1.050 -1.1529  0.5116  0.0331
17769TIP3   OH274797   0.204   2.276   0.456 -0.6456  0.2329 -0.3468
17769TIP3    H174798   0.148   2.204   0.486 -0.7848  0.4961  0.0343
17769TIP3    H274799   0.152   2.320   0.389 -0.8791  0.4530 -0.0213
17770TIP3   OH274800   6.174   6.582  13.923 -0.1529 -0.0386  0.2549
17770TIP3    H174801   6.145   6.605  14.011 -0.2135 -0.4226  0.3383
17770TIP3    H274802   6.224   6.658  13.894 -2.0417  1.0603 -0.2743
17771TIP3   OH274803   1.748   5.089   2.084  0.0354 -0.0583  0.2319
17771TIP3    H174804   1.753   5.171   2.036 -0.6407  1.6109  2.7911
17771TIP3    H274805   1.655   5.071   2.093  0.1566 -0.5953  0.4758
17772TIP3   OH274806   3.708   6.013  17.212 -0.3327  0.4186  0.5169
17772TIP3    H174807   3.650   5.973  17.147 -0.2940  0.6259  0.3508
17772TIP3    H274808   3.649   6.053  17.276 -0.3693 -0.3778  0.9841
17773TIP3   OH274809   5.857   1.301   4.128 -0.3129  0.2836 -0.1546
17773TIP3    H174810   5.889   1.214   4.155 -1.7026 -0.1277  0.2719
17773TIP3    H274811   5.768   1.284   4.097 -0.8958  1.6930  0.7089
17774TIP3   OH274812   4.180   3.186   4.961 -0.1644  0.8078  0.0370
17774TIP3    H174813   4.230   3.236   5.025 -1.2056  1.8163  0.1024
17774TIP3    H274814   4.141   3.114   5.011 -2.0600  2.3301  0.9082
17775TIP3   OH274815   5.543   1.540   3.220  0.0976  0.5374 -0.4910
17775TIP3    H174816   5.512   1.626   3.249 -1.7455 -0.3440  0.2897
17775TIP3    H274817   5.581   1.500   3.298 -1.6236 -0.4258 -0.0907
17776TIP3   OH274818   0.906   4.524  10.846  0.0461 -0.5164  0.0121
17776TIP3    H174819   0.987   4.479  10.871  0.1189 -0.7382 -0.6141
17776TIP3    H274820   0.866   4.549  10.930  0.4434 -0.9696  0.3429
17777TIP3   OH274821   1.361   4.249  16.234  0.2257  0.4642  0.1393
17777TIP3    H174822   1.378   4.307  16.308 -0.8056  0.3133  0.5174
17777TIP3    H274823   1.421   4.278  16.166  1.1289  0.6657  1.0006
17778TIP3   OH274824   1.734   5.963   1.886  0.5338 -0.4405  0.2899
17778TIP3    H174825   1.749   5.918   1.803  1.9525 -1.7673  1.2047
17778TIP3    H274826   1.639   5.977   1.889  0.4426 -0.5389 -1.4487
17779TIP3   OH274827   4.218   4.416   6.072  0.0726  0.3292 -0.2373
17779TIP3    H174828   4.186   4.444   6.158 -0.5661  0.1317 -0.4071
17779TIP3    H274829   4.145   4.430   6.013 -0.6007 -2.4320 -0.2003
17780TIP3   OH274830   0.635   6.228   5.447 -0.3996  0.1384 -0.4895
17780TIP3    H174831   0.711   6.190   5.492 -0.5351 -2.0006 -1.9352
17780TIP3    H274832   0.655   6.322   5.442  1.8464 -0.2655 -0.2628
17781TIP3   OH274833   5.515   6.555  12.769  0.0503 -0.6012 -0.2161
17781TIP3    H174834   5.424   6.573  12.790  0.5183 -0.2897  1.7617
17781TIP3    H274835   5.564   6.627  12.809  1.0752  0.0986 -2.6040
17782TIP3   OH274836   6.334   4.663  15.735  0.4705  0.5207  0.2169
17782TIP3    H174837   6.373   4.616  15.809  0.6880 -0.6539 -0.6172
17782TIP3    H274838   6.241   4.638  15.737  0.6701 -0.3581 -0.4919
17783TIP3   OH274839   6.785   0.129   2.578 -0.6326 -0.1471  0.3799
17783TIP3    H174840   6.792   0.066   2.506  0.1470 -1.0125  1.1958
17783TIP3    H274841   6.728   0.198   2.543 -1.7847 -1.4431 -0.4380
17784TIP3   OH274842   5.495   0.396   0.389  0.1571  0.0344 -0.2286
17784TIP3    H174843   5.549   0.391   0.468 -0.2913  2.3087  0.2779
17784TIP3    H274844   5.406   0.380   0.420  0.1691 -0.7024 -0.5621
17785TIP3   OH274845   5.639   4.515  16.052 -0.4403 -0.0537  0.0481
17785TIP3    H174846   5.567   4.566  16.014 -0.3853  0.0659  0.1035
17785TIP3    H274847   5.638   4.432  16.004 -1.5349 -0.6234  0.9976
17786TIP3   OH274848   6.297   5.940  14.346  0.2013 -0.1948  0.1028
17786TIP3    H174849   6.373   5.983  14.309 -0.0213 -0.2881 -0.4758
17786TIP3    H274850   6.236   5.931  14.272  0.7847 -2.7405 -0.1483
17787TIP3   OH274851   4.860   1.809   3.290 -0.2186  0.1350 -0.0785
17787TIP3    H174852   4.816   1.875   3.344 -0.9728  0.9337 -1.5929
17787TIP3    H274853   4.818   1.817   3.205  1.2563 -0.7481 -0.9234
17788TIP3   OH274854   0.252   3.769  15.939 -0.2746  0.0338  0.3935
17788TIP3    H174855   0.224   3.801  15.853  1.9781  0.1526 -0.3493
17788TIP3    H274856   0.300   3.689  15.920  0.1347 -0.0086  1.5623
17789TIP3   OH274857   2.285   4.857   6.481 -0.5894  0.1823  0.3936
17789TIP3    H174858   2.197   4.843   6.516  0.1385 -0.0953  2.1976
17789TIP3    H274859   2.279   4.941   6.435 -1.7341  0.2746  0.6822
17790TIP3   OH274860   2.185   2.600  13.394 -0.2310 -0.1385  0.0706
17790TIP3    H174861   2.242   2.663  13.349 -1.1708  0.3246 -0.5003
17790TIP3    H274862   2.205   2.613  13.487  0.5032  0.1012 -0.1112
17791TIP3   OH274863   3.691   6.096   2.813 -0.3649  0.0069 -1.1356
17791TIP3    H174864   3.657   6.112   2.725 -2.4359 -1.5015 -0.6981
17791TIP3    H274865   3.710   6.183   2.848 -0.3844  0.6872 -2.7257
17792TIP3   OH274866   0.584   1.599  16.706 -0.1739  0.0909  0.3311
17792TIP3    H174867   0.604   1.526  16.648 -0.5259  0.5849 -0.4224
17792TIP3    H274868   0.496   1.627  16.680 -0.8567 -0.4454  1.9043
17793TIP3   OH274869   4.987   2.532  12.638 -0.4295 -0.4251  0.1214
17793TIP3    H174870   4.966   2.439  12.632 -0.8310 -0.2548 -1.5756
17793TIP3    H274871   5.064   2.535  12.695 -0.8433 -1.7076  0.7929
17794TIP3   OH274872   1.717   3.177  11.053 -0.8174  0.5550  0.6030
17794TIP3    H174873   1.745   3.095  11.012 -1.8278  0.7959 -0.6073
17794TIP3    H274874   1.753   3.245  10.996 -1.4786  0.9179  0.6166
17795TIP3   OH274875   5.964   0.544   1.385 -0.2303  0.3382  0.5205
17795TIP3    H174876   5.967   0.478   1.454 -0.8051 -1.1965 -0.8522
17795TIP3    H274877   5.894   0.604   1.412  1.6178  1.6409  2.7882
17796TIP3   OH274878   2.308   2.691  11.089  0.7539  0.0095 -0.0524
17796TIP3    H174879   2.268   2.766  11.133  1.4199  0.7684 -0.7199
17796TIP3    H274880   2.276   2.695  10.999  3.1562  1.3206 -0.9279
17797TIP3   OH274881   0.349   5.169  15.298  0.6088 -0.6745 -0.5633
17797TIP3    H174882   0.335   5.087  15.346 -0.8604 -1.5778 -2.4315
17797TIP3    H274883   0.272   5.178  15.241  0.6721  2.0732 -0.3684
17798TIP3   OH274884   2.431   3.110  15.820  0.5205 -0.1053  0.3411
17798TIP3    H174885   2.462   3.061  15.744 -0.7146  0.3877 -0.5153
17798TIP3    H274886   2.362   3.055  15.857  0.2341  0.2429  0.3274
17799TIP3   OH274887   2.406   5.678   0.418  0.4316  0.4567  0.0898
17799TIP3    H174888   2.479   5.619   0.397  0.3043  0.6171 -0.8571
17799TIP3    H274889   2.448   5.759   0.445  0.6119 -0.0928  1.5429
17800TIP3   OH274890   0.510   3.039  15.485  0.3676  0.1898  0.3368
17800TIP3    H174891   0.513   2.975  15.414  0.1482 -0.5394  0.9732
17800TIP3    H274892   0.420   3.073  15.483  0.4095  0.2905  0.1620
17801TIP3   OH274893   2.306   5.510  11.671 -0.2806  0.4012  0.3700
17801TIP3    H174894   2.242   5.497  11.600  0.1417  3.9760 -0.8791
17801TIP3    H274895   2.386   5.468  11.639 -0.2764  1.4086 -1.0456
17802TIP3   OH274896   6.411   0.095   0.436  0.7690 -0.2134 -0.3423
17802TIP3    H174897   6.358   0.128   0.364 -1.1319 -0.6606  0.7841
17802TIP3    H274898   6.348   0.056   0.497  2.3795 -0.6038  1.1679
17803TIP3   OH274899   2.544   3.357   0.640 -0.1102  0.4627  0.3394
17803TIP3    H174900   2.463   3.309   0.659  0.9186 -1.3409  0.3261
17803TIP3    H274901   2.573   3.390   0.724 -0.6922  0.8785  0.3867
17804TIP3   OH274902   5.880   6.570  14.214  0.4645 -0.3403 -0.1954
17804TIP3    H174903   5.884   6.492  14.160  0.9706 -0.0205 -0.6263
17804TIP3    H274904   5.948   6.628  14.179  0.2169  0.2224  0.2273
17805TIP3   OH274905   1.723   2.210   3.206  0.4359 -0.6604  0.1694
17805TIP3    H174906   1.660   2.151   3.248 -0.2737  0.7035  1.0553
17805TIP3    H274907   1.673   2.288   3.185  1.3550 -0.3650 -1.0611
17806TIP3   OH274908   4.043   4.122   3.157 -0.0054  0.2065  0.1951
17806TIP3    H174909   4.128   4.152   3.126 -0.0110 -0.1508 -0.1818
17806TIP3    H274910   4.035   4.034   3.121  0.5527 -0.7574  2.2322
17807TIP3   OH274911   6.657   3.175  11.608  0.5161  0.3333  0.1836
17807TIP3    H174912   6.750   3.193  11.623  0.4615  1.3855 -0.6802
17807TIP3    H274913   6.629   3.241  11.545 -1.0561  0.6538  1.1576
17808TIP3   OH274914   3.614   4.840  16.111 -1.4112 -1.0892 -0.1001
17808TIP3    H174915   3.522   4.811  16.111 -1.4888 -0.8747  0.7342
17808TIP3    H274916   3.644   4.823  16.201 -0.9666 -0.1357 -0.0612
17809TIP3   OH274917   5.789   5.667   4.744  0.1558  0.1100  0.5889
17809TIP3    H174918   5.733   5.638   4.672  2.2365  1.9791 -1.9669
17809TIP3    H274919   5.778   5.600   4.811 -1.9552 -1.7087 -1.3932
17810TIP3   OH274920   6.330   5.670  15.090  0.0902  0.0521  0.0325
17810TIP3    H174921   6.296   5.748  15.047 -2.3853 -1.1689 -0.4091
17810TIP3    H274922   6.347   5.609  15.018  1.8139  0.0661  0.3880
17811TIP3   OH274923   1.801   5.496   6.552  0.1592 -0.5272 -0.1844
17811TIP3    H174924   1.776   5.586   6.574 -1.4258 -1.1938  0.8588
17811TIP3    H274925   1.745   5.472   6.479 -0.5439 -1.1812  0.5498
17812TIP3   OH274926   4.174   3.372   0.313  0.3687  0.4950 -0.1062
17812TIP3    H174927   4.225   3.452   0.312 -1.1355  1.5954  2.0582
17812TIP3    H274928   4.226   3.310   0.364  1.7797 -0.1655 -2.2366
17813TIP3   OH274929   4.199   4.785   0.317  0.1527  0.0168 -0.0018
17813TIP3    H174930   4.130   4.753   0.259 -1.5200  1.7894  0.8744
17813TIP3    H274931   4.246   4.850   0.264  0.2941 -0.2274 -0.1780
17814TIP3   OH274932   5.335   4.684  13.665  0.7174 -0.3184  0.0037
17814TIP3    H174933   5.264   4.671  13.728 -0.0160 -1.7487 -1.0665
17814TIP3    H274934   5.305   4.755  13.609  1.1708  0.6428  0.9417
17815TIP3   OH274935   3.104   3.450   3.549  0.3716 -0.0886 -0.2687
17815TIP3    H174936   3.059   3.418   3.627  0.4715 -1.0585 -0.5948
17815TIP3    H274937   3.186   3.487   3.581  0.0497  0.2417  0.1666
17816TIP3   OH274938   2.498   1.856   2.488 -0.3028  0.3428 -0.2753
17816TIP3    H174939   2.449   1.832   2.410 -0.0260  1.6842 -0.8957
17816TIP3    H274940   2.557   1.783   2.504 -1.2984 -0.5412 -0.5147
17817TIP3   OH274941   0.688   0.483  11.377  0.0020  0.3190  0.0567
17817TIP3    H174942   0.676   0.390  11.396  1.3554  0.1259  0.0937
17817TIP3    H274943   0.726   0.519  11.457  2.0465  0.3196 -0.8564
17818TIP3   OH274944   1.162   4.958  14.347  0.4501  0.4502  0.3012
17818TIP3    H174945   1.120   4.911  14.419 -0.1136  1.5756  0.7354
17818TIP3    H274946   1.121   5.044  14.347  0.3818  0.4576 -1.4280
17819TIP3   OH274947   1.138   4.504  16.194  0.7908 -0.1198 -0.4983
17819TIP3    H174948   1.230   4.514  16.171  1.1641  1.3077  1.3959
17819TIP3    H274949   1.139   4.486  16.288 -0.8453 -0.6658 -0.5646
17820TIP3   OH274950   4.356   5.418   5.502  0.2426 -0.0038  0.3537
17820TIP3    H174951   4.421   5.362   5.543 -0.0188 -1.4096 -1.0809
17820TIP3    H274952   4.293   5.437   5.572  0.3285 -1.5271  0.8714
17821TIP3   OH274953   1.365   1.681  14.865  0.3303 -0.0927 -0.3290
17821TIP3    H174954   1.402   1.647  14.783 -0.2570  0.8411 -0.9882
17821TIP3    H274955   1.273   1.657  14.862 -0.4438  2.6113 -1.4527
17822TIP3   OH274956   6.231   0.567  16.493  0.3212  0.3076  0.1924
17822TIP3    H174957   6.229   0.472  16.478  3.0411  0.1903  0.1055
17822TIP3    H274958   6.144   0.597  16.466 -0.4789 -2.0829 -0.1720
17823TIP3   OH274959   3.393   5.477   2.669 -0.0801 -0.0566 -0.7046
17823TIP3    H174960   3.399   5.401   2.726  1.8320 -0.3463 -1.2187
17823TIP3    H274961   3.484   5.494   2.642 -0.4092  2.5523 -0.4073
17824TIP3   OH274962   4.700   2.571   3.849 -0.3270 -0.3401  0.0976
17824TIP3    H174963   4.654   2.640   3.897  1.0696  0.4063  0.4393
17824TIP3    H274964   4.767   2.539   3.909 -0.0449 -1.0126 -0.5482
17825TIP3   OH274965   3.408   1.683   1.418 -0.0057 -0.6483  0.7257
17825TIP3    H174966   3.469   1.757   1.418  1.8620 -2.1044  0.4986
17825TIP3    H274967   3.433   1.632   1.341 -0.4542 -2.1253  1.5200
17826TIP3   OH274968   3.441   4.410   2.832  0.6886 -0.2898  0.0047
17826TIP3    H174969   3.379   4.348   2.870 -0.4366  0.6122 -0.3142
17826TIP3    H274970   3.409   4.496   2.858  2.9428  0.1951  1.5409
17827TIP3   OH274971   0.480   2.300  13.798  0.0608 -0.1923  0.2469
17827TIP3    H174972   0.545   2.351  13.845  1.0277 -1.6294  0.5425
17827TIP3    H274973   0.527   2.263  13.724 -1.3048  1.5774 -1.6105
17828TIP3   OH274974   2.753   4.136   0.512 -0.2521 -0.5482 -0.1392
17828TIP3    H174975   2.842   4.113   0.483  0.7320 -0.4251  2.5362
17828TIP3    H274976   2.738   4.081   0.588 -0.8551  2.1753  1.8456
17829TIP3   OH274977   1.162   4.543   4.807  0.4246 -0.4028  0.2981
17829TIP3    H174978   1.214   4.478   4.853  2.0146  0.3755 -0.3137
17829TIP3    H274979   1.071   4.523   4.831  0.9883 -1.7935  1.4143
17830TIP3   OH274980   2.705   5.309   2.141 -0.2485 -0.7783  0.1426
17830TIP3    H174981   2.611   5.304   2.127 -0.2112 -1.7997  0.1376
17830TIP3    H274982   2.718   5.279   2.231  0.0437 -0.3589  0.2420
17831TIP3   OH274983   0.440   1.448   3.606  0.5771 -0.4929 -0.0639
17831TIP3    H174984   0.354   1.490   3.604  0.9434  0.2552 -1.3567
17831TIP3    H274985   0.425   1.365   3.650 -1.0090 -0.8041 -1.0892
17832TIP3   OH274986   6.798   2.954  13.772 -0.0507 -0.3216 -0.2004
17832TIP3    H174987   6.840   2.965  13.687 -0.4750 -0.9960 -0.5065
17832TIP3    H274988   6.870   2.940  13.834  0.2321 -0.2253 -0.5075
17833TIP3   OH274989   4.829   2.735   4.465  0.0710 -0.0098  0.1822
17833TIP3    H174990   4.751   2.782   4.495  1.2540  2.2848 -0.1003
17833TIP3    H274991   4.853   2.778   4.383  0.1629 -2.4304 -1.1514
17834TIP3   OH274992   1.973   3.944   0.260  0.2034  0.1130 -0.1549
17834TIP3    H174993   1.988   3.905   0.173  1.3987  2.0052 -0.8407
17834TIP3    H274994   2.000   3.876   0.321  2.3620 -0.1565 -1.3139
17835TIP3   OH274995   5.890   1.120   4.575 -0.1984 -0.3101  0.2359
17835TIP3    H174996   5.810   1.162   4.544  0.1031  1.0015  1.1389
17835TIP3    H274997   5.929   1.183   4.635  1.2526 -1.1371  0.2288
17836TIP3   OH274998   6.227   5.142   5.140  0.0755 -0.8651 -0.4011
17836TIP3    H174999   6.290   5.141   5.212 -0.2422  1.0351 -0.0438
17836TIP3    H275000   6.265   5.202   5.076 -1.0478 -0.2019 -0.4705
17837TIP3   OH275001   2.885   4.236  15.254  0.1120  0.2740  0.0544
17837TIP3    H175002   2.877   4.274  15.167  1.2265  2.1624  0.7037
17837TIP3    H275003   2.858   4.307  15.313  1.5016 -0.1820  1.3075
17838TIP3   OH275004   4.716   0.097   0.253 -0.1834 -0.1436 -0.1822
17838TIP3    H175005   4.711   0.002   0.263  0.5214 -0.1467  0.2042
17838TIP3    H275006   4.803   0.113   0.217  0.0830  0.4213  0.6853
17839TIP3   OH275007   0.382   3.356  11.767  0.3013  0.6887 -0.3271
17839TIP3    H175008   0.310   3.293  11.773  0.9905 -0.1295 -0.5375
17839TIP3    H275009   0.368   3.400  11.683  1.1599 -0.8972 -1.3616
17840TIP3   OH275010   1.380   5.121  14.872  0.2956  0.0672 -0.1416
17840TIP3    H175011   1.303   5.174  14.891  0.4609  0.5936 -0.8740
17840TIP3    H275012   1.346   5.033  14.859  0.0598 -0.1137  1.4769
17841TIP3   OH275013   1.292   2.124  13.870 -0.6414 -0.5302  0.1681
17841TIP3    H175014   1.303   2.171  13.953 -1.0607  0.0106 -0.0824
17841TIP3    H275015   1.211   2.075  13.881 -1.9778  1.3613 -0.7628
17842TIP3   OH275016   2.835   2.022  15.893 -0.8135  0.0181  0.1090
17842TIP3    H175017   2.880   1.941  15.871 -1.0711  0.3301 -1.7443
17842TIP3    H275018   2.871   2.048  15.977 -0.9690 -2.1832  0.9219
17843TIP3   OH275019   0.526   5.311  14.284  0.7070  0.2726  0.0747
17843TIP3    H175020   0.566   5.377  14.340  0.8381  1.0986 -0.9587
17843TIP3    H275021   0.464   5.265  14.340  0.4840  1.3928  0.7721
17844TIP3   OH275022   2.920   4.006  13.300 -0.8024  0.0084 -0.0416
17844TIP3    H175023   2.922   4.098  13.273 -3.1738 -0.5919 -2.8082
17844TIP3    H275024   3.008   3.989  13.332 -0.1859  3.1239  0.2987
17845TIP3   OH275025   6.419   2.117   0.235 -0.2207 -0.0770  0.0457
17845TIP3    H175026   6.478   2.117   0.160  0.8370  1.1297  0.8402
17845TIP3    H275027   6.336   2.150   0.200  0.2691  0.4837 -0.5941
17846TIP3   OH275028   4.459   4.826  13.344  0.1646  0.4784  0.3371
17846TIP3    H175029   4.451   4.759  13.276  0.0976 -1.0556  1.8048
17846TIP3    H275030   4.534   4.799  13.396 -0.6881  0.7703  1.7752
17847TIP3   OH275031   0.234   4.493  12.139  0.6907  0.3534 -0.3075
17847TIP3    H175032   0.245   4.420  12.200 -1.7389 -1.3579 -1.7428
17847TIP3    H275033   0.290   4.472  12.065  2.0420  1.3710  0.3903
17848TIP3   OH275034   1.450   1.618   1.639 -0.0869  0.0505 -0.0640
17848TIP3    H175035   1.438   1.532   1.680  2.4192 -0.6425 -0.6393
17848TIP3    H275036   1.373   1.668   1.667 -0.6984 -1.7756  1.8143
17849TIP3   OH275037   2.837   5.202   0.957 -0.3033  0.5190 -0.5406
17849TIP3    H175038   2.824   5.145   0.882 -0.6293 -0.0815 -0.0320
17849TIP3    H275039   2.923   5.177   0.991  0.1208  1.2158 -1.0707
17850TIP3   OH275040   4.740   6.295   1.858 -0.1015 -0.3651 -0.3860
17850TIP3    H175041   4.652   6.261   1.847 -1.3484  2.0743  1.1325
17850TIP3    H275042   4.745   6.369   1.797  0.4691  0.2100  0.3392
17851TIP3   OH275043   5.226   2.430   2.890 -0.1403 -0.1494 -0.4228
17851TIP3    H175044   5.159   2.493   2.913 -0.6526 -0.7749 -0.1547
17851TIP3    H275045   5.192   2.346   2.922  1.4319 -0.2671  1.0637
17852TIP3   OH275046   4.788   6.457   1.648  0.1616  0.0989 -0.2748
17852TIP3    H175047   4.862   6.518   1.654  1.9750 -2.0981  1.5192
17852TIP3    H275048   4.741   6.484   1.569  1.3069  3.2625 -0.0056
17853TIP3   OH275049   1.481   0.945   1.066 -0.2058 -0.5461  0.1180
17853TIP3    H175050   1.569   0.908   1.064  0.2492  0.5155 -0.4494
17853TIP3    H275051   1.492   1.031   1.106 -0.8859 -0.1764 -0.4695
17854TIP3   OH275052   0.595   2.115  12.618  0.1143 -0.1500  0.6271
17854TIP3    H175053   0.613   2.086  12.529  1.1636  2.4794 -0.0977
17854TIP3    H275054   0.535   2.048  12.653 -0.4339 -1.1935 -2.0411
17855TIP3   OH275055   3.056   0.423  16.560  0.2927 -0.1876  0.5502
17855TIP3    H175056   3.072   0.517  16.562 -0.2251 -0.0453 -0.9645
17855TIP3    H275057   3.138   0.385  16.529  0.2100 -0.1614  0.3031
17856TIP3   OH275058   4.534   1.481  13.030 -0.4026 -0.3657 -0.4176
17856TIP3    H175059   4.489   1.397  13.041 -1.7480  0.0448 -2.2643
17856TIP3    H275060   4.624   1.457  13.006 -0.5485 -1.2564 -0.1042
17857TIP3   OH275061   5.676   5.730  11.818  0.3724 -0.1573 -0.3793
17857TIP3    H175062   5.746   5.699  11.762  0.4747  1.2196 -1.0631
17857TIP3    H275063   5.702   5.819  11.842 -0.3186 -0.2460  0.7561
17858TIP3   OH275064   5.757   4.700   2.968 -0.0207  0.1777  0.0773
17858TIP3    H175065   5.711   4.617   2.980 -1.0122  0.1722 -2.7512
17858TIP3    H275066   5.823   4.681   2.901 -0.5780  1.7095 -0.9709
17859TIP3   OH275067   1.898   4.955   0.251  0.3566  0.5010 -0.6370
17859TIP3    H175068   1.902   5.046   0.221  0.5562  1.3962  1.9224
17859TIP3    H275069   1.914   4.959   0.345  0.5750 -2.2241 -0.4654
17860TIP3   OH275070   1.013   4.638   1.815  0.3012 -0.2437  0.3077
17860TIP3    H175071   0.940   4.697   1.833  0.3412 -0.8540  2.8890
17860TIP3    H275072   1.061   4.634   1.898  1.4208 -2.3416 -0.3721
17861TIP3   OH275073   5.340   4.368  15.732 -0.2584 -0.3796  0.3771
17861TIP3    H175074   5.360   4.298  15.669 -1.3392 -1.2492  0.9567
17861TIP3    H275075   5.251   4.349  15.761 -0.3321  0.8868  1.0337
17862TIP3   OH275076   5.850   5.660   1.591  0.3379  0.5109 -0.6250
17862TIP3    H175077   5.774   5.630   1.641  0.5482  0.0327 -0.5880
17862TIP3    H275078   5.846   5.755   1.597  0.8000  0.4558  0.9671
17863TIP3   OH275079   5.491   5.585   2.183 -0.0715 -0.4204  0.0536
17863TIP3    H175080   5.535   5.504   2.209 -1.1146 -1.6734 -1.8434
17863TIP3    H275081   5.427   5.601   2.252  0.6006 -0.8483  0.7828
17864TIP3   OH275082   1.443   4.612  16.127 -0.4750 -0.5719  0.3545
17864TIP3    H175083   1.478   4.528  16.095  0.1774 -0.5991  1.1121
17864TIP3    H275084   1.427   4.663  16.047 -0.7937 -1.3767 -0.1125
17865TIP3   OH275085   4.540   5.272   3.709  0.0308  0.7102  0.1174
17865TIP3    H175086   4.521   5.355   3.665  1.1984  0.2737 -1.3027
17865TIP3    H275087   4.629   5.284   3.744  0.2178  0.0498 -0.1287
17866TIP3   OH275088   6.608   0.607   2.969 -0.3651 -0.0178 -0.1766
17866TIP3    H175089   6.512   0.603   2.977 -0.3226 -1.8530  0.0243
17866TIP3    H275090   6.627   0.564   2.885  0.2755  0.4328 -0.2670
17867TIP3   OH275091   5.473   2.368   4.914  0.1441  0.6835  0.3727
17867TIP3    H175092   5.415   2.430   4.869 -0.3665 -1.2986 -1.8443
17867TIP3    H275093   5.558   2.380   4.873 -0.5997 -2.0394 -2.3394
17868TIP3   OH275094   5.796   2.236   3.935  1.0294  0.3860  0.3392
17868TIP3    H175095   5.782   2.142   3.946 -1.5805  0.4176 -1.7551
17868TIP3    H275096   5.798   2.249   3.841  2.1403  2.3618  0.5939
17869TIP3   OH275097   1.714   2.607   0.970 -0.0321 -0.0332  0.1875
17869TIP3    H175098   1.657   2.612   1.047 -0.3713  2.5534 -0.1520
17869TIP3    H275099   1.693   2.522   0.930 -1.0687 -0.6802  1.9974
17870TIP3   OH275100   6.776   6.127   4.737  0.0619  0.1466 -0.8623
17870TIP3    H175101   6.741   6.179   4.809  0.7061  0.2829 -0.6458
17870TIP3    H275102   6.700   6.111   4.681  0.0642  2.5266 -1.6724
17871TIP3   OH275103   2.454   4.347   0.786  0.0356  0.2980 -0.0788
17871TIP3    H175104   2.526   4.287   0.803 -1.0800 -1.0293  0.1144
17871TIP3    H275105   2.492   4.414   0.729  1.9610  0.8281  1.6922
17872TIP3   OH275106   5.489   4.367  13.949 -0.3316 -0.2748  0.0585
17872TIP3    H175107   5.461   4.455  13.923 -0.1395 -0.1343  0.3193
17872TIP3    H275108   5.514   4.324  13.868  0.1219  0.1056 -0.0038
17873TIP3   OH275109   6.632   5.682   1.637  0.0786  0.0945  0.2454
17873TIP3    H175110   6.628   5.695   1.731 -2.1880  2.4206 -0.0536
17873TIP3    H275111   6.724   5.660   1.619  1.2006  2.2728  2.7042
17874TIP3   OH275112   2.524   2.917  16.082 -0.3962  0.5206  0.0726
17874TIP3    H175113   2.501   2.998  16.128  0.8022 -0.0517  1.7848
17874TIP3    H275114   2.620   2.915  16.084 -0.3792 -0.4848 -0.8165
17875TIP3   OH275115   0.872   5.462   4.805 -0.2580 -0.5653  0.5258
17875TIP3    H175116   0.940   5.512   4.850 -0.5953 -1.9754  2.7551
17875TIP3    H275117   0.813   5.529   4.770  0.8116  0.6359  0.9440
17876TIP3   OH275118   3.997   1.023   1.598  0.2918 -0.2246 -1.3732
17876TIP3    H175119   3.929   1.059   1.654 -1.8119 -1.3810 -3.0561
17876TIP3    H275120   4.043   1.100   1.564 -0.2251  0.5823 -0.3037
17877TIP3   OH275121   1.909   1.366   0.904 -0.2508 -0.7624 -0.7272
17877TIP3    H175122   1.891   1.311   0.828 -1.9220 -0.1431 -0.8334
17877TIP3    H275123   1.824   1.407   0.924 -0.0670 -1.5523  1.9888
17878TIP3   OH275124   0.031   4.735  13.907  0.4421 -0.3409 -0.0924
17878TIP3    H175125  -0.059   4.767  13.902  0.9460  0.9727 -1.1919
17878TIP3    H275126   0.067   4.750  13.820  1.2671 -2.3309 -0.1537
17879TIP3   OH275127   5.903   4.676   0.265 -0.1437 -0.4307  0.3546
17879TIP3    H175128   5.990   4.687   0.227 -0.5128 -0.4928 -0.5260
17879TIP3    H275129   5.843   4.714   0.200 -0.9196 -1.9617  0.1356
17880TIP3   OH275130   3.173   6.743   3.639 -0.5674  0.0493 -0.5775
17880TIP3    H175131   3.228   6.740   3.561 -0.7420  0.9207 -0.7465
17880TIP3    H275132   3.218   6.804   3.697 -0.9079  0.0991 -0.3662
17881TIP3   OH275133   6.219   2.801   2.050 -0.2661 -0.3358  0.0139
17881TIP3    H175134   6.238   2.756   2.133 -0.7421 -0.6611 -0.0534
17881TIP3    H275135   6.141   2.853   2.069 -0.1279 -0.0792 -0.1133
17882TIP3   OH275136   5.850   3.276  17.212 -0.0540  0.2033 -0.6170
17882TIP3    H175137   5.807   3.349  17.258  0.2044  0.5048 -0.8461
17882TIP3    H275138   5.902   3.232  17.279  0.9252  1.0986 -0.7646
17883TIP3   OH275139   2.425   2.321   2.573  0.1213 -0.3117  0.6110
17883TIP3    H175140   2.359   2.376   2.616  1.4875  3.0789 -1.2417
17883TIP3    H275141   2.396   2.317   2.482  1.3244 -0.5837  0.2275
17884TIP3   OH275142   2.398   1.560   0.898 -0.1205 -0.3835 -0.2408
17884TIP3    H175143   2.432   1.648   0.883  0.6982 -0.7994 -0.9023
17884TIP3    H275144   2.308   1.573   0.928  0.0305  0.6745 -0.2298
17885TIP3   OH275145   5.730   0.353  11.594 -0.5335  0.7177  0.0273
17885TIP3    H175146   5.728   0.281  11.531 -2.3076  0.0253  0.7874
17885TIP3    H275147   5.689   0.316  11.673 -1.0326  2.4067  0.5972
17886TIP3   OH275148   0.654   6.239   2.003  0.0826  0.6480 -0.2241
17886TIP3    H175149   0.564   6.235   2.034  0.1300  1.7889  0.0836
17886TIP3    H275150   0.647   6.271   1.913  0.0888 -0.7278 -0.7378
17887TIP3   OH275151   4.536   2.932   1.345 -0.0550 -0.2693  0.1507
17887TIP3    H175152   4.608   2.994   1.360 -0.5184  0.9102 -2.1052
17887TIP3    H275153   4.457   2.983   1.366 -0.3371 -1.2041  1.5140
17888TIP3   OH275154   5.141   4.040  10.498  0.7083 -0.2536  0.8701
17888TIP3    H175155   5.133   3.945  10.500  0.0676 -0.2629 -0.7539
17888TIP3    H275156   5.215   4.059  10.556  3.5964 -2.1150 -1.8539
17889TIP3   OH275157   2.326   1.409  10.945  0.0639  0.0877  0.1109
17889TIP3    H175158   2.374   1.327  10.951 -1.6638 -1.0878 -1.3094
17889TIP3    H275159   2.361   1.452  10.866  0.7215  0.6000  0.6603
17890TIP3   OH275160   5.305   0.869  11.315 -0.1331 -0.4436 -0.1313
17890TIP3    H175161   5.358   0.825  11.249 -0.7615 -0.4553 -0.6368
17890TIP3    H275162   5.307   0.961  11.290 -2.5659 -0.7452 -1.7929
17891TIP3   OH275163   2.308   3.357   1.879  0.7807 -0.2964  0.3074
17891TIP3    H175164   2.379   3.314   1.831  1.0992 -0.9024  1.2859
17891TIP3    H275165   2.257   3.286   1.916 -0.6061  0.1337 -0.7204
17892TIP3   OH275166   5.115   5.658  13.088  0.1516 -0.3747 -0.2993
17892TIP3    H175167   5.025   5.679  13.114  0.5469 -0.7736  1.5615
17892TIP3    H275168   5.137   5.579  13.138  1.5107 -0.3234 -0.7604
17893TIP3   OH275169   4.526   1.239   3.185  0.4182  0.3077 -0.1795
17893TIP3    H175170   4.516   1.187   3.105 -0.7690  0.3515 -0.0834
17893TIP3    H275171   4.436   1.266   3.207  0.9055  1.6901  0.2368
17894TIP3   OH275172   2.025   0.315  17.053  0.4685  0.1449 -0.3380
17894TIP3    H175173   2.055   0.233  17.093 -0.6140  0.6845  1.6868
17894TIP3    H275174   2.014   0.293  16.960 -1.7323 -2.5977  0.4410
17895TIP3   OH275175   5.070   3.351   3.027  0.0654  0.0820  0.2565
17895TIP3    H175176   5.136   3.284   3.011 -1.5113 -1.3782 -0.4836
17895TIP3    H275177   4.989   3.313   2.993 -0.9200  2.3411 -0.1099
17896TIP3   OH275178   1.004   6.294   1.354 -0.1337  0.6077 -0.2089
17896TIP3    H175179   0.951   6.360   1.400 -1.2771 -0.9569  0.8178
17896TIP3    H275180   0.942   6.225   1.331  0.9227  0.1372 -1.8101
17897TIP3   OH275181   6.241   0.965  11.261  0.4480 -0.9292  0.3442
17897TIP3    H175182   6.275   0.922  11.340  0.1242 -1.4954  0.1846
17897TIP3    H275183   6.300   1.038  11.246  1.8967 -2.1439 -0.1839
17898TIP3   OH275184   3.515   6.602   1.685 -0.2522 -0.0360 -0.0853
17898TIP3    H175185   3.556   6.654   1.616 -2.0384  0.0117 -1.1721
17898TIP3    H275186   3.448   6.660   1.721  2.0563  0.8353  3.3892
17899TIP3   OH275187   4.471   5.731  15.095 -0.1728 -0.3471  0.4989
17899TIP3    H175188   4.434   5.669  15.158  0.5849 -1.3083  0.0167
17899TIP3    H275189   4.544   5.772  15.142 -0.2505 -0.3096  0.5879
17900TIP3   OH275190   6.711   4.388   5.013 -0.7130  0.2024  0.4242
17900TIP3    H175191   6.761   4.344   4.945  2.6934  1.1295  2.1316
17900TIP3    H275192   6.731   4.339   5.093 -0.1732  2.3079  1.6400
17901TIP3   OH275193   3.355   2.806  15.722  0.3514 -0.1155  0.1446
17901TIP3    H175194   3.273   2.757  15.730  0.1433  0.4923  2.5295
17901TIP3    H275195   3.388   2.783  15.635 -2.7118  0.2612 -1.2532
17902TIP3   OH275196   3.151   1.936  11.297 -0.1444 -0.2372 -0.1386
17902TIP3    H175197   3.236   1.939  11.342 -0.9583 -0.8513  1.5569
17902TIP3    H275198   3.145   2.020  11.252  0.8882  0.2773  0.6256
17903TIP3   OH275199   2.489   2.364  16.389 -0.2925  0.2156 -0.0136
17903TIP3    H175200   2.544   2.356  16.466 -1.4863  1.4404  1.0112
17903TIP3    H275201   2.484   2.275  16.354  2.4368  0.0860 -0.2709
17904TIP3   OH275202   4.583   2.948   3.555  0.5459  1.0048  0.3469
17904TIP3    H175203   4.603   2.856   3.570  0.7330  1.2317  1.6028
17904TIP3    H275204   4.504   2.948   3.500  1.1585  0.1128 -0.5741
17905TIP3   OH275205   5.032   1.978  14.874  0.4381 -0.4060  0.0407
17905TIP3    H175206   5.118   2.015  14.851 -0.7432  0.8595 -2.8646
17905TIP3    H275207   5.021   1.906  14.812 -0.9484  0.0337 -0.2506
17906TIP3   OH275208   4.970   3.365   5.147  0.0308 -0.3287 -0.0993
17906TIP3    H175209   4.991   3.407   5.065  0.4019 -0.5729 -0.1324
17906TIP3    H275210   5.046   3.309   5.166 -0.7373 -1.5317 -0.4218
17907TIP3   OH275211   5.683   6.628  16.149 -0.3309 -0.4646  0.0123
17907TIP3    H175212   5.627   6.625  16.227 -0.4045 -2.8421 -0.0393
17907TIP3    H275213   5.770   6.605  16.181 -0.1886 -0.6166 -0.4763
17908TIP3   OH275214   5.570   6.041  12.123 -0.0278 -0.1734  0.1552
17908TIP3    H175215   5.584   6.015  12.214  0.5373  0.6348  0.3095
17908TIP3    H275216   5.562   6.136  12.127  0.2105 -0.1188 -0.6706
17909TIP3   OH275217   0.749   1.824  14.984 -0.7423 -0.6224 -0.4963
17909TIP3    H175218   0.711   1.907  14.956  2.3673  0.2179 -2.8001
17909TIP3    H275219   0.818   1.848  15.046 -1.7777 -1.8091  1.1893
17910TIP3   OH275220   6.671   4.793   3.752 -0.5762 -0.2994  0.1933
17910TIP3    H175221   6.648   4.784   3.845 -2.7925 -0.8920 -0.3575
17910TIP3    H275222   6.734   4.722   3.737 -2.3800 -2.0937  0.6392
17911TIP3   OH275223   1.107   2.850   3.623  0.2360 -0.3957 -0.1522
17911TIP3    H175224   1.032   2.801   3.589  0.0402 -0.5550  0.4953
17911TIP3    H275225   1.074   2.891   3.703  0.3780  0.8392 -0.6903
17912TIP3   OH275226   0.027   1.524  12.365  0.0989  0.1065  0.9229
17912TIP3    H175227  -0.064   1.547  12.384  0.4802  1.2797  1.4537
17912TIP3    H275228   0.076   1.562  12.438  1.0044 -0.6614  0.7329
17913TIP3   OH275229   4.484   0.103   2.576 -0.0023 -0.0167 -0.4942
17913TIP3    H175230   4.391   0.115   2.591 -0.1929 -2.0149  0.3172
17913TIP3    H275231   4.526   0.144   2.651 -0.6282 -4.0360  2.4006
17914TIP3   OH275232   5.062   5.764   0.454 -0.2047  0.0971  0.2337
17914TIP3    H175233   5.105   5.797   0.533  1.2666  0.0851 -0.5272
17914TIP3    H275234   5.120   5.695   0.423 -1.6162 -1.0311  0.0330
17915TIP3   OH275235   2.437   0.320  16.198 -0.2723 -0.2540 -0.5662
17915TIP3    H175236   2.427   0.225  16.199  0.2134 -0.3128  0.4906
17915TIP3    H275237   2.349   0.353  16.215 -0.5573 -0.4931 -1.5413
17916TIP3   OH275238   2.424   5.625   5.551  0.2004 -0.3856  0.4044
17916TIP3    H175239   2.358   5.627   5.620 -2.6631 -1.2084 -2.0596
17916TIP3    H275240   2.413   5.539   5.510  2.2697 -0.2039 -0.6489
17917TIP3   OH275241   4.848   1.339   2.650 -0.5460 -0.5843 -0.0520
17917TIP3    H175242   4.808   1.426   2.653 -0.8040 -0.6708 -0.7174
17917TIP3    H275243   4.912   1.345   2.579 -0.8412 -1.0446 -0.3632
17918TIP3   OH275244   5.487   4.975  17.132 -0.3024 -0.1107  0.7605
17918TIP3    H175245   5.487   4.881  17.113 -0.3062 -0.0978  0.6968
17918TIP3    H275246   5.438   5.014  17.060 -0.8049 -0.1230  1.0931
17919TIP3   OH275247   3.203   3.627   5.331  0.0979 -0.1024  0.2955
17919TIP3    H175248   3.138   3.577   5.281  0.4927 -1.0080  0.6527
17919TIP3    H275249   3.167   3.716   5.335 -0.5201 -0.2923 -0.5554
17920TIP3   OH275250   5.139   2.473  13.761  0.5445 -0.1718  0.0948
17920TIP3    H175251   5.054   2.517  13.756  0.3266 -0.5883  0.0561
17920TIP3    H275252   5.187   2.522  13.827  1.2367  1.6626 -1.6585
17921TIP3   OH275253   0.692   0.820  11.272 -0.4442 -0.2836  0.2867
17921TIP3    H175254   0.721   0.782  11.188 -0.4870  0.0070  0.1375
17921TIP3    H275255   0.735   0.906  11.275 -1.3560  0.1913  0.0214
17922TIP3   OH275256   0.193   3.618  14.311 -0.4903  0.2506 -0.7161
17922TIP3    H175257   0.141   3.696  14.290  0.1973  0.7148 -0.7472
17922TIP3    H275258   0.254   3.647  14.378 -0.9073 -0.5413  0.0176
17923TIP3   OH275259   2.459   6.026  11.299  0.1609 -0.3141 -0.1872
17923TIP3    H175260   2.478   5.945  11.252  1.4217 -0.3144  0.2895
17923TIP3    H275261   2.386   6.065  11.251 -0.6798 -1.8886 -0.2268
17924TIP3   OH275262   2.625   0.027  13.231  0.4018  0.4838 -0.4987
17924TIP3    H175263   2.657  -0.027  13.159  0.2691 -1.2313  0.6744
17924TIP3    H275264   2.690   0.017  13.300 -2.1584 -2.7060  1.7712
17925TIP3   OH275265   6.313   2.992  16.556 -0.1653  0.1630  0.1765
17925TIP3    H175266   6.292   2.910  16.511  1.4739  0.1332 -0.6044
17925TIP3    H275267   6.312   2.968  16.649  0.0322 -0.6786 -0.0273
17926TIP3   OH275268   0.096   4.093  13.981  0.5678  0.2609 -0.2444
17926TIP3    H175269   0.081   4.030  13.911 -1.3940  0.5466 -0.1295
17926TIP3    H275270   0.080   4.178  13.941  1.0439  0.5338  0.1420
17927TIP3   OH275271   5.108   4.268   1.484 -0.7451 -0.0697 -0.2260
17927TIP3    H175272   5.121   4.317   1.403 -2.4309 -1.4849 -1.4172
17927TIP3    H275273   5.049   4.323   1.536  2.1867  1.9833  1.2085
17928TIP3   OH275274   4.247   4.335  10.618  0.1578 -0.5857 -0.3254
17928TIP3    H175275   4.313   4.298  10.559  0.6796  1.6527 -1.2684
17928TIP3    H275276   4.297   4.388  10.680 -0.6553  0.0005 -0.1487
17929TIP3   OH275277   2.991   4.134  11.936  0.4138 -0.1061  0.1069
17929TIP3    H175278   2.924   4.074  11.903  1.4222 -0.5018 -1.2967
17929TIP3    H275279   2.949   4.221  11.929 -0.4487 -0.4704  0.5795
17930TIP3   OH275280   0.819   5.761  13.502  0.4031 -0.1519  0.3069
17930TIP3    H175281   0.773   5.773  13.419  1.0018  2.4377  0.2539
17930TIP3    H275282   0.819   5.848  13.542  3.4016 -0.4689  1.2461
17931TIP3   OH275283   5.885   6.527  10.755  0.2348 -0.2009 -0.2355
17931TIP3    H175284   5.879   6.450  10.698  0.5180 -1.2153  1.0551
17931TIP3    H275285   5.798   6.535  10.794  0.2989 -0.0622 -0.1200
17932TIP3   OH275286   3.952   4.251  13.390 -0.2264 -0.0161  0.4718
17932TIP3    H175287   3.963   4.178  13.329  0.8556  1.6362 -1.4188
17932TIP3    H275288   3.899   4.315  13.343  0.2135  1.1121  1.4561
17933TIP3   OH275289   2.272   2.081  12.278  0.6926 -0.2004  0.1645
17933TIP3    H175290   2.262   1.988  12.259  1.6187  0.0814 -2.0358
17933TIP3    H275291   2.366   2.095  12.280  0.5608  0.6466  0.7692
17934TIP3   OH275292   3.441   3.584  11.981 -0.1104 -0.2413 -0.1653
17934TIP3    H175293   3.455   3.505  12.033  0.3486  0.2491  0.4679
17934TIP3    H275294   3.364   3.563  11.927 -0.2331 -0.9752  0.2740
17935TIP3   OH275295   5.963   1.227  11.458 -0.2152  0.1210 -0.1463
17935TIP3    H175296   6.049   1.259  11.431  0.0251  0.8364  1.3617
17935TIP3    H275297   5.937   1.167  11.388  1.9046 -0.8008 -0.2473
17936TIP3   OH275298   5.889   6.636  13.339 -0.7459 -0.2205  0.2574
17936TIP3    H175299   5.904   6.576  13.411  1.6823  1.3035  1.1406
17936TIP3    H275300   5.837   6.707  13.378 -0.2818  0.1187  0.2705
17937TIP3   OH275301   3.886   3.896   2.806  0.4220  0.5239  0.4588
17937TIP3    H175302   3.824   3.834   2.768  0.2423  0.3555  1.0165
17937TIP3    H275303   3.923   3.942   2.731 -0.7684  0.9858  0.1293
17938TIP3   OH275304   1.520   6.433   5.252  0.9893 -0.1153  0.4133
17938TIP3    H175305   1.489   6.522   5.263  1.7300 -0.0547  2.3521
17938TIP3    H275306   1.608   6.442   5.214  0.1737 -0.1517 -1.5915
17939TIP3   OH275307   6.546   2.857  11.148  0.2212 -0.6039 -0.3158
17939TIP3    H175308   6.473   2.806  11.184  1.1339 -1.9398 -0.2836
17939TIP3    H275309   6.612   2.791  11.125  1.0110  0.4926 -1.2978
17940TIP3   OH275310   3.524   6.715  13.115  0.2009  0.3609  0.6980
17940TIP3    H175311   3.520   6.644  13.051 -0.0455 -0.8549  2.0077
17940TIP3    H275312   3.610   6.754  13.101  0.9897 -1.2026  0.9652
17941TIP3   OH275313   1.069   1.860  14.937 -0.5315 -0.0468  0.0710
17941TIP3    H175314   1.049   1.859  15.031 -0.8725  0.2467  0.0030
17941TIP3    H275315   1.045   1.773  14.907 -1.6469  0.2657  0.0084
17942TIP3   OH275316   3.559   2.901   0.029 -0.6251  0.4796  0.5158
17942TIP3    H175317   3.554   2.924   0.122  0.5607 -0.6336  0.8780
17942TIP3    H275318   3.472   2.866   0.009 -1.2914  1.8482  0.8609
17943TIP3   OH275319   5.164   3.316   4.728  0.4347  0.0369 -0.7493
17943TIP3    H175320   5.212   3.254   4.782  0.2234  0.0475 -0.5460
17943TIP3    H275321   5.180   3.288   4.638  1.5919  0.5971 -0.7433
17944TIP3   OH275322   3.638   5.489  16.635 -0.0924  0.2337 -0.2734
17944TIP3    H175323   3.721   5.443  16.648 -0.4995 -0.4451 -0.0389
17944TIP3    H275324   3.631   5.547  16.710 -0.3098 -0.4404  0.2287
17945TIP3   OH275325   6.085   1.463   4.191  0.0137 -0.7460  0.1162
17945TIP3    H175326   6.051   1.534   4.247  0.0636  0.2809 -1.1141
17945TIP3    H275327   6.013   1.401   4.184 -0.5804 -0.0453 -0.0618
17946TIP3   OH275328   3.819   0.635  12.750  0.4639  0.3953 -0.1687
17946TIP3    H175329   3.838   0.612  12.659 -1.0767  0.2827 -0.4955
17946TIP3    H275330   3.840   0.728  12.756  1.1096  0.2739 -0.4772
17947TIP3   OH275331   3.322   4.900  15.454 -0.0405 -0.2442 -0.9221
17947TIP3    H175332   3.316   4.806  15.466 -1.2809 -0.1728 -0.7900
17947TIP3    H275333   3.249   4.935  15.506 -1.4485  0.5478 -3.2706
17948TIP3   OH275334   3.259   4.895  16.616 -0.0639  0.1170  0.1652
17948TIP3    H175335   3.175   4.852  16.599 -0.4942  1.3200 -0.9412
17948TIP3    H275336   3.308   4.883  16.534  0.1801  0.8791  0.1923
17949TIP3   OH275337   6.036   3.164  13.136 -0.1603 -0.6517 -0.7880
17949TIP3    H175338   6.032   3.101  13.064  3.3357 -3.0096  0.7747
17949TIP3    H275339   6.123   3.203  13.128 -0.6504  0.8400  0.7692
17950TIP3   OH275340   3.388   3.804  12.873  0.5974 -0.6999  0.1082
17950TIP3    H175341   3.320   3.845  12.925 -0.0935 -0.3072 -1.0696
17950TIP3    H275342   3.394   3.715  12.908  0.8661 -0.1526  1.5040
17951TIP3   OH275343   4.994   6.732  17.049  0.5252 -0.0021  0.2804
17951TIP3    H175344   5.040   6.702  17.127  2.0377  2.0848  0.3168
17951TIP3    H275345   5.041   6.813  17.025 -1.6573  0.9203 -1.1479
17952TIP3   OH275346   4.626   4.099  16.578  0.0502  0.2157  0.1867
17952TIP3    H175347   4.677   4.090  16.658  0.6445  1.9392  0.0413
17952TIP3    H275348   4.680   4.057  16.510  0.1182 -0.1361  0.4549
17953TIP3   OH275349   4.687   0.475   0.736 -0.1922  0.0002 -0.3668
17953TIP3    H175350   4.615   0.483   0.673  0.7178  1.7657 -1.2594
17953TIP3    H275351   4.755   0.532   0.702  1.7732 -1.8009  0.3300
17954TIP3   OH275352   5.373   5.266  12.157  0.4029 -0.0269 -0.0294
17954TIP3    H175353   5.307   5.197  12.160  0.1559  0.1426 -1.2048
17954TIP3    H275354   5.455   5.221  12.180 -0.0718 -0.2536  1.3303
17955TIP3   OH275355   0.782   5.130  13.666  0.9968  0.4144  0.1224
17955TIP3    H175356   0.785   5.076  13.745 -1.1404  0.5187  0.3417
17955TIP3    H275357   0.797   5.219  13.696  2.0198  0.2532  0.1210
17956TIP3   OH275358   4.063   2.248   0.115  0.2343 -0.2463 -0.6240
17956TIP3    H175359   4.009   2.192   0.060 -0.9647  1.8384 -1.7072
17956TIP3    H275360   4.006   2.272   0.189  0.0240  1.0337 -1.1685
17957TIP3   OH275361   5.140   4.317   1.931  0.5767 -0.1297 -0.4828
17957TIP3    H175362   5.184   4.319   1.846 -1.9841 -1.4450 -1.9308
17957TIP3    H275363   5.179   4.243   1.977  1.2116 -0.0950 -0.9574
17958TIP3   OH275364   1.816   5.861   5.048 -0.0012  0.1875  0.2498
17958TIP3    H175365   1.822   5.765   5.054 -1.4702  0.0463 -0.1963
17958TIP3    H275366   1.781   5.888   5.132  0.6458  0.3607  0.4649
17959TIP3   OH275367   3.249   6.629   5.440  0.0760  0.5638 -0.1956
17959TIP3    H175368   3.236   6.541   5.476  0.0446  1.2294  1.4719
17959TIP3    H275369   3.222   6.620   5.348 -1.8058 -0.7126  0.4084
17960TIP3   OH275370   1.380   1.010   0.187  0.3171  0.2322  0.4578
17960TIP3    H175371   1.324   0.989   0.113  0.7783 -1.5822  0.5804
17960TIP3    H275372   1.402   0.925   0.225  2.3785  0.9505  0.9731
17961TIP3   OH275373   1.913   3.543  14.653  0.3348  0.0851 -0.0464
17961TIP3    H175374   1.923   3.453  14.685  3.0564 -0.2647 -1.5966
17961TIP3    H275375   2.003   3.573  14.637 -0.6206  2.1417 -2.1032
17962TIP3   OH275376   2.613   5.938   4.320 -0.6479 -0.0426  0.2254
17962TIP3    H175377   2.555   5.947   4.244  1.4423 -0.2003 -1.4758
17962TIP3    H275378   2.676   6.009   4.311 -0.8508  0.4860  2.3514
17963TIP3   OH275379   2.050   3.969   3.157  0.4777 -0.7486 -0.0066
17963TIP3    H175380   1.982   3.934   3.100  0.5634  0.4357 -0.8865
17963TIP3    H275381   2.126   3.980   3.100  1.0163 -0.8592  0.6690
17964TIP3   OH275382   4.096   4.315  17.213 -0.1023  0.6279  0.2399
17964TIP3    H175383   4.190   4.302  17.201  0.0085  1.0433  0.6187
17964TIP3    H275384   4.087   4.346  17.304 -0.6080  0.5463  0.2244
17965TIP3   OH275385   4.194   1.078   4.253  0.2667 -0.0821 -0.3479
17965TIP3    H175386   4.245   1.088   4.172 -0.9488 -1.8754 -1.4030
17965TIP3    H275387   4.254   1.105   4.322  1.4021  1.3727 -1.8229
17966TIP3   OH275388   4.541   6.716  15.486  0.4011 -0.4466 -0.3251
17966TIP3    H175389   4.545   6.652  15.415  0.9273  0.5378 -1.2125
17966TIP3    H275390   4.448   6.723  15.508  0.3126 -1.2884 -0.4075
17967TIP3   OH275391   1.123   0.296  12.047 -0.1452 -0.5998  0.2285
17967TIP3    H175392   1.124   0.358  12.120  1.4850  0.3361 -0.5490
17967TIP3    H275393   1.213   0.293  12.016 -0.2674 -3.0080 -0.0893
17968TIP3   OH275394   1.586   3.240  11.664 -0.1104 -0.4088  0.3634
17968TIP3    H175395   1.639   3.278  11.595  0.5449  1.1214  1.6661
17968TIP3    H275396   1.497   3.271  11.646  0.0941  0.1589  0.3191
17969TIP3   OH275397   3.273   3.518  15.753 -0.2648 -0.0479  0.3720
17969TIP3    H175398   3.270   3.592  15.693  0.3381 -0.3549 -0.0498
17969TIP3    H275399   3.187   3.517  15.794 -0.4412  0.5977  0.0314
17970TIP3   OH275400   2.445   6.302   2.977  0.2436  0.8629  0.2760
17970TIP3    H175401   2.509   6.371   2.992  0.4713  0.3037  2.1366
17970TIP3    H275402   2.498   6.226   2.951  0.1082  1.0570 -0.5702
17971TIP3   OH275403   1.062   3.653   0.304 -0.2994 -0.2555  0.0742
17971TIP3    H175404   1.059   3.747   0.284  0.4028 -0.3075 -0.2761
17971TIP3    H275405   1.062   3.611   0.219  2.5658 -0.4864  0.0999
17972TIP3   OH275406   0.805   2.447   4.721  0.0509  0.3083 -0.5480
17972TIP3    H175407   0.724   2.396   4.729  0.2457 -0.1426 -1.3155
17972TIP3    H275408   0.838   2.426   4.633  0.6425  1.0167 -0.5060
17973TIP3   OH275409   0.230   4.717   1.944  0.1064 -0.1967  0.3963
17973TIP3    H175410   0.197   4.750   1.860 -1.0236 -2.6124 -0.2013
17973TIP3    H275411   0.239   4.622   1.930  1.2554 -0.4483  2.5773
17974TIP3   OH275412   4.310   4.458  16.427  0.3431  0.1404  0.2114
17974TIP3    H175413   4.291   4.427  16.339  0.6794  0.2577  0.0939
17974TIP3    H275414   4.393   4.416  16.449 -0.3743 -0.9203  0.9810
17975TIP3   OH275415   0.502   1.684   5.201  0.2268  0.0245 -0.2336
17975TIP3    H175416   0.533   1.760   5.152 -1.8488  0.7903 -0.4659
17975TIP3    H275417   0.489   1.716   5.291 -1.5034  0.2485 -0.5238
17976TIP3   OH275418   0.792   2.280  11.263  0.7040 -0.8058 -0.3094
17976TIP3    H175419   0.852   2.225  11.213 -0.0143 -1.6475 -0.2824
17976TIP3    H275420   0.841   2.309  11.339  0.7997 -2.2412  0.1926
17977TIP3   OH275421   0.213   2.813  13.863  0.0665  0.2674  0.3464
17977TIP3    H175422   0.237   2.724  13.889 -2.5427 -0.6751 -0.1807
17977TIP3    H275423   0.258   2.826  13.779  0.1456 -0.7174  0.2239
17978TIP3   OH275424   1.048   2.231  15.621  0.2812  0.3307  0.3506
17978TIP3    H175425   1.048   2.255  15.714 -0.5913 -1.1746  0.7756
17978TIP3    H275426   1.058   2.136  15.622 -0.2448  0.2473 -1.0960
17979TIP3   OH275427   4.699   5.382  16.616 -0.6483 -0.1398 -0.0086
17979TIP3    H175428   4.768   5.445  16.594 -2.3751  1.5034 -1.1184
17979TIP3    H275429   4.724   5.302  16.570  0.6986  0.2845 -0.0541
17980TIP3   OH275430   5.266   6.804  12.461  0.1792 -0.6314 -0.0225
17980TIP3    H175431   5.350   6.845  12.439  0.2036 -0.6419  0.0512
17980TIP3    H275432   5.245   6.751  12.384  0.5633 -1.1414  0.2214
17981TIP3   OH275433   2.811   2.274   4.405 -0.3093 -0.0721 -0.0731
17981TIP3    H175434   2.742   2.314   4.353  0.5567  1.0219 -0.4371
17981TIP3    H275435   2.884   2.336   4.400  0.5947 -1.0377  0.5509
17982TIP3   OH275436   1.463   1.692   3.236  0.1406 -0.1260 -0.2517
17982TIP3    H175437   1.371   1.686   3.211 -0.0005 -1.4578  0.4769
17982TIP3    H275438   1.511   1.657   3.161  0.0715  0.6665 -0.6742
17983TIP3   OH275439   4.092   4.722   2.911  0.3964 -0.2276  0.1136
17983TIP3    H175440   4.049   4.767   2.983 -0.8742  1.5240 -1.6260
17983TIP3    H275441   4.023   4.670   2.870  1.3954 -2.2623  0.8723
17984TIP3   OH275442   4.647   0.461  11.776  0.1792 -0.0228  0.0277
17984TIP3    H175443   4.656   0.553  11.753 -0.6107 -0.0920 -0.6086
17984TIP3    H275444   4.705   0.414  11.716  1.4652  0.1288  1.1036
17985TIP3   OH275445   5.157   6.130   3.620 -0.2045  0.0728 -0.2087
17985TIP3    H175446   5.106   6.158   3.544 -1.8918 -1.7789  0.1693
17985TIP3    H275447   5.241   6.101   3.583 -0.6990 -0.0371 -1.2680
17986TIP3   OH275448   1.926   1.070   4.883 -0.0582 -0.1197 -0.1888
17986TIP3    H175449   1.953   0.990   4.837 -1.0957 -0.8268  0.3750
17986TIP3    H275450   2.004   1.125   4.883  1.0417 -1.5833  0.3584
17987TIP3   OH275451   6.381   0.078   0.776  0.4949 -0.3294  0.2494
17987TIP3    H175452   6.386   0.037   0.862  1.5111  0.9992  0.8418
17987TIP3    H275453   6.463   0.054   0.733  0.0029 -0.9733 -0.3742
17988TIP3   OH275454   3.337   1.802   2.380  0.0558  0.5804 -0.1036
17988TIP3    H175455   3.282   1.848   2.316  0.7652 -0.2377 -1.3376
17988TIP3    H275456   3.419   1.850   2.382  0.0846  0.5265  0.0965
17989TIP3   OH275457   3.788   4.500  11.776  0.9399  0.9796 -0.0762
17989TIP3    H175458   3.738   4.561  11.830 -1.0977  0.2141 -1.0094
17989TIP3    H275459   3.783   4.537  11.687 -0.6740 -0.6595 -0.7333
17990TIP3   OH275460   0.635   6.352  16.770 -0.5921  0.0206 -0.1563
17990TIP3    H175461   0.725   6.334  16.800 -0.7035 -0.0359  0.1487
17990TIP3    H275462   0.636   6.445  16.748 -0.3760 -0.0500 -0.4483
17991TIP3   OH275463   4.534   4.996   0.969  0.4719  0.3475  0.2935
17991TIP3    H175464   4.593   5.060   1.007 -0.7054  1.1506  0.8177
17991TIP3    H275465   4.549   4.916   1.020 -1.5013  1.5430  2.9815
17992TIP3   OH275466   2.814   5.526  12.758  0.2339  0.3357  0.2860
17992TIP3    H175467   2.750   5.515  12.688  1.8702 -1.9517 -0.9885
17992TIP3    H275468   2.800   5.451  12.816  2.0636 -0.5853 -0.3654
17993TIP3   OH275469   6.469   0.947   1.465 -0.7054 -0.0046  0.2072
17993TIP3    H175470   6.418   0.929   1.545 -1.0793  0.1680  0.0111
17993TIP3    H275471   6.495   1.038   1.473  0.5039 -0.3870  0.8188
17994TIP3   OH275472   4.580   6.300   1.361 -0.1393 -0.3911 -0.1059
17994TIP3    H175473   4.545   6.309   1.272  1.1121 -1.2760 -0.7203
17994TIP3    H275474   4.613   6.387   1.382  0.5668 -0.4358 -0.9665
17995TIP3   OH275475   5.846   0.937  17.264  0.0259  1.0042  0.0763
17995TIP3    H175476   5.825   0.991  17.188  0.4040  1.4080  0.2526
17995TIP3    H275477   5.762   0.899  17.291 -0.0039  0.2828 -0.9686
17996TIP3   OH275478   5.488   2.554   5.425  0.4267 -0.1190  0.0148
17996TIP3    H175479   5.550   2.526   5.357  0.0312  1.4785 -1.0524
17996TIP3    H275480   5.525   2.636   5.458 -1.2980  1.0982 -0.9501
17997TIP3   OH275481   5.075   2.703   2.690  0.3231 -0.1817  0.0558
17997TIP3    H175482   5.021   2.648   2.746  0.5032 -0.5643 -0.1404
17997TIP3    H275483   5.031   2.788   2.689  0.5612 -0.0384  1.1351
17998TIP3   OH275484   2.801   0.728   0.874  0.4337 -0.1555 -0.2132
17998TIP3    H175485   2.827   0.637   0.861 -0.2117 -0.3868  0.0358
17998TIP3    H275486   2.714   0.734   0.835 -0.2698 -0.1073  1.2693
17999TIP3   OH275487   0.381   2.012  11.945 -0.5248  0.3967 -0.7071
17999TIP3    H175488   0.455   2.061  11.981  0.3210  0.4346 -2.3934
17999TIP3    H275489   0.389   2.023  11.850 -1.8651 -0.8030 -0.9918
18000TIP3   OH275490   6.696   0.431  11.192  0.4484 -0.1117 -0.3611
18000TIP3    H175491   6.773   0.410  11.139 -0.1692 -2.3677 -0.4587
18000TIP3    H275492   6.729   0.490  11.260  2.3861 -1.4509 -0.0760
18001TIP3   OH275493   4.605   2.281  17.209 -0.5473  0.0566 -0.1138
18001TIP3    H175494   4.511   2.286  17.195 -0.3712  1.5145 -1.0501
18001TIP3    H275495   4.617   2.211  17.274 -2.3184  0.4392  0.6727
18002TIP3   OH275496   3.580   1.781  12.670  0.2455  0.3924 -0.2529
18002TIP3    H175497   3.563   1.812  12.581  1.0963 -0.9858 -0.9358
18002TIP3    H275498   3.654   1.834  12.700  0.4168  0.3894 -0.6540
18003TIP3   OH275499   4.787   2.906  12.742 -0.0093 -0.1474 -0.3482
18003TIP3    H175500   4.818   2.886  12.654  1.6623  0.6858  0.0277
18003TIP3    H275501   4.854   2.870  12.800 -1.6135 -1.6614  0.6679
18004TIP3   OH275502   5.293   1.141   4.330  0.2924  0.1730  0.5468
18004TIP3    H175503   5.349   1.210   4.295  1.5733 -1.0279  0.1116
18004TIP3    H275504   5.316   1.064   4.278 -2.8302 -0.0892 -0.6802
18005TIP3   OH275505   3.436   5.663   4.469 -0.1670  0.5298 -0.4190
18005TIP3    H175506   3.438   5.605   4.545 -1.6286  0.6439 -0.2578
18005TIP3    H275507   3.442   5.604   4.394  1.2012  0.4103 -0.2339
18006TIP3   OH275508   6.643   3.471  15.791 -0.3390 -0.3464 -0.7441
18006TIP3    H175509   6.613   3.446  15.879  0.9298  1.9203  0.4178
18006TIP3    H275510   6.600   3.555  15.774  2.9079  1.5709 -0.2262
18007TIP3   OH275511   2.394   0.504   3.506 -0.1682  0.4111 -0.4270
18007TIP3    H175512   2.424   0.416   3.484  0.8682  0.5986  0.2120
18007TIP3    H275513   2.340   0.530   3.430 -1.3917 -1.1656 -0.1545
18008TIP3   OH275514   2.009   2.712  17.101  0.0905 -0.4856  0.2377
18008TIP3    H175515   1.988   2.658  17.026 -0.1181 -0.2534  0.1270
18008TIP3    H275516   2.105   2.713  17.104  0.1868  1.2768 -1.3430
18009TIP3   OH275517   2.900   2.848  12.940  0.0479  0.6206 -0.6472
18009TIP3    H175518   2.916   2.911  12.870  1.9827 -0.8914 -1.6808
18009TIP3    H275519   2.846   2.780  12.899  1.1116 -0.2221 -0.7248
18010TIP3   OH275520   0.015   6.223   0.091 -0.1792 -0.6305  0.1365
18010TIP3    H175521  -0.066   6.213   0.040 -0.3163 -2.7529  0.7059
18010TIP3    H275522   0.068   6.283   0.038 -1.0876 -1.2350 -1.5443
18011TIP3   OH275523   3.671   2.813   4.180  0.5414  0.5314  0.4608
18011TIP3    H175524   3.605   2.786   4.116  0.0451  0.9737  0.7814
18011TIP3    H275525   3.632   2.792   4.265  0.2226  2.0552  0.7089
18012TIP3   OH275526   3.317   3.543   6.624  0.4150 -0.2637 -0.0628
18012TIP3    H175527   3.323   3.471   6.687 -0.8764 -0.6360 -0.3253
18012TIP3    H275528   3.407   3.562   6.600  0.7677 -2.5591 -0.8276
18013TIP3   OH275529   0.604   4.644  11.374  0.0643  0.0890  0.2954
18013TIP3    H175530   0.510   4.660  11.361 -0.0859  0.0215  1.2589
18013TIP3    H275531   0.639   4.729  11.402  1.0197  1.1872 -3.5368
18014TIP3   OH275532   1.393   5.719   1.282  0.0839 -0.8180 -0.2582
18014TIP3    H175533   1.379   5.811   1.302 -0.0492 -0.6580 -1.0228
18014TIP3    H275534   1.425   5.680   1.363  0.3293 -0.0583  0.0120
18015TIP3   OH275535   1.877   1.552  14.273  0.2219  0.1618  0.1684
18015TIP3    H175536   1.926   1.628  14.242  1.3012  0.7084  2.9592
18015TIP3    H275537   1.787   1.584  14.283 -0.5230 -0.3938 -3.3462
18016TIP3   OH275538   3.172   6.105   6.230 -0.7985 -0.6388 -0.6161
18016TIP3    H175539   3.170   6.190   6.273 -1.0759 -0.3997 -1.0910
18016TIP3    H275540   3.095   6.059   6.262 -1.6762 -0.0100 -1.7362
18017TIP3   OH275541   1.698   3.567   0.976 -0.0827 -0.2382  0.9878
18017TIP3    H175542   1.608   3.534   0.986  0.5195 -1.8067  1.4895
18017TIP3    H275543   1.746   3.494   0.938  1.3546 -0.0028  2.2680
18018TIP3   OH275544   5.779   5.383  13.758  0.0003  0.0956 -0.0718
18018TIP3    H175545   5.767   5.294  13.725  0.7141  0.1911 -0.6091
18018TIP3    H275546   5.841   5.373  13.831  0.5966  0.2303 -0.5562
18019TIP3   OH275547   0.495   4.732  16.066 -0.2809 -0.8028 -0.1420
18019TIP3    H175548   0.542   4.652  16.046 -0.1384 -0.8142  0.2317
18019TIP3    H275549   0.533   4.763  16.149 -0.6289 -0.5833 -0.0587
18020TIP3   OH275550   4.600   3.665   1.557  0.2178 -0.1438 -0.0373
18020TIP3    H175551   4.659   3.734   1.525 -0.6375 -0.2194 -1.8678
18020TIP3    H275552   4.659   3.599   1.593  1.1404  0.7728  0.1817
18021TIP3   OH275553   1.359   4.747   1.549  0.4696  0.1477 -0.2779
18021TIP3    H175554   1.442   4.745   1.598  0.0503 -1.5005  0.4250
18021TIP3    H275555   1.341   4.656   1.529 -1.2861  0.4563 -0.2576
18022TIP3   OH275556   0.145   0.185   0.185  0.2342  0.8921  0.4851
18022TIP3    H175557   0.073   0.248   0.173 -1.5157 -1.0663  0.0561
18022TIP3    H275558   0.127   0.146   0.271  1.4255  1.1086  0.8436
18023TIP3   OH275559   0.603   4.533  16.297 -0.2358 -0.3864  0.1027
18023TIP3    H175560   0.518   4.490  16.293 -0.1786 -0.4546 -0.5053
18023TIP3    H275561   0.632   4.537  16.206 -0.0004  0.4714  0.2075
18024TIP3   OH275562   6.805   6.294  11.597  0.8900  0.1898  0.0174
18024TIP3    H175563   6.758   6.238  11.659  2.6885  0.7368  2.0007
18024TIP3    H275564   6.737   6.330  11.540 -0.7600 -0.9442  1.1900
18025TIP3   OH275565   2.348   4.378   1.918  0.2559 -0.4565  0.2385
18025TIP3    H175566   2.282   4.443   1.940  1.4916  1.4906 -1.4052
18025TIP3    H275567   2.299   4.302   1.887 -1.4930  2.3284 -5.0170
18026TIP3   OH275568   3.149   5.804   4.439 -0.0664 -0.3468 -0.2322
18026TIP3    H175569   3.153   5.734   4.504 -2.0784 -0.5331 -0.2506
18026TIP3    H275570   3.218   5.866   4.466  0.6620 -1.5302  0.7166
18027TIP3   OH275571   2.568   3.181  11.096 -0.1187 -0.9491  0.4892
18027TIP3    H175572   2.512   3.116  11.138  1.4633 -0.8454  3.0145
18027TIP3    H275573   2.656   3.142  11.099  0.5505  0.4752  0.2484
18028TIP3   OH275574   3.442   4.909  12.954  0.2046  0.1302 -0.0944
18028TIP3    H175575   3.432   5.003  12.942 -0.0772 -0.0772 -1.6535
18028TIP3    H275576   3.454   4.874  12.866  0.8811 -1.2387  0.5029
18029TIP3   OH275577   5.126   0.598   1.123 -0.8291 -0.1236  0.0076
18029TIP3    H175578   5.209   0.637   1.148 -0.4806 -0.4890 -0.5646
18029TIP3    H275579   5.063   0.633   1.187  0.0931 -1.3937  1.6935
18030TIP3   OH275580   4.968   5.093  10.698  0.2861  0.2642 -0.3833
18030TIP3    H175581   4.884   5.139  10.705 -0.1547 -0.4662 -0.7467
18030TIP3    H275582   5.004   5.095  10.786 -0.9934 -1.0278  0.2034
18031TIP3   OH275583   1.148   5.190   5.411  0.1346 -0.0028 -0.3161
18031TIP3    H175584   1.104   5.270   5.381  0.2587 -0.6002 -2.1993
18031TIP3    H275585   1.138   5.128   5.339  0.6524 -1.4747  0.8255
18032TIP3   OH275586   3.491   2.301   3.434  0.1752 -0.1914  0.5864
18032TIP3    H175587   3.406   2.345   3.438  0.3186  0.2170 -0.5107
18032TIP3    H275588   3.472   2.209   3.454 -0.2777  0.1752  1.9124
18033TIP3   OH275589   3.050   0.287   5.586 -0.1214  0.4575  0.4828
18033TIP3    H175590   3.006   0.256   5.506  1.0230 -0.6611  0.2543
18033TIP3    H275591   3.095   0.367   5.560  1.6157 -0.7631 -0.4961
18034TIP3   OH275592   0.384   2.955   2.480  0.0653 -0.8621  0.5041
18034TIP3    H175593   0.382   2.863   2.505  2.8375 -0.7916  1.3073
18034TIP3    H275594   0.429   2.956   2.395 -1.1567 -0.3205 -0.1671
18035TIP3   OH275595   5.676   3.767  11.932  0.3713 -0.1180  0.9985
18035TIP3    H175596   5.620   3.780  11.855  0.0750  1.2388  1.4271
18035TIP3    H275597   5.761   3.741  11.895 -0.3687 -1.7257  0.3212
18036TIP3   OH275598   6.390   1.476  16.515 -0.1055  0.2089  0.8798
18036TIP3    H175599   6.332   1.457  16.441  0.9513  1.8455 -0.4421
18036TIP3    H275600   6.375   1.404  16.576 -3.1321  0.2797  0.3886
18037TIP3   OH275601   4.007   0.384   1.850  0.3862 -0.7427 -0.4829
18037TIP3    H175602   3.924   0.347   1.819 -1.7920  2.7819  0.5844
18037TIP3    H275603   4.033   0.444   1.781  0.5204  0.2278  0.3963
18038TIP3   OH275604   2.321   4.608   4.185  0.4587 -0.0951  0.1088
18038TIP3    H175605   2.390   4.629   4.121 -0.5467  0.7680 -0.7167
18038TIP3    H275606   2.290   4.522   4.158 -0.3351  0.5003 -0.9237
18039TIP3   OH275607   3.641   0.020  15.019  0.3673 -0.5471  0.4799
18039TIP3    H175608   3.717   0.065  15.057 -0.4623  2.0191 -0.6303
18039TIP3    H275609   3.566   0.064  15.058 -0.5728 -2.2269  0.6336
18040TIP3   OH275610   0.840   5.753  12.573  0.2178  0.8942  0.5715
18040TIP3    H175611   0.928   5.760  12.611  1.0676 -0.1550 -1.1039
18040TIP3    H275612   0.838   5.821  12.505 -0.0037  0.4411  0.1254
18041TIP3   OH275613   1.049   4.010  14.571 -0.2604  0.6683  0.2012
18041TIP3    H175614   1.134   4.021  14.613  0.0730 -1.8078  0.3592
18041TIP3    H275615   1.053   4.065  14.493  1.0292  1.4932  0.8160
18042TIP3   OH275616   0.846   3.132  16.333 -0.0183 -0.3238 -0.6669
18042TIP3    H175617   0.897   3.186  16.273 -0.2709 -1.9618 -2.4605
18042TIP3    H275618   0.910   3.098  16.396  0.4533  0.4490 -0.7126
18043TIP3   OH275619   3.968   0.277   4.333  0.2675  0.2546 -0.1080
18043TIP3    H175620   3.903   0.238   4.390  0.3033 -1.7386 -1.3312
18043TIP3    H275621   3.939   0.368   4.321  1.0023  1.2201  4.0306
18044TIP3   OH275622   6.656   1.647   6.492 -0.0944  0.5435 -0.1746
18044TIP3    H175623   6.692   1.685   6.572 -0.0567  0.2495 -0.0506
18044TIP3    H275624   6.668   1.716   6.426 -1.4268  1.3414  0.3789
18045TIP3   OH275625   5.176   5.372   1.119 -0.3003  0.0981  0.2799
18045TIP3    H175626   5.082   5.358   1.105  0.1559 -3.1556 -0.3986
18045TIP3    H275627   5.183   5.391   1.213 -1.6073 -0.0041  0.4207
18046TIP3   OH275628   1.643   2.279   2.388  0.1665  0.0380 -0.1391
18046TIP3    H175629   1.587   2.353   2.409  0.7263  0.4237  0.0214
18046TIP3    H275630   1.648   2.228   2.469 -0.2751 -0.2162 -0.2699
18047TIP3   OH275631   3.460   4.292  12.764  0.0277 -0.3316 -0.1755
18047TIP3    H175632   3.497   4.265  12.848 -1.0765 -0.2653  0.3420
18047TIP3    H275633   3.527   4.268  12.700  1.1490  0.1714  0.7749
18048TIP3   OH275634   4.248   4.966   1.341  0.7980 -0.0977 -0.1027
18048TIP3    H175635   4.254   4.930   1.429  2.9930  1.2905  0.4094
18048TIP3    H275636   4.329   5.016   1.330  0.9306 -0.7490 -3.1692
18049TIP3   OH275637   3.344   3.982   0.219  0.0223 -0.0045  1.0123
18049TIP3    H175638   3.369   3.897   0.182  1.0513  1.4347 -1.9293
18049TIP3    H275639   3.422   4.037   0.207 -1.2117  1.8560  1.1065
18050TIP3   OH275640   0.129   5.870   0.839  0.3982  0.6835 -0.0105
18050TIP3    H175641   0.130   5.881   0.744  0.7635 -1.2131 -0.2592
18050TIP3    H275642   0.189   5.938   0.871  0.1582  1.4404 -1.0998
18051TIP3   OH275643   3.904   1.547   0.795  0.0325 -0.2356  0.5342
18051TIP3    H175644   3.953   1.467   0.815  0.1007 -0.0016  1.3381
18051TIP3    H275645   3.883   1.539   0.702 -1.6027 -2.0991  0.9751
18052TIP3   OH275646   1.809   5.401  12.991 -0.1579  0.2417  0.3189
18052TIP3    H175647   1.799   5.431  13.081 -2.1179  0.2594  0.1305
18052TIP3    H275648   1.899   5.425  12.968  0.4858 -0.0042  2.3357
18053TIP3   OH275649   2.060   4.768  12.215 -0.9348 -0.0862 -0.5002
18053TIP3    H175650   1.974   4.745  12.250 -0.6400  0.1079  0.3690
18053TIP3    H275651   2.101   4.684  12.195 -1.0114 -0.2123 -0.1367
18054TIP3   OH275652   1.619   5.918   5.537 -0.1908 -0.0678 -0.9324
18054TIP3    H175653   1.686   5.931   5.470 -0.4484 -2.0381 -1.6226
18054TIP3    H275654   1.668   5.910   5.619  0.3679 -0.7756 -1.3305
18055TIP3   OH275655   1.649   1.086   4.725 -0.1304  0.2406  0.0147
18055TIP3    H175656   1.730   1.038   4.743 -0.4683 -0.4746 -0.3188
18055TIP3    H275657   1.664   1.173   4.762  0.7141  0.0573  0.1298
18056TIP3   OH275658   2.116   2.060   4.199 -0.1559 -0.2096 -0.6429
18056TIP3    H175659   2.208   2.085   4.192  0.7098 -2.5857  0.9695
18056TIP3    H275660   2.113   1.998   4.272 -3.2273  0.4866 -0.0288
18057TIP3   OH275661   0.141   2.416   2.821 -0.0033 -0.2648 -0.4967
18057TIP3    H175662   0.126   2.431   2.727 -1.8620  1.3647 -0.0031
18057TIP3    H275663   0.077   2.471   2.865  0.3765 -1.4865  1.7618
18058TIP3   OH275664   4.051   0.308  16.689 -0.4086  0.2153  0.2023
18058TIP3    H175665   3.979   0.255  16.725 -0.7643 -0.2555 -1.1521
18058TIP3    H275666   4.097   0.248  16.630 -0.6912  1.3398 -1.2088
18059TIP3   OH275667   3.171   0.873  16.135 -0.0209 -0.1526 -0.4159
18059TIP3    H175668   3.207   0.918  16.211  0.3224  1.0466 -1.2770
18059TIP3    H275669   3.099   0.928  16.106  1.3985  0.7552 -2.4478
18060TIP3   OH275670   5.521   5.035   3.875  0.3766 -0.3118 -0.0316
18060TIP3    H175671   5.551   5.040   3.785 -1.5483  0.3203 -0.6850
18060TIP3    H275672   5.591   5.077   3.926  1.0910  0.1225 -1.3283
18061TIP3   OH275673   5.957   4.523  16.695 -0.3889 -0.0002  0.1319
18061TIP3    H175674   6.045   4.558  16.709  1.7267 -4.8127  0.9428
18061TIP3    H275675   5.961   4.481  16.610 -1.8963 -0.3978  0.2256
18062TIP3   OH275676   5.069   3.968  16.701  0.0646  0.7608 -0.5296
18062TIP3    H175677   4.995   4.022  16.727  0.7526 -0.2900  4.7133
18062TIP3    H275678   5.088   3.915  16.778  4.3111 -1.3562 -2.6873
18063TIP3   OH275679   4.284   0.995  16.627 -0.2954 -0.0800  0.4074
18063TIP3    H175680   4.276   0.992  16.722 -1.5774  0.1829  0.3287
18063TIP3    H275681   4.316   1.083  16.608  3.2982 -1.1785  0.7449
18064TIP3   OH275682   5.531   5.420  16.099 -0.2918  0.0912  0.0132
18064TIP3    H175683   5.573   5.415  16.184  2.0882 -1.4446 -1.1668
18064TIP3    H275684   5.519   5.514  16.084  0.2405  0.4303  1.5579
18065TIP3   OH275685   2.639   4.011   2.058  0.2401 -0.2485 -0.0882
18065TIP3    H175686   2.591   3.950   2.113 -1.7405  0.0312 -1.4333
18065TIP3    H275687   2.578   4.082   2.041  0.4636 -0.6636 -3.2256
18066TIP3   OH275688   4.717   0.995  13.509 -0.5608 -0.4802 -0.6366
18066TIP3    H175689   4.678   1.079  13.486  1.9200  0.6768 -0.9698
18066TIP3    H275690   4.756   0.963  13.428  3.5668  1.0101  0.5198
18067TIP3   OH275691   0.188   2.945  17.269  0.7300 -0.3147  0.0423
18067TIP3    H175692   0.094   2.929  17.262  0.0073  2.9691  0.8774
18067TIP3    H275693   0.203   3.025  17.218  2.6215  0.5536  1.8100
18068TIP3   OH275694   0.193   6.310   1.527 -0.3383  0.1707  0.1860
18068TIP3    H175695   0.099   6.319   1.512 -0.4572 -1.9002 -0.7733
18068TIP3    H275696   0.231   6.303   1.439  0.7293  1.0036  0.5567
18069TIP3   OH275697   1.941   4.067  15.658 -0.4926  0.0314 -0.7220
18069TIP3    H175698   2.013   4.107  15.610 -0.6857  0.9251 -0.2852
18069TIP3    H275699   1.977   4.048  15.744 -0.4567 -0.5725 -0.8659
18070TIP3   OH275700   2.357   3.681   5.963  0.0902 -0.1503 -0.1063
18070TIP3    H175701   2.383   3.756   6.016  0.5522 -0.7177  0.4958
18070TIP3    H275702   2.282   3.644   6.008  0.1887 -0.3575 -0.1092
18071TIP3   OH275703   1.631   4.317   0.192 -0.3840 -0.1453  0.2023
18071TIP3    H175704   1.692   4.263   0.242 -0.1301  1.3467  1.5761
18071TIP3    H275705   1.679   4.338   0.111 -0.8741 -2.7236 -0.8580
18072TIP3   OH275706   3.647   1.949   4.897 -0.0919 -0.4689  0.5442
18072TIP3    H175707   3.668   1.883   4.830  1.1190  0.7395 -0.3138
18072TIP3    H275708   3.732   1.973   4.934 -0.1220  2.5419 -1.0542
18073TIP3   OH275709   4.894   2.674  11.579  0.2483 -0.1483 -0.2968
18073TIP3    H175710   4.877   2.580  11.585  2.5814 -0.5984  0.3365
18073TIP3    H275711   4.980   2.685  11.619  0.3885  2.1635 -1.0943
18074TIP3   OH275712   5.875   4.893   3.491 -0.2584 -0.5550 -0.1795
18074TIP3    H175713   5.850   4.956   3.558  2.1797 -1.0890  1.3762
18074TIP3    H275714   5.970   4.903   3.482 -0.2603 -1.7022 -2.3452
18075TIP3   OH275715   4.081   6.458   2.700  0.4315  0.0444  0.3283
18075TIP3    H175716   4.050   6.448   2.790  0.8534  0.1548  0.4852
18075TIP3    H275717   4.056   6.376   2.657  1.0863 -0.4084  0.7946
18076TIP3   OH275718   1.027   6.153  16.358  0.9718  0.0837 -0.0278
18076TIP3    H175719   1.089   6.210  16.311 -1.3703  1.3058 -1.8147
18076TIP3    H275720   0.946   6.203  16.361 -0.6809 -2.4402  0.0205
18077TIP3   OH275721   5.944   0.110  16.610  0.2740 -0.2075 -0.2698
18077TIP3    H175722   5.925   0.141  16.699  0.9313  0.5992 -0.4026
18077TIP3    H275723   5.935   0.015  16.615  0.4571 -0.1815  0.6974
18078TIP3   OH275724   0.712   6.059   2.562  0.3219  0.1089  0.2534
18078TIP3    H175725   0.754   6.135   2.520 -1.4837  0.2641 -1.3903
18078TIP3    H275726   0.706   5.994   2.492  1.3337 -1.4012  1.5072
18079TIP3   OH275727   0.855   3.640   5.538  0.3976  0.1309  0.6093
18079TIP3    H175728   0.845   3.644   5.443 -0.4858  0.5811  0.7069
18079TIP3    H275729   0.795   3.570   5.565  1.1730 -0.4817  0.7782
18080TIP3   OH275730   1.769   6.480  16.670 -0.0449 -0.2869 -0.5198
18080TIP3    H175731   1.854   6.525  16.666  0.6294 -1.3997  0.4782
18080TIP3    H275732   1.717   6.532  16.730 -1.0911  1.9314 -3.1610
18081TIP3   OH275733   5.404   5.933   3.292 -0.1162  0.6960  0.3982
18081TIP3    H175734   5.404   5.873   3.218 -0.2293  1.2190 -0.0332
18081TIP3    H275735   5.365   6.013   3.258 -2.7221  0.0896  1.7409
18082TIP3   OH275736   0.259   2.754  13.604 -0.1777 -0.2218  0.3250
18082TIP3    H175737   0.225   2.757  13.515  0.5833  2.7303  0.0250
18082TIP3    H275738   0.332   2.692  13.601  0.8010  0.9395 -1.5098
18083TIP3   OH275739   6.398   2.027  15.190 -0.3988 -0.0654 -0.1688
18083TIP3    H175740   6.490   2.041  15.170 -0.6345  1.3327 -0.3312
18083TIP3    H275741   6.389   1.931  15.197  0.4278 -0.4332 -3.0992
18084TIP3   OH275742   4.285   4.895  17.267  1.0711  0.5016  0.5120
18084TIP3    H175743   4.261   4.937  17.184 -1.0417  0.6385  1.1594
18084TIP3    H275744   4.340   4.821  17.240 -0.4953 -0.1350 -1.1201
18085TIP3   OH275745   3.906   5.409   2.646  0.5917  0.8030  0.1884
18085TIP3    H175746   3.813   5.390   2.633  1.1169 -1.0323 -1.3838
18085TIP3    H275747   3.912   5.441   2.736 -1.4923  0.5945  0.4490
18086TIP3   OH275748   4.694   5.970  16.460  0.0117  0.0987  0.2742
18086TIP3    H175749   4.695   5.926  16.375 -0.5654  0.5024  0.0508
18086TIP3    H275750   4.722   5.902  16.522 -0.0271 -0.3349 -0.1710
18087TIP3   OH275751   5.177   5.030  12.967 -0.3736  0.3186 -0.3723
18087TIP3    H175752   5.115   5.080  13.021 -0.5840 -0.1843 -0.1391
18087TIP3    H275753   5.227   4.979  13.031 -1.8754 -1.7249 -0.7158
18088TIP3   OH275754   3.525   3.901   1.654  0.3099 -0.1622  0.3560
18088TIP3    H175755   3.563   3.925   1.569  0.7418 -0.5345  0.4437
18088TIP3    H275756   3.473   3.978   1.679 -1.2441 -0.6883 -1.0517
18089TIP3   OH275757   1.227   0.995   4.005  0.1286 -0.8758 -0.2624
18089TIP3    H175758   1.272   1.061   3.952  1.3041 -0.6211  1.0101
18089TIP3    H275759   1.139   1.032   4.019 -0.3613 -1.1405 -2.3224
18090TIP3   OH275760   3.342   2.025  17.176  0.3148  0.1765  0.3841
18090TIP3    H175761   3.423   2.011  17.225  1.1790  0.2277 -0.9743
18090TIP3    H275762   3.302   1.939  17.171  1.8091 -0.4999 -1.4401
18091TIP3   OH275763   5.408   2.200   5.126 -0.7097 -1.1251 -0.2150
18091TIP3    H175764   5.490   2.206   5.174  0.1714 -3.6285 -1.2311
18091TIP3    H275765   5.408   2.277   5.069 -1.7324  1.8734  3.4020
18092TIP3   OH275766   3.431   3.917  16.247 -0.1569  0.4700 -0.3450
18092TIP3    H175767   3.519   3.881  16.241 -0.9119 -2.0156  1.7624
18092TIP3    H275768   3.436   3.983  16.316  0.1495  0.6822 -0.5698
18093TIP3   OH275769   0.092   4.062   1.187 -0.3823 -0.2676 -0.5157
18093TIP3    H175770   0.092   4.083   1.280  0.9226 -0.5384 -0.4255
18093TIP3    H275771   0.146   3.983   1.181 -2.3585 -1.6417 -1.2361
18094TIP3   OH275772   0.347   5.113  14.394  0.4382  0.1918  0.4760
18094TIP3    H175773   0.331   5.027  14.357 -0.5042  1.3796 -2.1108
18094TIP3    H275774   0.260   5.144  14.421  0.5082  0.9579 -0.1311
18095TIP3   OH275775   3.794   2.419   6.203 -0.6237  0.4313  0.4303
18095TIP3    H175776   3.869   2.479   6.203 -1.0513  0.9805 -0.3143
18095TIP3    H275777   3.827   2.339   6.162 -0.7148  1.0374 -0.8700
18096TIP3   OH275778   3.981   5.982   0.064 -0.0256 -0.4256 -0.4331
18096TIP3    H175779   3.991   5.888   0.077 -3.0949 -0.6177  1.4983
18096TIP3    H275780   3.897   5.992   0.021  1.1526  1.4197 -2.5079
18097TIP3   OH275781   2.263   0.138  13.320  0.1053 -0.0680 -0.7687
18097TIP3    H175782   2.299   0.190  13.391  0.1751 -0.5213 -0.4655
18097TIP3    H275783   2.189   0.190  13.287 -0.6170 -0.3403  0.3521
18098TIP3   OH275784   1.757   2.716  12.800 -0.5660 -0.0356  0.0415
18098TIP3    H175785   1.759   2.679  12.712  2.6972 -0.7666  0.2788
18098TIP3    H275786   1.732   2.807  12.787 -1.4743 -0.4690 -1.4637
18099TIP3   OH275787   3.816   2.030   1.635 -0.4155 -0.2231 -0.2077
18099TIP3    H175788   3.869   2.065   1.564  0.9642 -0.7563  0.5339
18099TIP3    H275789   3.782   2.107   1.680 -1.6133  0.1286 -1.6244
18100TIP3   OH275790   4.162   2.956   4.438 -0.4221 -0.1298 -0.1682
18100TIP3    H175791   4.169   2.865   4.408 -0.8081 -0.1600 -0.1730
18100TIP3    H275792   4.223   3.004   4.383 -2.2363  0.1022 -2.1359
18101TIP3   OH275793   4.408   5.535  12.554  0.2423  0.0927  0.2839
18101TIP3    H175794   4.430   5.442  12.559  1.0300  0.2221 -0.4350
18101TIP3    H275795   4.472   5.571  12.492 -0.8935  0.8602 -0.4733
18102TIP3   OH275796   6.771   0.440   2.773 -0.2325 -0.0847 -0.1427
18102TIP3    H175797   6.821   0.505   2.723  0.4102  1.5102  2.3890
18102TIP3    H275798   6.838   0.389   2.819 -0.8135 -1.4482 -0.7470
18103TIP3   OH275799   5.757   4.089  16.293  0.4976  0.2618 -0.2723
18103TIP3    H175800   5.816   4.037  16.347 -1.1793 -1.9210 -0.3916
18103TIP3    H275801   5.781   4.180  16.311  3.2095 -0.5077  0.3710
18104TIP3   OH275802   5.586   1.230   3.699  0.7247  0.3483 -0.3593
18104TIP3    H175803   5.497   1.205   3.676 -0.1399  2.2325  0.6837
18104TIP3    H275804   5.632   1.146   3.711 -1.0768 -0.6783 -0.2287
18105TIP3   OH275805   0.376   4.944  13.582  0.5474  0.7764  0.6767
18105TIP3    H175806   0.355   4.934  13.489  1.3111  1.2722  0.4403
18105TIP3    H275807   0.425   5.026  13.586  0.7061  0.6450  1.4916
18106TIP3   OH275808   4.940   1.933  15.501 -0.5260  0.7336 -0.1152
18106TIP3    H175809   4.948   1.847  15.542 -0.4311  0.6492 -0.3068
18106TIP3    H275810   4.966   1.995  15.569  1.5363  0.4963 -0.6069
18107TIP3   OH275811   4.026   2.518   4.598 -0.4658 -0.1001 -0.0738
18107TIP3    H175812   4.081   2.451   4.639 -0.2798  0.7346  1.1142
18107TIP3    H275813   4.082   2.556   4.530  0.4663  0.6799  1.0633
18108TIP3   OH275814   0.331   0.380   5.835  0.3378 -0.0879  0.6159
18108TIP3    H175815   0.374   0.431   5.904  0.7663  0.2730  0.0932
18108TIP3    H275816   0.254   0.432   5.811 -1.2928 -1.4227  2.5661
18109TIP3   OH275817   6.070   2.389   1.031  0.7166  0.1059 -0.1482
18109TIP3    H175818   6.035   2.477   1.044  1.5760  0.4512 -0.0942
18109TIP3    H275819   6.051   2.368   0.940 -0.5178 -0.1358  0.1367
18110TIP3   OH275820   4.631   5.410   4.403 -0.4265  0.4418  0.2525
18110TIP3    H175821   4.681   5.406   4.485  0.0560 -0.7686 -0.0880
18110TIP3    H275822   4.652   5.496   4.367 -0.8307  1.0921  1.5065
18111TIP3   OH275823   1.738   3.804  16.795 -0.1253  0.6721 -0.2654
18111TIP3    H175824   1.652   3.834  16.826 -0.0814  2.6281 -1.8428
18111TIP3    H275825   1.736   3.819  16.700  0.6896 -2.6079 -0.9363
18112TIP3   OH275826   1.169   0.934   5.108 -0.1940 -0.9833  0.0766
18112TIP3    H175827   1.121   0.870   5.162  0.8508 -0.8975  1.1570
18112TIP3    H275828   1.136   1.019   5.136  0.4335 -0.9328  0.6932
18113TIP3   OH275829   5.361   0.527  15.495  0.2208 -0.6733 -0.0574
18113TIP3    H175830   5.307   0.568  15.563  1.0579  0.2996  0.0488
18113TIP3    H275831   5.299   0.478  15.441 -0.9009  1.0922 -0.4360
18114TIP3   OH275832   3.786   6.043   2.164 -0.0706  0.3633 -0.0342
18114TIP3    H175833   3.716   6.003   2.111  0.0273  1.0942 -0.7447
18114TIP3    H275834   3.840   6.090   2.100  0.4368  0.7233  0.6456
18115TIP3   OH275835   3.925   4.006   2.478 -0.1059  0.1094 -0.4215
18115TIP3    H175836   3.979   3.926   2.478  1.2166  0.9655  0.0510
18115TIP3    H275837   3.836   3.974   2.469  0.3212 -1.4845  0.5461
18116TIP3   OH275838   5.801   1.599  15.965  0.0534  0.5022 -0.2276
18116TIP3    H175839   5.836   1.676  15.920 -1.2896  0.0599 -2.1212
18116TIP3    H275840   5.795   1.532  15.898 -1.2237 -0.4740  0.8036
18117TIP3   OH275841   6.101   0.020  12.729  0.1059  0.1772 -0.3909
18117TIP3    H175842   6.149   0.087  12.778 -0.7247 -0.8611  1.9647
18117TIP3    H275843   6.048   0.069  12.667 -1.9104  1.9404  2.5088
18118TIP3   OH275844   1.192   6.463  15.905  0.2947  1.0438 -0.1758
18118TIP3    H175845   1.242   6.383  15.919 -0.5434  0.5870  0.2720
18118TIP3    H275846   1.245   6.532  15.945 -0.4877  0.2432  2.4778
18119TIP3   OH275847   0.407   4.213  13.297 -0.2370 -0.2677 -0.6974
18119TIP3    H175848   0.476   4.222  13.363  0.1217  0.9925 -1.2096
18119TIP3    H275849   0.414   4.122  13.268 -0.0989 -0.7147  0.6567
18120TIP3   OH275850   2.242   3.283   0.766  0.8040  0.0431 -0.2600
18120TIP3    H175851   2.237   3.355   0.829 -1.1904  0.7340 -1.1074
18120TIP3    H275852   2.233   3.204   0.819 -0.9657  0.6079  0.3784
18121TIP3   OH275853   5.953   2.511   4.561  0.7184  0.6932  0.1082
18121TIP3    H175854   6.030   2.550   4.520  0.3760  0.4991 -0.7411
18121TIP3    H275855   5.912   2.584   4.608  0.9415  0.9993 -0.1618
18122TIP3   OH275856   1.017   2.162  15.892  0.1370 -0.5025  0.1784
18122TIP3    H175857   1.067   2.094  15.847  1.1125  0.2993  0.0222
18122TIP3    H275858   0.929   2.155  15.855  0.6611 -0.5381 -1.1274
18123TIP3   OH275859   3.323   2.826   3.039 -1.0157 -0.4081  0.2436
18123TIP3    H175860   3.350   2.918   3.044 -2.6530  0.0400  1.8040
18123TIP3    H275861   3.261   2.822   2.966 -2.1478  0.1028  1.1460
18124TIP3   OH275862   6.383   3.124   2.038  0.3858  0.2797  0.0319
18124TIP3    H175863   6.387   3.219   2.050 -1.0392  0.6772 -2.1876
18124TIP3    H275864   6.291   3.102   2.051  0.3372 -0.4847 -1.4553
18125TIP3   OH275865   5.454   0.736  16.291  0.0978  0.8136  0.1147
18125TIP3    H175866   5.367   0.743  16.329  0.7784 -0.3475  2.0751
18125TIP3    H275867   5.448   0.664  16.229  0.4404 -2.0161  3.0790
18126TIP3   OH275868   1.464   5.620  12.248  0.3610 -0.6860 -0.0032
18126TIP3    H175869   1.375   5.597  12.222  0.3622 -0.5839 -0.0951
18126TIP3    H275870   1.520   5.585  12.179  0.3701 -0.4887 -0.0961
18127TIP3   OH275871   2.048   1.929   4.518 -0.0111 -0.0561 -0.3900
18127TIP3    H175872   1.962   1.931   4.562 -0.6902  2.4816 -1.6214
18127TIP3    H275873   2.032   1.882   4.436 -0.0754 -0.1183 -0.3423
18128TIP3   OH275874   0.479   0.080   5.226 -0.0790 -0.4918  0.3421
18128TIP3    H175875   0.458   0.103   5.316 -0.3127 -0.8921  0.3891
18128TIP3    H275876   0.488  -0.015   5.226 -0.5362 -0.5427 -0.1498
18129TIP3   OH275877   6.680   3.176   0.264  0.0237  0.1245  0.1069
18129TIP3    H175878   6.720   3.235   0.328  3.4095  0.4940 -2.0915
18129TIP3    H275879   6.633   3.234   0.204 -2.8181 -0.1902  1.8709
18130TIP3   OH275880   0.247   2.834  16.221 -0.0547 -0.7742 -0.1865
18130TIP3    H175881   0.236   2.906  16.158  1.8953 -1.4186 -1.3572
18130TIP3    H275882   0.294   2.874  16.295 -1.2723 -0.2981  0.3641
18131TIP3   OH275883   5.658   0.288   4.810 -0.6562  0.0637  0.2536
18131TIP3    H175884   5.741   0.334   4.799 -1.4528  1.3833 -0.6257
18131TIP3    H275885   5.679   0.196   4.796  0.8002  0.2718  0.9330
18132TIP3   OH275886   5.695   2.477  10.803 -0.0269 -0.5874  0.0561
18132TIP3    H175887   5.776   2.462  10.852 -0.0838 -0.5279  0.1697
18132TIP3    H275888   5.642   2.400  10.823 -0.4532 -0.0856  0.9082
18133TIP3   OH275889   3.265   4.332  14.307 -0.2499 -0.4619  0.6089
18133TIP3    H175890   3.336   4.268  14.305  0.3598  0.2003  0.6091
18133TIP3    H275891   3.280   4.382  14.387 -2.0953 -1.8195  1.8769
18134TIP3   OH275892   3.278   1.161  17.025 -0.0216 -0.6562  0.1360
18134TIP3    H175893   3.323   1.095  16.972  0.7326  0.1657 -0.2586
18134TIP3    H275894   3.270   1.237  16.968 -1.0105 -0.4296  0.5418
18135TIP3   OH275895   0.520   1.545   1.810  0.5049 -0.4844  0.8986
18135TIP3    H175896   0.490   1.615   1.751  1.6282 -0.5933  0.1532
18135TIP3    H275897   0.518   1.585   1.897  1.2353  0.5393  0.4770
18136TIP3   OH275898   1.619   2.974  12.017 -0.0607 -0.1746  0.6176
18136TIP3    H175899   1.597   3.053  11.967 -0.5735  0.5652  1.9517
18136TIP3    H275900   1.582   2.902  11.967  0.9344  0.3618 -0.9417
18137TIP3   OH275901   4.402   1.555   4.093 -0.2210  0.3904 -0.3853
18137TIP3    H175902   4.378   1.538   4.183 -0.8865  2.8775 -0.0239
18137TIP3    H275903   4.498   1.550   4.092 -0.2512 -3.7397 -0.5610
18138TIP3   OH275904   1.286   4.269  14.592  0.3264  0.0217 -0.1927
18138TIP3    H175905   1.282   4.181  14.629  1.5722 -0.1876 -0.5117
18138TIP3    H275906   1.377   4.279  14.562  0.0958  1.2524 -0.5581
18139TIP3   OH275907   0.994   2.451   2.408 -0.4721  0.8504  0.3941
18139TIP3    H175908   0.993   2.358   2.430  0.6580  0.6815 -0.1838
18139TIP3    H275909   0.980   2.454   2.314  3.2070  0.9538 -0.2864
18140TIP3   OH275910   0.653   5.678   1.689  0.1801 -0.6035 -0.4164
18140TIP3    H175911   0.609   5.622   1.624 -0.2003 -1.1957  0.3315
18140TIP3    H275912   0.692   5.616   1.751 -1.2831 -0.0441  1.1138
18141TIP3   OH275913   2.773   6.718   6.245  0.1182  0.1870  0.2979
18141TIP3    H175914   2.771   6.765   6.329  0.4603 -0.0224  0.4254
18141TIP3    H275915   2.866   6.701   6.229  0.1653  1.2925 -0.7252
18142TIP3   OH275916   4.493   3.719  13.411  0.0640 -0.2737 -0.1510
18142TIP3    H175917   4.442   3.790  13.370  0.2203 -0.9055 -1.4971
18142TIP3    H275918   4.429   3.674  13.467  0.0019  0.9981  0.8656
18143TIP3   OH275919   1.711   0.125   1.260  0.6626  0.1247  0.1959
18143TIP3    H175920   1.726   0.054   1.198  3.2825 -0.2696  1.1412
18143TIP3    H275921   1.650   0.088   1.324  3.0956 -1.9474  1.4948
18144TIP3   OH275922   0.837   6.149  15.759 -0.1536 -0.4055 -0.0962
18144TIP3    H175923   0.859   6.129  15.851  0.6839  0.5569 -0.0637
18144TIP3    H275924   0.742   6.162  15.760 -0.0629  0.3499  0.8028
18145TIP3   OH275925   2.938   2.915   4.521  0.2572  0.5875 -0.0969
18145TIP3    H175926   3.029   2.900   4.547  0.9661  0.1918 -2.5307
18145TIP3    H275927   2.942   2.993   4.466 -0.8468  0.4945 -0.3233
18146TIP3   OH275928   0.931   3.124  17.241 -0.0520 -0.3669 -0.6020
18146TIP3    H175929   1.020   3.145  17.212  0.9605 -2.6675  0.5455
18146TIP3    H275930   0.922   3.169  17.325  0.0620 -0.1800 -0.6906
18147TIP3   OH275931   2.223   4.884   0.696  0.0950 -0.5125 -0.1411
18147TIP3    H175932   2.205   4.830   0.773  0.4256 -1.6082 -0.8052
18147TIP3    H275933   2.242   4.821   0.627  1.1225  0.4824 -0.7911
18148TIP3   OH275934   6.014   0.484   0.492  0.5845 -0.3824 -0.4253
18148TIP3    H175935   5.995   0.561   0.545 -1.6278  1.0841 -3.0769
18148TIP3    H275936   6.099   0.502   0.453 -0.2636  1.2135 -1.6545
18149TIP3   OH275937   0.606   4.933  12.124 -0.1782  0.0464  0.2820
18149TIP3    H175938   0.632   4.842  12.110  2.3157  0.6541  0.4994
18149TIP3    H275939   0.658   4.983  12.061 -1.8038  1.3307 -0.1244
18150TIP3   OH275940   1.822   3.608   5.809 -0.5573  0.0696  0.0416
18150TIP3    H175941   1.892   3.668   5.784  0.4770 -0.5374  1.3750
18150TIP3    H275942   1.773   3.593   5.728  0.8236  0.5443 -0.9170
18151TIP3   OH275943   6.172   6.433  16.523 -0.5030  0.4838  0.9688
18151TIP3    H175944   6.224   6.353  16.517 -1.1675  0.0204  1.2478
18151TIP3    H275945   6.149   6.440  16.616 -0.8878  0.7171  0.8587
18152TIP3   OH275946   2.924   5.862  13.210 -0.1784  0.7513  0.1324
18152TIP3    H175947   2.973   5.801  13.266 -0.5274  1.2170  0.9663
18152TIP3    H275948   2.884   5.807  13.144 -1.1457 -0.0462  1.3455
18153TIP3   OH275949   6.473   1.485   3.950 -0.6465  0.0162 -0.4463
18153TIP3    H175950   6.418   1.430   4.006  1.1360 -1.8172 -0.4082
18153TIP3    H275951   6.415   1.511   3.878 -1.5307 -2.0086 -0.5246
18154TIP3   OH275952   4.605   1.314  16.374  0.1467  0.2066 -0.4153
18154TIP3    H175953   4.559   1.242  16.331 -0.2296  0.0629  0.2106
18154TIP3    H275954   4.659   1.353  16.305  0.8517 -1.0691 -0.6151
18155TIP3   OH275955   4.792   6.345   5.768  0.0894 -0.5313 -0.0219
18155TIP3    H175956   4.858   6.406   5.734  0.7624 -1.1808  0.0821
18155TIP3    H275957   4.833   6.305   5.844 -0.7489 -0.3539  0.5363
18156TIP3   OH275958   2.583   3.032   0.738 -0.0769 -0.1357 -0.0598
18156TIP3    H175959   2.550   3.039   0.649 -0.7486 -0.9376  0.1189
18156TIP3    H275960   2.614   2.942   0.745  2.7325  0.7256 -0.3997
18157TIP3   OH275961   3.697   1.502   1.353  0.3089  0.6979  0.2912
18157TIP3    H175962   3.637   1.448   1.404  0.1216 -1.0775 -1.6792
18157TIP3    H275963   3.784   1.468   1.373  0.4883  1.7259  1.3584
18158TIP3   OH275964   4.514   6.246  16.774  0.4358 -0.5575 -0.0254
18158TIP3    H175965   4.470   6.299  16.840  0.0770  1.0405 -1.4756
18158TIP3    H275966   4.597   6.290  16.758 -0.1621  0.0453 -1.7400
18159TIP3   OH275967   3.818   6.384   2.342  0.1172 -0.4384 -0.4535
18159TIP3    H175968   3.857   6.413   2.260 -1.0597 -0.8664 -1.1897
18159TIP3    H275969   3.739   6.336   2.316 -1.0962  0.6586  0.9550
18160TIP3   OH275970   5.544   4.149   5.066  0.2123  0.2271  0.1934
18160TIP3    H175971   5.626   4.118   5.105 -0.0543  1.8131  2.1669
18160TIP3    H275972   5.567   4.231   5.022  0.2710 -0.9633 -2.1693
18161TIP3   OH275973   4.030   3.717  11.206  0.5509 -0.0500 -0.4533
18161TIP3    H175974   4.004   3.707  11.115 -1.0272 -1.6856  0.0998
18161TIP3    H275975   3.961   3.772  11.244 -1.6321 -3.2533  0.7112
18162TIP3   OH275976   4.549   3.831   3.905 -0.1568 -0.5004  0.2127
18162TIP3    H175977   4.516   3.885   3.833  1.3672 -0.5271 -0.5452
18162TIP3    H275978   4.618   3.777   3.865 -0.3439 -1.6557  1.3644
18163TIP3   OH275979   3.596   3.545   2.212 -0.0547  0.3335 -0.0732
18163TIP3    H175980   3.610   3.494   2.132  0.9643 -0.5428  0.6329
18163TIP3    H275981   3.678   3.593   2.224 -0.3719  0.8126  0.2116
18164TIP3   OH275982   0.846   6.167   0.600 -0.1262 -0.7211  0.3903
18164TIP3    H175983   0.829   6.102   0.532 -1.4729  0.8769 -0.9053
18164TIP3    H275984   0.775   6.230   0.591  2.1801  2.0730  0.1304
18165TIP3   OH275985   1.852   1.672   0.118  0.3077 -0.0860 -0.2409
18165TIP3    H175986   1.828   1.657   0.209 -0.8183 -0.2091 -0.5369
18165TIP3    H275987   1.941   1.638   0.111  0.9499  1.2106  1.1310
18166TIP3   OH275988   4.953   5.880   2.718  0.3531  0.1999 -0.1321
18166TIP3    H175989   4.878   5.904   2.662  0.4084  0.7001  0.0020
18166TIP3    H275990   4.951   5.944   2.789  0.2040 -0.5178  0.5184
18167TIP3   OH275991   1.668   2.737   2.235  0.5385 -0.0109 -0.0491
18167TIP3    H175992   1.680   2.770   2.324 -1.3662  0.7094 -0.0088
18167TIP3    H275993   1.601   2.670   2.243  0.7354 -0.3186 -0.8674
18168TIP3   OH275994   0.418   3.644   0.149 -0.2726  0.2833 -0.0185
18168TIP3    H175995   0.478   3.716   0.169 -0.5437  0.4996  0.0294
18168TIP3    H275996   0.425   3.585   0.224  1.2723 -0.6450 -0.8492
18169TIP3   OH275997   0.332   5.302  11.242 -0.7210  0.1218 -0.3965
18169TIP3    H175998   0.373   5.248  11.174 -0.2531  0.2308 -0.2038
18169TIP3    H275999   0.337   5.391  11.208  0.6178  0.3415  0.2938
18170TIP3   OH276000   6.164   1.918   2.644 -0.8244  0.0257 -0.4931
18170TIP3    H176001   6.091   1.971   2.675 -0.1756  0.9656 -0.5536
18170TIP3    H276002   6.171   1.848   2.710 -1.8906 -0.1903 -0.5937
18171TIP3   OH276003   0.478   0.761   2.187 -0.0751  0.0806 -0.2947
18171TIP3    H176004   0.560   0.741   2.141  0.5731 -0.4098  1.0441
18171TIP3    H276005   0.441   0.834   2.137  2.0764  1.5441  0.1089
18172TIP3   OH276006   2.000   1.296   0.052 -0.4698 -0.1041 -0.4936
18172TIP3    H176007   2.020   1.331   0.138 -3.0838  0.3092  0.0265
18172TIP3    H276008   2.029   1.205   0.055  1.2802  0.4441  0.0846
18173TIP3   OH276009   1.111   4.222  15.380  0.3904  0.0249  0.8748
18173TIP3    H176010   1.051   4.282  15.425 -0.2441  0.5269 -0.5774
18173TIP3    H276011   1.156   4.278  15.316 -0.3593 -1.0589 -0.6496
18174TIP3   OH276012   6.439   4.480   2.662 -0.4480  0.1504 -0.1879
18174TIP3    H176013   6.485   4.425   2.599 -0.2847  0.7077 -0.5649
18174TIP3    H276014   6.427   4.424   2.738 -0.2414 -0.3898 -0.5458
18175TIP3   OH276015   3.440   5.625  16.782 -0.1689 -0.6875  0.4386
18175TIP3    H176016   3.456   5.567  16.856  2.3531 -0.2578  0.3364
18175TIP3    H276017   3.383   5.693  16.816 -0.2931 -1.3253  1.5425
18176TIP3   OH276018   4.271   5.358   0.247  0.0161 -0.1448 -0.1783
18176TIP3    H176019   4.343   5.301   0.274 -0.6740 -0.3807  1.2547
18176TIP3    H276020   4.230   5.312   0.175  1.5447  0.2014 -1.3247
18177TIP3   OH276021   4.572   5.176   5.971 -0.2010 -0.4191 -0.1354
18177TIP3    H176022   4.568   5.193   6.066  1.6586 -2.0107  0.2935
18177TIP3    H276023   4.489   5.133   5.951 -1.1218  0.9789  0.5000
18178TIP3   OH276024   4.794   4.704  15.180 -0.0103 -0.0791  0.1745
18178TIP3    H176025   4.803   4.611  15.160 -0.1783 -0.3811  1.3924
18178TIP3    H276026   4.700   4.722  15.169 -0.1087 -0.2531  0.6880
18179TIP3   OH276027   6.292   4.960  13.832 -0.3944  0.4384 -0.1690
18179TIP3    H176028   6.359   4.950  13.764  0.1127 -0.1991  0.4081
18179TIP3    H276029   6.324   5.031  13.888 -1.3321  1.7018 -1.1703
18180TIP3   OH276030   0.408   2.766  14.881 -0.1832 -0.7976  0.0811
18180TIP3    H176031   0.391   2.779  14.975 -2.5286 -0.7435 -0.2836
18180TIP3    H276032   0.465   2.839  14.857 -0.2860 -0.2928  1.2953
18181TIP3   OH276033   2.351   2.656  16.489  0.2324  0.4519 -0.0031
18181TIP3    H176034   2.329   2.622  16.403  0.5152 -0.1086  0.1443
18181TIP3    H276035   2.362   2.750  16.476 -0.8506  0.5409 -0.3582
18182TIP3   OH276036   5.251   4.576  10.453 -0.3236 -0.0148  0.2378
18182TIP3    H176037   5.280   4.666  10.440  3.3419 -0.9300  0.9312
18182TIP3    H276038   5.229   4.545  10.365 -3.1702  1.8700  0.1520
18183TIP3   OH276039   5.074   2.282  15.630 -0.4401  0.2478 -0.1354
18183TIP3    H176040   5.073   2.197  15.674 -2.1384  0.9251  1.2507
18183TIP3    H276041   4.996   2.327  15.662 -1.9219  0.7965 -3.9840
18184TIP3   OH276042   1.539   2.421   0.289 -0.0401  0.2436 -0.3071
18184TIP3    H176043   1.589   2.428   0.208 -1.3513  2.1548 -1.0160
18184TIP3    H276044   1.585   2.353   0.340  2.0848  0.5419 -1.7069
18185TIP3   OH276045   0.142   4.922  12.317 -0.2777 -0.0801  0.1555
18185TIP3    H176046   0.131   5.008  12.278  0.3809 -0.0607 -0.0016
18185TIP3    H276047   0.155   4.863  12.243  0.9525 -0.0463  0.3162
18186TIP3   OH276048   1.324   3.881   5.303 -0.2325  0.3488  0.3658
18186TIP3    H176049   1.330   3.880   5.208 -0.9335 -0.4511  0.3212
18186TIP3    H276050   1.231   3.871   5.322 -0.0073 -0.4900  1.1396
18187TIP3   OH276051   3.845   4.930   3.418  0.1447  0.2557 -0.0283
18187TIP3    H176052   3.933   4.900   3.441 -1.0252 -2.5339  1.2982
18187TIP3    H276053   3.843   4.925   3.322  1.1781 -0.4571 -0.0330
18188TIP3   OH276054   6.187   1.993  16.274  0.2931  0.1287  0.2201
18188TIP3    H176055   6.238   1.914  16.293  0.5716  0.0356 -0.8736
18188TIP3    H276056   6.250   2.065  16.283  0.9756 -0.0637 -2.2008
18189TIP3   OH276057   4.104   0.712  12.163  0.1220 -0.3051  0.0063
18189TIP3    H176058   4.192   0.745  12.181  1.1898 -1.8821 -1.8084
18189TIP3    H276059   4.074   0.763  12.088 -0.4051  0.0120  0.4239
18190TIP3   OH276060   1.735   2.468  12.566  0.0745 -0.4687 -0.0500
18190TIP3    H176061   1.820   2.470  12.522  1.3643 -1.2192  2.2145
18190TIP3    H276062   1.708   2.376  12.563 -0.8100 -0.1980 -0.9579
18191TIP3   OH276063   3.147   2.869   5.409  0.4506  0.0167 -0.4104
18191TIP3    H176064   3.239   2.878   5.433  0.5309 -1.6366  0.0474
18191TIP3    H276065   3.148   2.874   5.313  0.9683  0.3656 -0.3950
18192TIP3   OH276066   0.827   3.610   2.190  0.4124 -0.0295  0.4831
18192TIP3    H176067   0.734   3.591   2.207  0.3775  0.8035  1.2617
18192TIP3    H276068   0.842   3.695   2.231  1.2336  0.3962 -0.6658
18193TIP3   OH276069   3.527   2.970   6.288 -0.0142 -0.5168  0.0045
18193TIP3    H176070   3.519   2.965   6.383 -0.8142  1.2016  0.0644
18193TIP3    H276071   3.618   2.996   6.273  0.5205 -2.1826  0.2051
18194TIP3   OH276072   4.962   4.780  13.095 -0.2728 -0.1314 -0.1764
18194TIP3    H176073   4.898   4.844  13.063 -0.2497  0.1606  0.3558
18194TIP3    H276074   4.949   4.779  13.189  0.9544  0.4084  0.0139
18195TIP3   OH276075   1.300   3.138  15.062 -0.4448  0.3517  0.2658
18195TIP3    H176076   1.316   3.232  15.064 -0.7030  0.5266 -2.2652
18195TIP3    H276077   1.332   3.110  14.976  2.1715 -2.4120  1.9574
18196TIP3   OH276078   3.671   4.949   4.117  0.3625  0.5236 -0.3501
18196TIP3    H176079   3.704   4.931   4.205  0.2321 -0.5443 -0.5008
18196TIP3    H276080   3.612   4.876   4.098  0.6431  0.5530 -1.4440
18197TIP3   OH276081   6.258   3.326  16.909  0.0023 -0.4845  0.1613
18197TIP3    H176082   6.247   3.319  16.814 -2.2927  3.3651 -0.0415
18197TIP3    H276083   6.339   3.374  16.920  0.5404 -1.3841  0.2237
18198TIP3   OH276084   2.498   3.889  15.137 -0.0887  0.1945  0.0173
18198TIP3    H176085   2.568   3.903  15.073  1.6130 -1.8725  1.2871
18198TIP3    H276086   2.522   3.945  15.212  0.5113 -0.8523  0.6325
18199TIP3   OH276087   5.789   2.529  14.268  0.3975 -0.6952  0.2901
18199TIP3    H176088   5.702   2.568  14.267  0.2923 -0.9439 -0.1421
18199TIP3    H276089   5.791   2.475  14.347 -0.2700 -1.6773 -0.3569
18200TIP3   OH276090   2.864   5.441   4.379 -0.0155  0.1441  0.1244
18200TIP3    H176091   2.849   5.381   4.305 -0.4678  3.0011 -2.3223
18200TIP3    H276092   2.945   5.411   4.419  0.0041 -1.8033 -1.2325
18201TIP3   OH276093   0.183   1.589  10.856  0.2838  0.4931 -1.0949
18201TIP3    H176094   0.123   1.612  10.927  0.2745 -0.4963 -0.7644
18201TIP3    H276095   0.127   1.555  10.787  0.4619 -0.7739 -0.6476
18202TIP3   OH276096   6.560   2.710  16.824 -0.2389  0.0943  0.0747
18202TIP3    H176097   6.648   2.674  16.829 -0.2343  0.1798  0.6920
18202TIP3    H276098   6.554   2.747  16.736  0.9435  1.6388  0.5954
18203TIP3   OH276099   4.843   4.685  15.792  0.1590  0.3062  0.2010
18203TIP3    H176100   4.818   4.592  15.784  0.3534  0.2771 -0.0677
18203TIP3    H276101   4.840   4.702  15.886  1.6118 -0.3912  0.4040
18204TIP3   OH276102   0.781   3.458  11.797 -0.1150  0.5106  0.0339
18204TIP3    H176103   0.812   3.423  11.880 -0.9101  1.6294  0.8417
18204TIP3    H276104   0.698   3.413  11.781  0.9292 -1.1134 -1.1765
18205TIP3   OH276105   4.019   3.185   0.511  0.2205 -0.5635 -0.4568
18205TIP3    H176106   4.095   3.241   0.523 -0.4123  0.4749 -1.1838
18205TIP3    H276107   3.971   3.192   0.594  0.7688 -1.0264 -0.0891
18206TIP3   OH276108   0.582   5.608  14.344  0.5086 -0.0868  0.0848
18206TIP3    H176109   0.523   5.627  14.272  1.2915  1.0345 -0.2785
18206TIP3    H276110   0.538   5.643  14.422 -0.4951 -1.5987  0.2532
18207TIP3   OH276111   3.509   5.550  12.727  0.6439 -0.3294 -0.2428
18207TIP3    H176112   3.433   5.512  12.771  1.3997 -1.7428 -0.1131
18207TIP3    H276113   3.474   5.627  12.681 -0.2896  0.8872  2.2839
18208TIP3   OH276114   6.195   6.175  14.529  0.1855  0.3849  0.0828
18208TIP3    H176115   6.204   6.268  14.507  0.5692 -0.0869 -1.9574
18208TIP3    H276116   6.283   6.149  14.557  0.1877  0.5077  0.1976
18209TIP3   OH276117   1.712   5.105  14.250 -0.5461  0.6395 -0.0166
18209TIP3    H176118   1.646   5.112  14.180  0.0551  2.9659 -0.4419
18209TIP3    H276119   1.660   5.099  14.330 -1.2487 -1.8094 -0.5882
18210TIP3   OH276120   1.180   3.360   2.609 -0.2018 -0.4730  0.2228
18210TIP3    H176121   1.093   3.400   2.614  0.4279  0.7870  1.4672
18210TIP3    H276122   1.225   3.388   2.688  0.5702 -3.0182  0.7866
18211TIP3   OH276123   0.859   4.787   1.477  0.0445 -0.3159 -0.0027
18211TIP3    H176124   0.927   4.731   1.439  0.6765 -0.1520  0.8544
18211TIP3    H276125   0.779   4.733   1.473  0.5323 -1.0902  0.3260
18212TIP3   OH276126   5.815   6.819   3.217 -0.6099 -0.6911  0.2878
18212TIP3    H176127   5.881   6.752   3.232  0.5307  0.4136  0.3251
18212TIP3    H276128   5.737   6.786   3.261 -0.4996 -2.6451 -0.8632
18213TIP3   OH276129   4.668   1.701  15.213  0.9322 -0.3609  0.1364
18213TIP3    H176130   4.759   1.709  15.241  0.7576 -1.0992  0.9940
18213TIP3    H276131   4.618   1.737  15.286  0.5223 -0.4586 -0.0937
18214TIP3   OH276132   4.730   2.834  12.015  0.0185  0.5767 -0.0049
18214TIP3    H176133   4.686   2.868  12.093  0.8970  1.1165  0.2693
18214TIP3    H276134   4.710   2.740  12.014  0.5946  0.4222  1.2798
18215TIP3   OH276135   1.831   3.152  10.735 -0.0356 -0.1976  0.0296
18215TIP3    H176136   1.918   3.156  10.774 -0.0175  0.6206 -0.0632
18215TIP3    H276137   1.791   3.236  10.757 -0.6046 -0.3520 -0.3737
18216TIP3   OH276138   1.587   5.289   2.459  0.2314 -0.5704  0.3871
18216TIP3    H176139   1.591   5.195   2.479 -0.9877 -0.7129  0.0387
18216TIP3    H276140   1.577   5.292   2.364 -1.2253 -0.1481  0.5417
18217TIP3   OH276141   3.161   1.605  14.107  0.4856  0.0797 -0.8047
18217TIP3    H176142   3.202   1.691  14.096  1.7196 -0.5199 -1.0956
18217TIP3    H276143   3.075   1.613  14.067 -0.4023  1.8877  1.3030
18218TIP3   OH276144   2.197   2.767   2.877  0.5445 -0.1234  0.3028
18218TIP3    H176145   2.169   2.852   2.843  0.9499  0.6366  1.7831
18218TIP3    H276146   2.163   2.704   2.814 -0.8770  1.0404 -0.1517
18219TIP3   OH276147   6.770   6.080   0.346 -0.3295 -0.3879  0.1471
18219TIP3    H176148   6.734   6.148   0.403 -0.2050 -0.4945  0.3538
18219TIP3    H276149   6.775   6.122   0.260  3.4482  1.2936  0.9639
18220TIP3   OH276150   2.613   1.940   1.704 -0.0617 -0.0099  0.2248
18220TIP3    H176151   2.601   1.997   1.779  0.0365 -1.3823  1.3279
18220TIP3    H276152   2.694   1.892   1.722 -0.7701 -1.3823 -0.0399
18221TIP3   OH276153   0.290   4.441   2.770  0.0619 -0.0749  0.1593
18221TIP3    H176154   0.379   4.460   2.740  0.4518  2.0075  2.3135
18221TIP3    H276155   0.298   4.360   2.820 -0.0245 -1.8765 -2.5674
18222TIP3   OH276156   5.469   1.982  10.901 -0.0358 -0.1376 -0.2972
18222TIP3    H176157   5.457   1.940  10.816 -0.4189  0.0920 -0.3602
18222TIP3    H276158   5.526   1.923  10.949  0.8472  0.1214 -0.9965
18223TIP3   OH276159   5.727   3.131   1.719 -0.0743 -0.0105  0.2079
18223TIP3    H176160   5.681   3.058   1.762  0.6073 -0.9936 -0.6718
18223TIP3    H276161   5.699   3.209   1.767 -1.7892 -0.7068  0.3966
18224TIP3   OH276162   1.537   6.049   2.871 -0.7637  0.4213 -0.1308
18224TIP3    H176163   1.614   5.995   2.854  0.0700  1.6609 -0.4455
18224TIP3    H276164   1.563   6.104   2.945 -0.9866  1.4843 -0.8137
18225TIP3   OH276165   3.362   2.762   6.284  0.1810 -0.2635  0.2549
18225TIP3    H176166   3.408   2.844   6.299 -1.2257  0.1190  3.4872
18225TIP3    H276167   3.428   2.694   6.297  0.6826  0.3335  0.9087
18226TIP3   OH276168   3.375   1.046   0.481  0.7682  0.1764  0.3447
18226TIP3    H176169   3.406   0.956   0.491 -0.1449 -0.0584  1.1633
18226TIP3    H276170   3.452   1.094   0.449  1.7716 -0.5316  1.6029
18227TIP3   OH276171   5.446   1.747   0.189 -0.2123 -0.2470  0.2143
18227TIP3    H176172   5.485   1.662   0.207  0.0522 -0.6660 -2.0470
18227TIP3    H276173   5.471   1.767   0.099 -3.0709  0.6412 -0.4891
18228TIP3   OH276174   2.641   4.973   1.803  0.0751 -0.6945  0.1302
18228TIP3    H176175   2.706   4.916   1.761  0.8106 -0.1311  0.4882
18228TIP3    H276176   2.630   4.935   1.890 -1.0601 -1.5543 -0.3685
18229TIP3   OH276177   5.803   5.148   1.937  0.2154 -0.6209  0.2335
18229TIP3    H176178   5.740   5.078   1.957 -1.0226  0.5121  0.4482
18229TIP3    H276179   5.816   5.141   1.842 -1.3501 -0.0209 -0.0637
18230TIP3   OH276180   3.886   2.804   3.823 -0.0811  0.2130 -0.1121
18230TIP3    H176181   3.976   2.794   3.855 -0.5530 -3.7372  0.5317
18230TIP3    H276182   3.837   2.837   3.899  0.4791  0.3938  0.1759
18231TIP3   OH276183   3.625   1.885  15.810  0.2434 -0.0329  0.3259
18231TIP3    H176184   3.629   1.843  15.724  1.2752  0.2872  0.2037
18231TIP3    H276185   3.661   1.820  15.870  0.2608  0.0450  0.3994
18232TIP3   OH276186   5.914   1.038  15.434 -0.0772  0.0739 -0.5418
18232TIP3    H176187   5.836   1.088  15.459 -0.1791 -0.2313 -0.2526
18232TIP3    H276188   5.882   0.950  15.417  0.3102 -0.2339  0.2810
18233TIP3   OH276189   2.342   3.533  17.271 -0.2195 -0.3450 -0.7662
18233TIP3    H176190   2.375   3.511  17.358 -0.4808 -0.8180 -0.7861
18233TIP3    H276191   2.316   3.450  17.233 -0.1139 -0.1429 -1.2992
18234TIP3   OH276192   3.059   5.340   4.495 -0.1576  0.2699  0.2755
18234TIP3    H176193   2.992   5.279   4.524  0.2487 -0.6422 -0.6261
18234TIP3    H276194   3.121   5.344   4.567  0.3651 -1.2413 -0.0429
18235TIP3   OH276195   0.041   3.064  10.909 -0.0500 -0.3810 -0.1030
18235TIP3    H176196   0.096   3.115  10.968  0.9815  0.5325 -1.7955
18235TIP3    H276197  -0.037   3.118  10.897 -0.1870 -0.4903  0.2752
18236TIP3   OH276198   1.892   0.904  15.091  0.1407  0.7730 -0.3411
18236TIP3    H176199   1.821   0.963  15.119  0.1951  0.6077  0.1685
18236TIP3    H276200   1.933   0.949  15.018 -0.3818  0.9547 -0.5326
18237TIP3   OH276201   4.716   0.408   0.118  0.5231 -0.1409 -0.0661
18237TIP3    H176202   4.689   0.372   0.034  0.5787 -0.3135 -0.0116
18237TIP3    H276203   4.811   0.406   0.115  0.5248 -1.0453  0.3762
18238TIP3   OH276204   3.563   0.247   0.650  0.6192  0.0295 -0.3947
18238TIP3    H176205   3.573   0.336   0.683 -1.6755 -0.1550  0.9832
18238TIP3    H276206   3.643   0.231   0.600  0.9703  2.9520 -0.9387
18239TIP3   OH276207   0.201   5.766  12.288  0.7471 -0.1050 -0.2384
18239TIP3    H176208   0.254   5.833  12.331  0.5759 -1.0838  1.6332
18239TIP3    H276209   0.166   5.809  12.210  1.3541  1.6773  0.4165
18240TIP3   OH276210   1.967   3.140   5.470 -0.4627 -0.9374 -0.5571
18240TIP3    H176211   1.931   3.073   5.528  0.3872 -0.2745  0.7905
18240TIP3    H276212   1.903   3.211   5.473 -0.1095 -0.6362  0.1226
18241TIP3   OH276213   5.572   3.123   1.154 -1.0384 -0.0528  0.3225
18241TIP3    H176214   5.572   3.210   1.114 -2.4830  0.1935  0.8037
18241TIP3    H276215   5.579   3.139   1.248  1.1322 -0.5867  0.3163
18242TIP3   OH276216   4.602   1.397   0.968 -0.3266  0.3167 -0.4878
18242TIP3    H176217   4.619   1.431   0.881 -0.3717  1.5956 -0.0130
18242TIP3    H276218   4.645   1.312   0.970  0.6414  0.7745 -1.3793
18243TIP3   OH276219   6.429   1.364  13.729  0.1999  0.2119 -0.0052
18243TIP3    H176220   6.453   1.357  13.637 -0.7607  1.4405 -0.3697
18243TIP3    H276221   6.512   1.382  13.774  0.7161 -0.6907 -0.5823
18244TIP3   OH276222   5.128   5.770  16.587  0.0983  0.0042  0.0609
18244TIP3    H176223   5.160   5.682  16.567  0.4563 -0.2748  1.7614
18244TIP3    H276224   5.199   5.811  16.637 -0.7693  0.6317  0.8140
18245TIP3   OH276225   1.170   4.940  16.269  0.3371 -0.0447 -0.1769
18245TIP3    H176226   1.195   5.032  16.282 -0.0223 -0.0536  0.6707
18245TIP3    H276227   1.252   4.892  16.275  0.4399  0.1600  0.0823
18246TIP3   OH276228   4.469   0.170  14.158 -0.1601 -0.1496 -0.2373
18246TIP3    H176229   4.441   0.142  14.245  1.3802  0.7237  0.5673
18246TIP3    H276230   4.519   0.250  14.172 -0.0070  0.1053 -1.9475
18247TIP3   OH276231   4.178   4.985  15.722 -0.5839  0.7953  0.0830
18247TIP3    H176232   4.227   5.052  15.770 -0.1958  0.0300  0.7860
18247TIP3    H276233   4.087   4.999  15.745 -0.5340  1.2553 -0.0009
18248TIP3   OH276234   3.699   5.804   6.061  0.2257 -0.2930  0.0502
18248TIP3    H176235   3.766   5.825   6.126  1.9069 -0.1745 -1.6505
18248TIP3    H276236   3.652   5.886   6.048  0.7258  0.0230  0.1939
18249TIP3   OH276237   4.934   5.711   5.109 -0.5155 -0.4676  0.4865
18249TIP3    H176238   4.951   5.721   5.016  0.5628 -0.7993  0.6331
18249TIP3    H276239   5.015   5.674   5.145 -1.0768 -0.7835  1.4791
18250TIP3   OH276240   2.805   1.629  12.325 -0.0336 -0.3785 -0.2122
18250TIP3    H176241   2.750   1.568  12.374 -2.0680  1.2250 -0.3718
18250TIP3    H276242   2.783   1.612  12.233  0.4103 -0.3129 -0.3327
18251TIP3   OH276243   2.912   0.026   2.152 -0.4486 -0.5483 -0.9469
18251TIP3    H176244   2.919  -0.068   2.169  0.6228 -0.0746  1.8052
18251TIP3    H276245   2.953   0.067   2.228 -0.3491  2.1668 -2.3386
18252TIP3   OH276246   5.746   1.592   1.861  0.7168 -0.3289 -0.0714
18252TIP3    H176247   5.795   1.510   1.862  2.0284  0.4365 -0.0223
18252TIP3    H276248   5.782   1.641   1.787  0.9414  0.7737  0.7473
18253TIP3   OH276249   2.277   1.940  11.347 -0.3416  0.1473 -0.1977
18253TIP3    H176250   2.230   1.942  11.264 -0.0089 -1.3090 -0.4459
18253TIP3    H276251   2.256   2.023  11.389 -0.7844  0.7545 -1.5870
18254TIP3   OH276252   0.820   3.060   1.107 -0.1984 -1.0908  0.0299
18254TIP3    H176253   0.827   2.988   1.170  1.9906 -0.2435  0.8751
18254TIP3    H276254   0.887   3.041   1.042  1.0018  0.5398  0.7153
18255TIP3   OH276255   2.062   0.050  11.637  0.3978 -0.2577 -0.1113
18255TIP3    H176256   1.989   0.014  11.586 -0.1792 -0.4033  0.8043
18255TIP3    H276257   2.133   0.060  11.573  0.2517 -2.0468 -0.6077
18256TIP3   OH276258   3.035   0.298  11.470 -0.2636  0.3775  0.3207
18256TIP3    H176259   3.008   0.236  11.538 -0.0825  0.9569  0.9370
18256TIP3    H276260   3.068   0.243  11.399  1.2745 -0.2104  1.4337
18257TIP3   OH276261   0.472   6.400  15.056 -0.7478  0.4671 -0.0908
18257TIP3    H176262   0.452   6.328  15.115  1.1163  0.2087  0.2615
18257TIP3    H276263   0.557   6.433  15.084 -0.6458  1.5187 -1.4885
18258TIP3   OH276264   4.459   4.027  10.256 -0.1672 -0.1969  0.0908
18258TIP3    H176265   4.398   3.994  10.190  0.1216 -1.4843  0.4455
18258TIP3    H276266   4.544   4.022  10.214 -0.1748  0.6607 -0.0491
18259TIP3   OH276267   0.268   1.928  12.522  0.5052 -0.3257 -0.1041
18259TIP3    H176268   0.267   2.015  12.563 -1.2948 -1.2213  1.9585
18259TIP3    H276269   0.265   1.945  12.428  1.7642  1.8236  0.1876
18260TIP3   OH276270   6.148   3.528   1.496  0.0289  0.1507  0.1107
18260TIP3    H176271   6.216   3.501   1.559  3.2961  2.9563 -1.9012
18260TIP3    H276272   6.194   3.537   1.413 -3.3148  0.3802 -1.9056
18261TIP3   OH276273   3.487   1.745   2.009  0.3502  0.2539 -0.1700
18261TIP3    H176274   3.503   1.721   1.917 -0.5562 -0.7423 -0.0818
18261TIP3    H276275   3.450   1.833   2.004 -2.1538 -0.7571 -1.0024
18262TIP3   OH276276   4.836   6.430  11.947  0.6458 -0.1062  0.4450
18262TIP3    H176277   4.868   6.364  11.886 -3.4473 -0.8665 -1.2369
18262TIP3    H276278   4.785   6.381  12.011 -2.6197  1.1502 -0.9213
18263TIP3   OH276279   5.124   2.006  11.280  0.1302 -0.2593  0.7643
18263TIP3    H176280   5.074   1.966  11.209  3.0558 -4.6057  0.7613
18263TIP3    H276281   5.201   2.045  11.237 -1.6152  4.0017  1.0273
18264TIP3   OH276282   6.096   3.390  14.239 -0.3276 -0.2504  0.0143
18264TIP3    H176283   6.157   3.349  14.300 -1.0951 -0.1164  0.9076
18264TIP3    H276284   6.011   3.352  14.261 -0.4554 -1.1748 -1.8521
18265TIP3   OH276285   2.231   6.174   1.195 -0.3143  0.0702 -0.6900
18265TIP3    H176286   2.265   6.085   1.187 -0.7194  0.0032 -1.9010
18265TIP3    H276287   2.145   6.163   1.235  0.1606  0.0434  0.3463
18266TIP3   OH276288   3.422   5.807  15.033 -0.0540 -0.0157  0.4494
18266TIP3    H176289   3.507   5.841  15.061 -0.0423  0.0076  0.3841
18266TIP3    H276290   3.404   5.851  14.950  0.0155 -0.2542  0.3070
18267TIP3   OH276291   4.135   0.561  15.818  0.0842  0.4309  0.4245
18267TIP3    H176292   4.192   0.555  15.741  1.2374 -1.0570  1.3358
18267TIP3    H276293   4.180   0.623  15.875  0.7245 -0.6074  1.0688
18268TIP3   OH276294   5.019   3.772   3.576 -0.4766  0.1824  0.1490
18268TIP3    H176295   5.019   3.840   3.644 -0.1346  0.4185 -0.0810
18268TIP3    H276296   5.109   3.772   3.543 -0.0152 -1.5235  1.2738
18269TIP3   OH276297   3.826   5.055   5.413  0.3139 -0.9300 -0.2210
18269TIP3    H176298   3.756   5.008   5.367 -2.2056  0.5854  1.7544
18269TIP3    H276299   3.809   5.147   5.395  1.4217 -0.4915  0.8488
18270TIP3   OH276300   4.432   2.762   4.437 -0.0447  0.4300  0.0687
18270TIP3    H176301   4.348   2.743   4.395 -0.4800  2.5579 -0.1732
18270TIP3    H276302   4.483   2.807   4.369  2.0497 -2.3750 -0.3687
18271TIP3   OH276303   0.608   0.127   4.932 -0.0145 -0.0299  0.1441
18271TIP3    H176304   0.526   0.173   4.922  0.7240  1.0798 -1.0028
18271TIP3    H276305   0.639   0.152   5.020 -0.9740 -0.6284  0.6705
18272TIP3   OH276306   6.651   5.804   0.096  0.0961  0.0123 -0.2586
18272TIP3    H176307   6.599   5.755   0.159  0.6828 -0.1938  0.0710
18272TIP3    H276308   6.590   5.866   0.056 -0.8800 -1.5593 -1.2980
18273TIP3   OH276309   4.785   1.883   2.495  0.0970  0.5104 -0.1501
18273TIP3    H176310   4.812   1.959   2.443 -0.6341  1.2356  0.5113
18273TIP3    H276311   4.701   1.909   2.533 -0.7552 -1.0829 -0.8708
18274TIP3   OH276312   0.797   3.211   3.084  0.5624 -0.2858 -0.5226
18274TIP3    H176313   0.818   3.248   2.998  3.2754 -0.3290  0.0252
18274TIP3    H276314   0.828   3.121   3.080 -0.6826 -0.7678  0.0523
18275TIP3   OH276315   3.396   3.467  15.492  0.1421  0.4919 -0.1950
18275TIP3    H176316   3.311   3.510  15.503 -0.0352  0.5155 -1.5609
18275TIP3    H276317   3.409   3.420  15.575 -1.9956 -0.9173 -0.5731
18276TIP3   OH276318   0.608   6.685   5.670 -0.1521  0.6803 -0.0222
18276TIP3    H176319   0.675   6.740   5.628 -1.9599  1.1024 -2.6102
18276TIP3    H276320   0.645   6.663   5.755  3.8696 -0.2178 -1.7531
18277TIP3   OH276321   4.276   0.490  15.586  0.4316  0.2317 -0.0343
18277TIP3    H176322   4.347   0.484  15.521  0.6231 -0.5421  0.2375
18277TIP3    H276323   4.196   0.497  15.534  0.7324  1.6271 -0.3502
18278TIP3   OH276324   0.050   5.481   1.147  0.1649 -0.1575 -0.0221
18278TIP3    H176325   0.056   5.527   1.063 -0.5350  0.3139  0.1794
18278TIP3    H276326   0.120   5.519   1.200  0.0247  0.2035 -0.0887
18279TIP3   OH276327   2.011   0.510  14.221  0.6212  0.2138 -0.4965
18279TIP3    H176328   1.990   0.564  14.146  1.9977  0.2135 -0.9052
18279TIP3    H276329   2.038   0.572  14.289 -1.0287  0.2455  0.1672
18280TIP3   OH276330   6.123   0.161  17.260 -0.0092  0.1986 -0.4624
18280TIP3    H176331   6.126   0.142  17.354  0.9466  1.7811 -0.1358
18280TIP3    H276332   6.110   0.076  17.218 -1.6706 -0.4065  1.1401
18281TIP3   OH276333   2.936   2.473   5.925  0.4506 -0.1997  0.0544
18281TIP3    H176334   3.025   2.440   5.912  0.6119  0.6433 -1.0722
18281TIP3    H276335   2.881   2.394   5.923  1.2021 -0.8099  1.4375
18282TIP3   OH276336   3.542   0.831   4.017  0.5140 -0.5746  0.4027
18282TIP3    H176337   3.617   0.874   3.977 -0.4327  0.4182 -0.3516
18282TIP3    H276338   3.575   0.745   4.043  2.0255  0.0123  0.5211
18283TIP3   OH276339   3.152   3.283   4.461 -0.2375 -0.2576  0.2462
18283TIP3    H176340   3.182   3.360   4.509  1.5537  0.4591 -1.8567
18283TIP3    H276341   3.086   3.243   4.518  2.2728  0.0108  3.6576
18284TIP3   OH276342   6.004   5.787   0.570 -0.3108  0.6399  0.0506
18284TIP3    H176343   5.911   5.769   0.584  0.4877 -2.5180  2.4706
18284TIP3    H276344   6.046   5.765   0.654  2.6392  1.9881 -0.9177
18285TIP3   OH276345   5.771   1.265   2.117  0.1464  0.0865 -0.4048
18285TIP3    H176346   5.792   1.349   2.157 -0.1803  0.7041 -1.4928
18285TIP3    H276347   5.814   1.267   2.032 -2.6436  0.6114 -1.9134
18286TIP3   OH276348   6.744   1.930  14.683 -0.2192  0.6824  0.0043
18286TIP3    H176349   6.823   1.971  14.649  0.1412  1.4188  1.6289
18286TIP3    H276350   6.775   1.866  14.747 -0.9037 -0.1165 -0.4276
18287TIP3   OH276351   5.469   2.923  12.625 -0.1169 -0.1169 -0.1395
18287TIP3    H176352   5.495   2.870  12.701 -0.6643  0.9884  0.8612
18287TIP3    H276353   5.383   2.958  12.649 -0.7341 -0.5009 -1.6932
18288TIP3   OH276354   6.362   3.747   5.838 -0.3529  0.2791  0.3327
18288TIP3    H176355   6.416   3.798   5.898  0.3427  2.5639 -2.0585
18288TIP3    H276356   6.420   3.677   5.809  1.0859  2.0783 -1.3813
18289TIP3   OH276357   1.165   2.185  12.588  0.0357 -0.0205 -0.5188
18289TIP3    H176358   1.075   2.166  12.565 -0.3577 -1.1065  1.7370
18289TIP3    H276359   1.161   2.270  12.633  0.1103 -0.1771 -0.2166
18290TIP3   OH276360   0.213   2.443   4.737  0.0877 -0.2215 -0.0891
18290TIP3    H176361   0.189   2.463   4.827  1.1448 -0.4435  0.2618
18290TIP3    H276362   0.278   2.509   4.714 -0.6838  0.2692 -0.9450
18291TIP3   OH276363   4.992   0.254  17.245 -0.2761 -0.0771  0.3810
18291TIP3    H176364   4.985   0.198  17.168 -0.5365  1.9541 -1.1772
18291TIP3    H276365   5.014   0.195  17.317 -1.8100 -2.3002 -0.8734
18292TIP3   OH276366   3.726   5.728  14.129  0.0316  0.1867  0.0846
18292TIP3    H176367   3.674   5.776  14.065  0.5062  1.2609  0.4783
18292TIP3    H276368   3.817   5.748  14.107  0.2185  0.0738  0.7167
18293TIP3   OH276369   3.948   1.586   2.928  0.1620  0.2672  0.5794
18293TIP3    H176370   3.973   1.553   3.014 -0.5398 -0.4765  0.5088
18293TIP3    H276371   3.889   1.659   2.946 -3.3844 -2.4163  0.8296
18294TIP3   OH276372   2.956   5.573  14.953  0.1386  0.0817  0.6545
18294TIP3    H176373   3.036   5.563  14.902 -0.0917  0.4935  0.2083
18294TIP3    H276374   2.911   5.647  14.913  0.1041  0.6218  1.6556
18295TIP3   OH276375   4.979   5.712   1.507 -0.0499 -0.3540 -0.1984
18295TIP3    H176376   5.047   5.754   1.454  1.3534 -1.0362  1.0011
18295TIP3    H276377   4.972   5.768   1.585 -2.0322  0.5985 -1.0033
18296TIP3   OH276378   5.387   4.144  10.655 -0.0256  0.9133 -0.0198
18296TIP3    H176379   5.470   4.133  10.607 -0.8864 -0.4751 -1.2680
18296TIP3    H276380   5.377   4.064  10.706 -0.9379  0.7478 -0.4374
18297TIP3   OH276381   6.476   6.206   6.219  0.0158  0.6887 -0.1740
18297TIP3    H176382   6.506   6.213   6.310 -2.6374  2.8021  0.6760
18297TIP3    H276383   6.449   6.295   6.196 -0.4966 -0.0375 -2.6465
18298TIP3   OH276384   4.560   3.186   3.023 -0.0436 -0.4919 -0.2333
18298TIP3    H176385   4.519   3.238   2.955 -0.3180  0.9442  0.9716
18298TIP3    H276386   4.498   3.188   3.096  1.7041  1.0151  1.3360
18299TIP3   OH276387   1.084   3.430  15.191 -1.0164 -0.0827 -0.2899
18299TIP3    H176388   1.166   3.473  15.167 -0.9588  0.3236  0.6184
18299TIP3    H276389   1.029   3.500  15.224 -1.2783 -0.5555  0.2862
18300TIP3   OH276390   1.727   1.872  11.240  0.4046  0.5092 -0.2928
18300TIP3    H176391   1.773   1.955  11.254 -1.0929  1.3998 -0.4536
18300TIP3    H276392   1.644   1.897  11.200 -0.2771 -1.0362  0.0782
18301TIP3   OH276393   0.594   2.661   0.757  0.4751 -0.5185  0.2790
18301TIP3    H176394   0.670   2.719   0.750 -0.5913  0.7085 -2.8406
18301TIP3    H276395   0.518   2.719   0.749 -0.6799 -2.0912 -0.9477
18302TIP3   OH276396   4.985   0.648   4.052  0.0964  0.0020  0.1516
18302TIP3    H176397   4.998   0.714   3.984  0.9798  0.0158  0.3229
18302TIP3    H276398   5.014   0.566   4.011 -0.0427 -0.1101  0.2784
18303TIP3   OH276399   1.828   3.368  13.136 -0.0194  0.0076  0.0867
18303TIP3    H176400   1.882   3.313  13.079 -1.0508 -1.1683  0.2109
18303TIP3    H276401   1.890   3.428  13.178  1.2979 -1.8110  0.8190
18304TIP3   OH276402   3.568   2.991   0.294 -0.1431  0.1838  0.2898
18304TIP3    H176403   3.596   2.910   0.336  0.9567  0.4380  0.0735
18304TIP3    H276404   3.472   2.989   0.301 -0.1821 -1.3979 -0.2195
18305TIP3   OH276405   3.303   0.435   2.149 -0.2288  0.0054 -0.5392
18305TIP3    H176406   3.340   0.369   2.207 -1.9894 -1.1191 -0.6029
18305TIP3    H276407   3.259   0.497   2.208  0.8241  0.7526 -0.5185
18306TIP3   OH276408   0.410   0.810   3.891 -0.2690 -0.3379 -0.3523
18306TIP3    H176409   0.361   0.886   3.862 -0.9543 -1.5026 -2.5156
18306TIP3    H276410   0.491   0.845   3.928 -0.7689  1.4341 -0.8678
18307TIP3   OH276411   1.736   3.739  14.563  0.4219  0.4574 -0.5202
18307TIP3    H176412   1.758   3.660  14.612  0.1657  0.8586  0.2557
18307TIP3    H276413   1.820   3.772  14.532  0.6242  0.3703 -0.0784
18308TIP3   OH276414   5.694   1.359   5.225 -0.3978 -0.0979  0.4860
18308TIP3    H176415   5.739   1.317   5.298 -1.1825  0.0072  1.0529
18308TIP3    H276416   5.654   1.287   5.176 -1.4818 -0.0592  1.2785
18309TIP3   OH276417   6.205   0.821   1.216 -0.0895 -0.4523  0.0286
18309TIP3    H176418   6.166   0.770   1.145  0.2985 -2.0496  0.9041
18309TIP3    H276419   6.199   0.912   1.187 -0.1723 -1.0361 -1.9187
18310TIP3   OH276420   3.031   5.943   1.485  0.5178  0.1223  0.1520
18310TIP3    H176421   3.125   5.928   1.473  0.2923 -0.9299 -0.3463
18310TIP3    H276422   2.991   5.917   1.402 -0.0401  2.5037 -0.3864
18311TIP3   OH276423   2.991   1.614   6.071 -0.3991  0.2979  0.4106
18311TIP3    H176424   3.022   1.695   6.111 -1.0531  0.6319  0.2721
18311TIP3    H276425   2.997   1.631   5.977  0.1810 -0.1055  0.3706
18312TIP3   OH276426   5.944   3.437  14.854 -0.7587  0.2883  0.2693
18312TIP3    H176427   6.016   3.411  14.796 -0.0843 -0.1476  1.2845
18312TIP3    H276428   5.967   3.526  14.883 -0.8652  0.3273  0.2365
18313TIP3   OH276429   2.466   5.406   5.377  0.5814 -0.1105  0.0458
18313TIP3    H176430   2.371   5.411   5.364  0.4260  2.1184  1.5538
18313TIP3    H276431   2.485   5.312   5.372 -1.8902 -0.7517  0.9620
18314TIP3   OH276432   4.343   1.855  13.682  0.0452 -0.0325  0.0421
18314TIP3    H176433   4.377   1.781  13.633 -1.1033 -1.3508  1.1507
18314TIP3    H276434   4.399   1.860  13.759 -0.0371  0.0719  0.0958
18315TIP3   OH276435   6.244   1.239  15.971  0.6911 -0.0834 -0.2868
18315TIP3    H176436   6.246   1.159  16.023  1.8746 -0.8782 -1.4660
18315TIP3    H276437   6.264   1.210  15.882 -2.1722  1.0848 -1.4224
18316TIP3   OH276438   0.415   6.630  10.622  0.5758 -0.2648  0.2912
18316TIP3    H176439   0.343   6.673  10.667  1.2407  0.6494  0.4946
18316TIP3    H276440   0.392   6.537  10.624 -0.5743  0.0059  0.3839
18317TIP3   OH276441   6.504   3.781  10.807 -0.1931  0.4199  0.2716
18317TIP3    H176442   6.422   3.732  10.799 -0.5446  0.3267  3.2886
18317TIP3    H276443   6.533   3.795  10.716 -2.5395 -1.1790 -0.8194
18318TIP3   OH276444   5.207   2.134  16.538 -0.6531 -0.1685  0.0376
18318TIP3    H176445   5.187   2.226  16.555 -0.5045 -0.3512  1.3309
18318TIP3    H276446   5.301   2.132  16.524 -0.2229 -0.4017  2.4845
18319TIP3   OH276447   0.855   0.357  14.327 -0.4476 -0.0467  0.0774
18319TIP3    H176448   0.893   0.276  14.293 -0.6147 -0.9332  1.9201
18319TIP3    H276449   0.793   0.384  14.259 -0.0156 -1.1590 -0.7969
18320TIP3   OH276450   0.374   3.539   5.678 -0.1758  0.3332 -0.4616
18320TIP3    H176451   0.284   3.553   5.650 -0.1767 -0.4764 -0.8913
18320TIP3    H276452   0.370   3.466   5.740 -0.0498  1.5318  1.0259
18321TIP3   OH276453   6.235   6.739   0.566  0.0893 -0.0797  0.3509
18321TIP3    H176454   6.196   6.659   0.531 -1.2388 -0.9150  3.3710
18321TIP3    H276455   6.209   6.739   0.659  3.6240  1.6655  1.5060
18322TIP3   OH276456   0.725   0.326  15.249 -0.4774  0.4215  0.6226
18322TIP3    H176457   0.710   0.348  15.341 -1.1262  1.3128  0.3135
18322TIP3    H276458   0.645   0.354  15.204 -1.0758 -1.9117  0.0653
18323TIP3   OH276459   1.999   2.451   0.703 -0.2611  0.1209  0.4817
18323TIP3    H176460   2.008   2.533   0.654 -0.0344  0.0212  0.3550
18323TIP3    H276461   1.904   2.439   0.713 -0.2965  0.3710  0.4564
18324TIP3   OH276462   3.085   1.627   6.394 -0.3076  0.2551 -0.4233
18324TIP3    H176463   3.073   1.704   6.339 -0.3521 -0.6414 -1.7163
18324TIP3    H276464   3.043   1.650   6.477 -1.4347  1.1583 -1.2063
18325TIP3   OH276465   4.231   3.842   2.510 -0.2687  0.3588 -0.2113
18325TIP3    H176466   4.294   3.769   2.514 -1.7969 -1.0035  0.0655
18325TIP3    H276467   4.250   3.885   2.427  0.2162 -0.8047 -0.7311
18326TIP3   OH276468   6.781   5.024   0.541  0.3648  0.8540  0.1299
18326TIP3    H176469   6.831   5.000   0.619 -1.6520 -1.8573  0.7304
18326TIP3    H276470   6.819   4.972   0.470  0.2321  0.9717 -0.0296
18327TIP3   OH276471   6.649   2.637  13.807 -0.0198 -0.0604  0.3178
18327TIP3    H176472   6.705   2.563  13.833 -1.0177 -1.0753 -0.3572
18327TIP3    H276473   6.704   2.689  13.748  0.5899 -0.4237  0.5512
18328TIP3   OH276474   1.345   3.624  12.189 -0.1240  0.1265 -0.2214
18328TIP3    H176475   1.328   3.692  12.124 -0.7637  0.1015 -0.0872
18328TIP3    H276476   1.433   3.642  12.221  0.7564 -0.6844 -2.0889
18329TIP3   OH276477   5.981   5.504   0.433 -0.2895  0.8534  0.8894
18329TIP3    H176478   5.948   5.498   0.344  0.7426  1.0962  0.4703
18329TIP3    H276479   5.950   5.588   0.465 -0.3966  0.9102  0.6379
18330TIP3   OH276480   2.439   0.037  16.120  0.3810 -0.2719 -0.0587
18330TIP3    H176481   2.394  -0.028  16.068 -1.6989  1.6082 -0.7833
18330TIP3    H276482   2.507  -0.011  16.166  1.3073 -2.3105 -3.2457
18331TIP3   OH276483   0.702   3.208  12.419 -0.0482 -0.0862  0.2519
18331TIP3    H176484   0.735   3.280  12.474 -2.2713  0.5830  0.8186
18331TIP3    H276485   0.765   3.137  12.433  0.6886  0.8248  1.8914
18332TIP3   OH276486   1.170   1.226   4.896  0.3207 -0.3299  0.0517
18332TIP3    H176487   1.264   1.233   4.910  0.5461 -0.7280 -1.1458
18332TIP3    H276488   1.161   1.195   4.806 -0.9617 -0.1329  0.0883
18333TIP3   OH276489   1.497   3.789   1.807  0.1767 -0.0559 -0.2911
18333TIP3    H176490   1.511   3.842   1.728 -0.7710 -0.2634 -0.6133
18333TIP3    H276491   1.419   3.827   1.848  2.4106  2.1278  2.3488
18334TIP3   OH276492   0.834   4.208   2.431  0.1164 -0.1369 -0.1962
18334TIP3    H176493   0.857   4.153   2.506 -0.5648  0.7088  0.6551
18334TIP3    H276494   0.745   4.181   2.408  1.1692 -2.1511 -2.3501
18335TIP3   OH276495   3.843   1.065  11.585 -0.2054  0.1371  0.0133
18335TIP3    H176496   3.748   1.062  11.586 -0.1987 -0.5229 -0.3606
18335TIP3    H276497   3.865   1.115  11.506 -0.2376  1.1126  0.6009
18336TIP3   OH276498   1.191   4.050   1.991 -0.3213  0.3726 -0.1049
18336TIP3    H176499   1.125   4.109   2.027 -0.6662 -1.7745  3.1949
18336TIP3    H276500   1.142   3.995   1.929 -1.1171  0.3632  0.5165
18337TIP3   OH276501   3.435   3.518  14.758  0.1530  0.5095  1.1000
18337TIP3    H176502   3.344   3.542  14.742 -0.2519 -0.6852  1.4930
18337TIP3    H276503   3.462   3.472  14.678  1.0731  2.6045  0.1523
18338TIP3   OH276504   1.472   2.855  10.988  0.2649 -0.7389  0.6041
18338TIP3    H176505   1.430   2.928  10.943 -0.2293 -2.7655 -2.4870
18338TIP3    H276506   1.564   2.862  10.964  0.3271 -0.7876  0.8240
18339TIP3   OH276507   4.592   4.809   2.060  0.0128 -0.4349 -0.1310
18339TIP3    H176508   4.664   4.855   2.017 -0.3428  0.1444 -0.1202
18339TIP3    H276509   4.585   4.725   2.014 -1.8480  1.0302 -2.8171
18340TIP3   OH276510   6.366   4.580  13.879  0.4007 -0.1942  0.5360
18340TIP3    H176511   6.413   4.662  13.895  1.2290 -0.3634 -0.8275
18340TIP3    H276512   6.305   4.572  13.952 -0.6066  2.2807  0.0609
18341TIP3   OH276513   3.573   5.091  14.861 -0.3137 -0.6812 -0.3203
18341TIP3    H176514   3.505   5.158  14.861 -0.7004 -1.0458  0.7891
18341TIP3    H276515   3.525   5.008  14.858  0.0990 -0.9314 -0.1033
18342TIP3   OH276516   2.872   4.208  16.177 -0.1881 -0.0479  0.0604
18342TIP3    H176517   2.885   4.180  16.086  0.0402 -0.4305  0.2106
18342TIP3    H276518   2.887   4.129  16.229  0.7313  0.4005  0.5041
18343TIP3   OH276519   5.348   0.248   2.147 -0.6326 -0.1301  0.2484
18343TIP3    H176520   5.287   0.315   2.114 -0.3792  0.0229  0.0894
18343TIP3    H276521   5.293   0.189   2.198 -1.3030 -1.1433 -1.5362
18344TIP3   OH276522   5.229   0.129   0.976 -0.0992  0.1529 -0.2803
18344TIP3    H176523   5.181   0.172   0.905 -2.3491 -0.9751  0.4725
18344TIP3    H276524   5.174   0.055   1.002  1.1228 -0.0659  1.9872
18345TIP3   OH276525   0.473   0.669  16.794 -0.0650  0.0574 -0.2224
18345TIP3    H176526   0.478   0.665  16.890  0.2929 -1.3552 -0.2752
18345TIP3    H276527   0.555   0.711  16.768  0.1658 -0.2047  0.0657
18346TIP3   OH276528   2.656   0.152  12.148 -0.2673 -0.0370  0.4074
18346TIP3    H176529   2.668   0.083  12.214  0.8740  0.4018  0.6784
18346TIP3    H276530   2.713   0.126  12.076 -0.1597  0.3976  0.3340
18347TIP3   OH276531   2.274   4.479   0.031  0.0532  0.5968  0.2685
18347TIP3    H176532   2.292   4.449   0.120 -3.5410 -1.6391  0.4604
18347TIP3    H276533   2.246   4.570   0.041 -3.0566 -0.4049  1.9994
18348TIP3   OH276534   0.026   3.900  13.820 -0.0947 -0.1802 -0.9212
18348TIP3    H176535   0.011   3.806  13.815  0.1937 -0.2319 -0.8504
18348TIP3    H276536   0.044   3.926  13.729  0.1821 -0.2574 -0.8906
18349TIP3   OH276537   4.909   0.536   4.696 -0.1497  0.2655  0.3396
18349TIP3    H176538   4.926   0.471   4.764  0.0387 -0.2077 -0.1525
18349TIP3    H276539   4.850   0.599   4.737 -0.9809 -0.6501  0.5785
18350TIP3   OH276540   6.782   1.149  16.142  0.1191  0.1187 -0.7850
18350TIP3    H176541   6.702   1.186  16.179  1.1958 -0.6954  2.7352
18350TIP3    H276542   6.830   1.226  16.110 -1.3874  0.7689 -1.5815
18351TIP3   OH276543   1.978   6.307  13.559  0.3632  0.3668 -0.0858
18351TIP3    H176544   1.954   6.348  13.642  1.0703  0.4948  0.0681
18351TIP3    H276545   1.948   6.369  13.492  0.9038  0.8679  0.1245
18352TIP3   OH276546   3.509   3.240   6.591  0.4426  0.7963 -0.0155
18352TIP3    H176547   3.508   3.144   6.581 -0.0885  0.6671  1.1314
18352TIP3    H276548   3.421   3.262   6.619  1.1323  1.3683  1.8341
18353TIP3   OH276549   5.492   4.608   5.230  0.1580 -0.4516 -0.2361
18353TIP3    H176550   5.427   4.608   5.160 -0.1809 -1.2068  0.0672
18353TIP3    H276551   5.444   4.580   5.308  0.7883 -0.7842  0.0463
18354TIP3   OH276552   5.452   1.964   3.063 -0.2462 -0.3327  0.5741
18354TIP3    H176553   5.482   2.048   3.098 -0.6488  0.4954 -1.0120
18354TIP3    H276554   5.466   1.903   3.136  0.2152  1.0487  1.7102
18355TIP3   OH276555   2.957   6.406  16.175  0.1982  0.2004 -0.3505
18355TIP3    H176556   3.020   6.405  16.104  0.1410 -0.0964 -0.3995
18355TIP3    H276557   2.995   6.349  16.242 -0.6976 -1.2154 -0.9853
18356TIP3   OH276558   0.279   2.106   5.433 -0.2662 -0.3838  0.6324
18356TIP3    H176559   0.260   2.199   5.418 -0.4640 -0.6739 -1.0524
18356TIP3    H276560   0.260   2.093   5.526  1.1496  1.5845  1.2801
18357TIP3   OH276561   1.374   3.912  14.967 -0.0372 -0.4082 -0.4659
18357TIP3    H176562   1.382   4.006  14.982 -0.6818 -0.3355 -0.5306
18357TIP3    H276563   1.295   3.887  15.015  1.8147 -1.5149  2.2538
18358TIP3   OH276564   4.029   0.975  13.099 -0.0784 -0.4078  0.7454
18358TIP3    H176565   3.958   0.913  13.119  0.9904 -1.4608  1.4471
18358TIP3    H276566   3.997   1.059  13.129 -0.6530 -1.0471  1.9822
18359TIP3   OH276567   3.039   0.191  11.219  0.4359  0.6307  0.9402
18359TIP3    H176568   2.947   0.216  11.205  0.5992  0.7342 -0.0931
18359TIP3    H276569   3.037   0.097  11.235  0.0277  0.8726  2.4056
18360TIP3   OH276570   3.655   4.876   1.885  0.0322 -0.3001 -0.1717
18360TIP3    H176571   3.723   4.915   1.830  0.0837  0.1309  0.1936
18360TIP3    H276572   3.657   4.927   1.966 -0.7402 -0.2771 -0.1606
18361TIP3   OH276573   2.047   0.678  15.808  0.6124 -0.0015  0.1159
18361TIP3    H176574   1.952   0.671  15.799  0.4540  2.2211 -0.7882
18361TIP3    H276575   2.075   0.718  15.725  2.4872 -1.5145 -0.0426
18362TIP3   OH276576   6.246   1.945   4.588 -0.2051 -0.6368 -0.8427
18362TIP3    H176577   6.303   1.921   4.661 -0.3466 -1.7872 -1.1008
18362TIP3    H276578   6.306   1.968   4.517 -0.0610  0.8755 -0.2694
18363TIP3   OH276579   5.518   3.448   2.134 -0.0501  0.2233  0.5792
18363TIP3    H176580   5.464   3.518   2.097  0.8774  0.7408  0.1600
18363TIP3    H276581   5.595   3.494   2.168  0.9788 -0.6864 -0.4715
18364TIP3   OH276582   3.191   2.878   3.295 -0.5368 -0.2360 -0.4181
18364TIP3    H176583   3.151   2.888   3.208  2.1753  1.3663 -1.6026
18364TIP3    H276584   3.278   2.843   3.278  0.6804  1.6448  1.4507
18365TIP3   OH276585   6.079   3.737   0.380  1.0961 -0.2268 -0.8178
18365TIP3    H176586   6.145   3.747   0.448 -0.1307 -0.8377  0.5137
18365TIP3    H276587   6.108   3.660   0.330  1.7349 -0.0855 -0.6754
18366TIP3   OH276588   2.722   4.471   2.343 -0.4410 -0.0361 -0.1494
18366TIP3    H176589   2.806   4.426   2.343 -1.0697 -1.3393 -2.0465
18366TIP3    H276590   2.717   4.513   2.257 -1.9724 -0.5109 -0.3280
18367TIP3   OH276591   3.071   5.557   1.138  0.2627  0.4655 -0.1157
18367TIP3    H176592   3.079   5.645   1.101 -0.7292  0.6232  0.0260
18367TIP3    H276593   2.979   5.549   1.163  0.4738 -0.3948  0.4341
18368TIP3   OH276594   1.205   4.345  11.976  0.8382  0.1132  0.2080
18368TIP3    H176595   1.132   4.314  12.030  0.6251 -0.5336 -0.4251
18368TIP3    H276596   1.207   4.439  11.989 -0.2481  0.1656  0.0860
18369TIP3   OH276597   4.748   2.210  11.810  0.1755 -0.0966 -0.1363
18369TIP3    H176598   4.686   2.170  11.750 -0.5216  1.4857 -0.5154
18369TIP3    H276599   4.700   2.283  11.850  1.0787 -0.2292  1.2607
18370TIP3   OH276600   5.635   1.089  11.942  0.2106 -0.4201  0.0628
18370TIP3    H176601   5.631   1.177  11.979  1.0811 -0.0700 -0.6485
18370TIP3    H276602   5.544   1.068  11.921  0.0470  0.5063 -0.2004
18371TIP3   OH276603   6.181   4.278  11.306  1.2758 -0.2110  0.3181
18371TIP3    H176604   6.218   4.273  11.218 -1.5003 -0.7600 -0.9187
18371TIP3    H276605   6.149   4.189  11.323 -0.6672  0.5201  0.6957
18372TIP3   OH276606   1.268   6.463   4.433  0.0237  0.5002  0.0696
18372TIP3    H176607   1.173   6.455   4.432 -0.0503  1.3258 -0.2685
18372TIP3    H276608   1.290   6.469   4.526 -0.1927 -0.3020  0.1777
18373TIP3   OH276609   0.355   2.593  14.678 -0.7679  0.1169 -0.0133
18373TIP3    H176610   0.445   2.564  14.663 -1.2998 -1.4709 -0.3578
18373TIP3    H276611   0.362   2.654  14.751  0.5809 -0.0066 -0.0051
18374TIP3   OH276612   4.780   4.197   1.736 -0.4471  0.5697  0.4914
18374TIP3    H176613   4.697   4.243   1.740  0.1005  1.7662 -0.7426
18374TIP3    H276614   4.792   4.178   1.643 -0.0397 -0.9312  0.8295
18375TIP3   OH276615   4.738   3.563   1.334  0.0105  0.2898 -0.0599
18375TIP3    H176616   4.723   3.633   1.270 -0.5126 -1.3060 -1.7628
18375TIP3    H276617   4.668   3.575   1.399 -2.7578 -1.0434 -2.5665
18376TIP3   OH276618   0.469   6.024  16.081 -0.3357 -0.0732 -0.4040
18376TIP3    H176619   0.554   5.991  16.108 -0.8915 -1.5298 -0.3541
18376TIP3    H276620   0.437   5.960  16.018 -1.8374 -0.1265  0.3562
18377TIP3   OH276621   1.557   4.497  17.112 -0.0133 -0.0230  0.0835
18377TIP3    H176622   1.638   4.503  17.163  0.7414  2.7248 -1.2158
18377TIP3    H276623   1.572   4.425  17.051  1.1598 -0.0340  0.3705
18378TIP3   OH276624   2.228   1.763  16.278  0.5279  0.5213  0.1499
18378TIP3    H176625   2.177   1.743  16.200 -1.0931 -0.2500  1.3454
18378TIP3    H276626   2.191   1.845  16.311  0.0044 -0.0545  1.0379
18379TIP3   OH276627   0.406   3.515   3.140  0.5205  0.7486 -0.2886
18379TIP3    H176628   0.450   3.447   3.191 -0.8486 -0.4534 -0.6254
18379TIP3    H276629   0.313   3.498   3.154  0.0822  0.3867 -3.0856
18380TIP3   OH276630   3.332   6.802  11.330  0.7091  0.3657 -0.7715
18380TIP3    H176631   3.276   6.728  11.353  0.6284  0.3652 -0.9650
18380TIP3    H276632   3.399   6.803  11.397 -0.3800  1.2963  0.3597
18381TIP3   OH276633   1.863   1.362   5.344 -0.3875  0.0964  0.2462
18381TIP3    H176634   1.886   1.309   5.268 -0.3748 -0.5923  0.7176
18381TIP3    H276635   1.908   1.446   5.330 -0.0814 -0.1612 -0.3131
18382TIP3   OH276636   1.957   4.685   2.123  0.2066 -0.2528 -0.1615
18382TIP3    H176637   1.925   4.599   2.150  0.5249 -0.4774 -0.5009
18382TIP3    H276638   1.893   4.715   2.057  0.3965 -0.4679 -0.4447
18383TIP3   OH276639   0.453   2.518   3.821  0.1901 -0.1319  0.2469
18383TIP3    H176640   0.383   2.547   3.762  0.1912 -1.3592 -0.3892
18383TIP3    H276641   0.422   2.434   3.854  1.2733 -0.5991  0.1158
18384TIP3   OH276642   6.046   1.472   4.647  0.0591  0.0385  0.1386
18384TIP3    H176643   6.086   1.557   4.664 -1.5431  0.4093  2.5484
18384TIP3    H276644   6.101   1.410   4.694 -0.2924  0.1085  0.6461
18385TIP3   OH276645   3.141   4.174  16.836  0.2065 -0.0389 -0.0426
18385TIP3    H176646   3.139   4.260  16.877  1.6952  0.4501 -0.9373
18385TIP3    H276647   3.156   4.114  16.910  1.9745  0.7494  0.3071
18386TIP3   OH276648   2.320   5.162   5.674  0.8882  0.2065 -0.1229
18386TIP3    H176649   2.257   5.104   5.632  1.2573 -1.2619  1.2484
18386TIP3    H276650   2.266   5.232   5.711 -0.0209 -1.0470  1.0597
18387TIP3   OH276651   3.960   6.776   0.208 -0.1516  0.0548 -0.0220
18387TIP3    H176652   3.882   6.784   0.154 -1.0219 -0.1943  1.1517
18387TIP3    H276653   3.997   6.864   0.211 -0.8152  0.3311  0.0305
18388TIP3   OH276654   0.588   1.591   0.853 -0.1185 -0.3062 -0.0031
18388TIP3    H176655   0.631   1.556   0.932  1.1332  0.8141 -0.1415
18388TIP3    H276656   0.656   1.644   0.812 -1.3769  0.7318 -0.7823
18389TIP3   OH276657   6.622   5.077  16.790  0.3730 -0.5243 -0.1401
18389TIP3    H176658   6.568   5.128  16.850 -1.3857 -0.7213 -1.4752
18389TIP3    H276659   6.712   5.095  16.817 -0.2202  2.2696  0.2265
18390TIP3   OH276660   2.137   4.425   0.919 -0.5299 -0.1183 -0.1106
18390TIP3    H176661   2.190   4.397   0.844 -0.8432  0.0076 -0.3838
18390TIP3    H276662   2.195   4.416   0.994  0.1340  0.7831 -0.5016
18391TIP3   OH276663   4.677   0.613   1.862 -0.5517  0.6780 -0.2768
18391TIP3    H176664   4.745   0.601   1.929  0.4564 -0.3245 -1.4341
18391TIP3    H276665   4.720   0.662   1.792 -1.1058  0.2913 -0.9001
18392TIP3   OH276666   0.798   6.194   0.270  0.2009  0.9238 -0.5998
18392TIP3    H176667   0.728   6.238   0.221 -0.2759  0.7165 -0.1123
18392TIP3    H276668   0.863   6.263   0.286  0.1420  1.1033 -1.1137
18393TIP3   OH276669   4.733   1.668  11.437 -0.4375  0.0936  0.0646
18393TIP3    H176670   4.794   1.640  11.506 -0.4169 -0.0025  0.0079
18393TIP3    H276671   4.698   1.586  11.401 -2.4354  0.1429  1.7000
18394TIP3   OH276672   4.562   5.990   2.489  0.2237  0.1531  0.1868
18394TIP3    H176673   4.609   5.913   2.521  0.7044  0.0328 -0.7895
18394TIP3    H276674   4.618   6.027   2.421 -0.5858  0.6461 -0.2326
18395TIP3   OH276675   1.845   2.586   3.907  0.1585  0.2369  0.2816
18395TIP3    H176676   1.804   2.501   3.924 -0.4982  0.2552 -1.1360
18395TIP3    H276677   1.861   2.622   3.995  3.3356 -2.6350  1.1069
18396TIP3   OH276678   5.286   0.196   3.239 -0.0562  0.2452  0.3532
18396TIP3    H176679   5.260   0.134   3.308  0.2739 -0.5605 -0.2231
18396TIP3    H276680   5.239   0.276   3.259 -2.6209 -0.9746 -0.3481
18397TIP3   OH276681   1.902   3.592  11.395  0.6021  0.3285 -0.1111
18397TIP3    H176682   1.885   3.587  11.300  1.0505 -0.8014 -0.1567
18397TIP3    H276683   1.891   3.684  11.417  1.1148  0.7191 -1.3878
18398TIP3   OH276684   4.348   3.841  13.836 -0.3884  0.4068  0.1374
18398TIP3    H176685   4.287   3.898  13.788  1.4339  0.9704 -1.6257
18398TIP3    H276686   4.370   3.891  13.915 -1.5052  0.5575  0.3778
18399TIP3   OH276687   5.080   3.859   5.905  0.1471 -0.2064  0.1506
18399TIP3    H176688   5.096   3.892   5.993  1.4006  1.9341 -0.7935
18399TIP3    H276689   5.164   3.866   5.861 -0.0793 -2.7035 -0.8280
18400TIP3   OH276690   0.136   3.374  13.192 -0.1186  0.4898  0.2270
18400TIP3    H176691   0.140   3.412  13.104 -0.0172  0.4324  0.2069
18400TIP3    H276692   0.228   3.359  13.215 -0.1720  0.0091  0.1290
18401TIP3   OH276693   2.058   0.066   5.280 -0.0642 -0.5770  0.6057
18401TIP3    H176694   1.980   0.075   5.227 -2.0845 -2.0238  3.1051
18401TIP3    H276695   2.079   0.155   5.309 -0.2655 -0.0860 -0.6983
18402TIP3   OH276696   4.521   1.352  15.093  0.5073  0.0689  0.0017
18402TIP3    H176697   4.606   1.359  15.049  0.7274 -0.4849  0.3390
18402TIP3    H276698   4.460   1.329  15.023  0.5275  1.0149 -0.3459
18403TIP3   OH276699   1.493   6.365   3.577  0.4183 -0.3941 -0.5008
18403TIP3    H176700   1.557   6.297   3.598  0.3642 -1.1485 -2.5401
18403TIP3    H276701   1.429   6.361   3.648  0.8321 -1.9591 -0.1845
18404TIP3   OH276702   2.831   5.421  16.669 -0.6488  0.5105 -0.5661
18404TIP3    H176703   2.809   5.359  16.599  1.7487 -0.0996 -0.8754
18404TIP3    H276704   2.926   5.413  16.679 -0.8015  1.1420  2.2635
18405TIP3   OH276705   5.120   2.538  15.060  0.3365  0.3113  0.0813
18405TIP3    H176706   5.089   2.618  15.102 -0.3936  1.2911 -2.1644
18405TIP3    H276707   5.040   2.493  15.032  0.7776  0.6249 -1.8108
18406TIP3   OH276708   0.453   3.856   5.529 -0.0070 -0.4403 -0.2238
18406TIP3    H176709   0.479   3.908   5.453  0.0766  0.9725  0.7337
18406TIP3    H276710   0.406   3.781   5.492 -0.5933  0.5790 -1.6454
18407TIP3   OH276711   1.688   4.540  10.584  0.5601  0.3047  0.2415
18407TIP3    H176712   1.694   4.584  10.499 -2.0018 -1.3512 -0.9204
18407TIP3    H276713   1.639   4.601  10.639 -0.1265  0.2928 -0.3418
18408TIP3   OH276714   3.568   1.730  17.127  0.2827 -0.3877 -0.3586
18408TIP3    H176715   3.571   1.713  17.033  1.5831  0.2692 -0.4639
18408TIP3    H276716   3.475   1.732  17.148 -0.0245 -0.7427 -1.5937
18409TIP3   OH276717   3.256   1.934   3.950 -0.0132 -0.0756 -0.2464
18409TIP3    H176718   3.286   1.939   4.040 -0.5581 -2.4838  0.1110
18409TIP3    H276719   3.332   1.902   3.901 -0.5434 -1.5163 -0.1476
18410TIP3   OH276720   4.285   4.817  12.228 -0.6110  0.3493 -0.3977
18410TIP3    H176721   4.191   4.804  12.226 -0.4627 -0.8408 -0.3457
18410TIP3    H276722   4.320   4.736  12.264  0.3614  1.2807  0.8474
18411TIP3   OH276723   5.996   3.929   2.266  0.8651  0.0994  0.2136
18411TIP3    H176724   6.040   3.957   2.186  0.6903 -2.1420 -0.7513
18411TIP3    H276725   5.915   3.889   2.236  0.7087 -0.6224  1.5217
18412TIP3   OH276726   0.949   3.544  11.331 -0.7860  0.3849  0.6756
18412TIP3    H176727   1.040   3.550  11.302 -1.0488 -0.3280 -0.3688
18412TIP3    H276728   0.953   3.499  11.415 -0.1843  0.3515  0.6322
18413TIP3   OH276729   6.276   5.859   0.103  0.2305 -0.5129 -0.4114
18413TIP3    H176730   6.348   5.904   0.057 -0.0641 -0.9029 -1.2645
18413TIP3    H276731   6.270   5.905   0.187  1.8139 -0.8043 -0.1083
18414TIP3   OH276732   2.648   4.321   5.049  0.5806 -1.0093 -0.7080
18414TIP3    H176733   2.697   4.243   5.075 -1.3294 -2.2117 -0.5249
18414TIP3    H276734   2.556   4.299   5.067 -0.1359  0.8093 -1.8562
18415TIP3   OH276735   5.302   3.029   1.740  0.0571  0.4027  0.4265
18415TIP3    H176736   5.330   3.115   1.710  1.1333 -0.0203  0.1680
18415TIP3    H276737   5.265   2.987   1.662 -1.8336  1.1488  0.8833
18416TIP3   OH276738   2.903   2.532   4.803  0.0902 -0.2143  0.5187
18416TIP3    H176739   2.877   2.587   4.877 -0.5579  2.1984 -1.3413
18416TIP3    H276740   2.822   2.491   4.773 -0.1834  0.8915 -0.3594
18417TIP3   OH276741   6.210   0.115  15.015  0.6440  0.2993 -0.6419
18417TIP3    H176742   6.142   0.087  15.075  0.5561 -0.0480 -0.8968
18417TIP3    H276743   6.257   0.185  15.061  1.0794 -0.4944  0.1561
18418TIP3   OH276744   4.544   5.129  12.220  0.3562  0.3508  0.2713
18418TIP3    H176745   4.605   5.181  12.169  0.9759 -1.0709 -0.4725
18418TIP3    H276746   4.589   5.047  12.237 -1.1527 -0.5594  0.1101
18419TIP3   OH276747   3.694   2.259   1.302 -0.4867  0.1827  0.2629
18419TIP3    H176748   3.708   2.289   1.212  1.8140 -1.3093  0.0330
18419TIP3    H276749   3.690   2.163   1.294  3.6022 -0.3037  2.0507
18420TIP3   OH276750   2.274   5.299   1.331 -0.0414  0.1356  0.2529
18420TIP3    H176751   2.308   5.267   1.247  0.6726  1.4261  0.0262
18420TIP3    H276752   2.215   5.229   1.361  1.2127 -1.2315 -0.3554
18421TIP3   OH276753   3.035   3.020   2.623 -0.4328  0.1593  0.1445
18421TIP3    H176754   2.981   2.962   2.568  0.5545  1.0711 -1.9015
18421TIP3    H276755   2.983   3.033   2.702 -1.7925 -1.4951 -0.4078
18422TIP3   OH276756   4.463   4.592   1.407 -0.3499  0.6665  0.2360
18422TIP3    H176757   4.489   4.569   1.318 -0.7043  0.8880  0.0717
18422TIP3    H276758   4.533   4.649   1.438  0.2456 -0.1564  0.4437
18423TIP3   OH276759   3.984   6.411   0.162  0.7742 -0.0977 -0.3423
18423TIP3    H176760   3.898   6.395   0.201 -0.4696 -0.9430 -3.1536
18423TIP3    H276761   4.007   6.500   0.190 -0.5796 -0.1862  1.1768
18424TIP3   OH276762   3.256   6.128  16.787  0.0669 -0.0629 -0.1062
18424TIP3    H176763   3.284   6.164  16.871 -3.4370  0.9033  0.8077
18424TIP3    H276764   3.303   6.179  16.722  0.9221  0.9361  1.2532
18425TIP3   OH276765   6.650   0.075   0.710  0.3661  0.0020  0.2712
18425TIP3    H176766   6.661   0.059   0.617 -0.2547 -2.1912  0.5188
18425TIP3    H276767   6.733   0.050   0.749  0.2087 -0.3066  0.4171
18426TIP3   OH276768   0.385   1.956  16.736 -0.2820  0.2432 -0.0346
18426TIP3    H176769   0.366   2.001  16.819  1.3320 -0.1788  0.6066
18426TIP3    H276770   0.408   2.026  16.675  1.8745  0.3932  0.8621
18427TIP3   OH276771   3.104   5.723  12.220  0.4114  0.5144  0.2870
18427TIP3    H176772   3.086   5.629  12.223 -0.0567  0.4747 -1.9790
18427TIP3    H276773   3.102   5.745  12.127  0.5913  2.7668  0.7522
18428TIP3   OH276774   0.049   0.269  15.948  0.4521  0.2786 -0.1190
18428TIP3    H176775  -0.031   0.227  15.918  0.2268  0.0155  0.8261
18428TIP3    H276776   0.039   0.361  15.924  0.9502 -0.1762 -2.2051
18429TIP3   OH276777   2.568   4.229   3.252 -0.6427 -0.5165  0.0821
18429TIP3    H176778   2.558   4.173   3.175  0.4743  0.4736 -0.8375
18429TIP3    H276779   2.594   4.170   3.322 -0.1204 -1.2356 -0.7026
18430TIP3   OH276780   1.200   2.508   1.291 -0.1573  0.0476 -0.3412
18430TIP3    H176781   1.131   2.572   1.272 -1.1146 -0.4912  1.1633
18430TIP3    H276782   1.256   2.550   1.355 -0.1413 -0.2052 -0.1880
18431TIP3   OH276783   1.361   2.866  10.521  0.0631 -0.1703  0.6463
18431TIP3    H176784   1.441   2.917  10.510 -0.2025  0.5205  1.7680
18431TIP3    H276785   1.301   2.900  10.455  0.0081  0.7530  1.1561
18432TIP3   OH276786   1.882   1.066   3.325 -0.1380 -0.0174 -0.0245
18432TIP3    H176787   1.830   1.025   3.395  0.9484  0.6195  1.2027
18432TIP3    H276788   1.817   1.101   3.265 -1.1230 -0.3319  0.8142
18433TIP3   OH276789   2.910   5.240  11.282  0.2660  0.2154 -0.4541
18433TIP3    H176790   2.940   5.253  11.192 -1.1204  2.8567 -0.6131
18433TIP3    H276791   2.877   5.325  11.309  1.0654 -0.3850  2.7633
18434TIP3   OH276792   6.170   4.489   4.949 -0.6770  0.0139  0.6326
18434TIP3    H176793   6.137   4.421   5.008 -1.9336 -0.5631 -0.6843
18434TIP3    H276794   6.255   4.456   4.919 -1.0036 -0.6895  0.4743
18435TIP3   OH276795   2.355   5.852   5.189  0.1338  0.7981  0.0476
18435TIP3    H176796   2.377   5.945   5.197  0.4339  0.8014 -0.7245
18435TIP3    H276797   2.280   5.850   5.129  0.3037  0.5266 -0.1602
18436TIP3   OH276798   1.449   3.603  13.770 -0.2600  0.1497 -0.3416
18436TIP3    H176799   1.458   3.508  13.770  2.2444  0.3237  0.0283
18436TIP3    H276800   1.380   3.620  13.706 -0.9201 -1.9068 -0.2604
18437TIP3   OH276801   1.320   0.724   3.351  0.7567 -0.4391 -0.1853
18437TIP3    H176802   1.240   0.674   3.365  0.6367  0.3828  2.6822
18437TIP3    H276803   1.295   0.792   3.288 -0.4787 -0.8305 -0.1392
18438TIP3   OH276804   1.999   3.922   5.210  0.3887  0.1716  0.3000
18438TIP3    H176805   1.931   3.973   5.166  2.5655  1.7797 -1.4673
18438TIP3    H276806   2.002   3.839   5.161 -1.1687 -0.5169  1.2939
18439TIP3   OH276807   6.732   3.023   4.764 -0.3095  0.2315 -0.1015
18439TIP3    H176808   6.742   2.928   4.758  0.0231  0.2256  0.5409
18439TIP3    H276809   6.820   3.056   4.784 -0.3794  0.6952 -0.5413
18440TIP3   OH276810   3.286   3.547   4.217  0.1442 -0.3132  0.2503
18440TIP3    H176811   3.200   3.506   4.207 -0.6337  1.5422 -1.4011
18440TIP3    H276812   3.331   3.528   4.135  0.9574 -0.4491  0.7194
18441TIP3   OH276813   4.752   5.136   1.030 -0.1218 -0.0079 -0.2941
18441TIP3    H176814   4.750   5.229   1.052  0.2580  0.0506 -0.4938
18441TIP3    H276815   4.838   5.122   0.990  0.6244 -0.8636  1.5161
18442TIP3   OH276816   0.650   4.659   4.868 -0.2246 -0.1366  0.5204
18442TIP3    H176817   0.714   4.729   4.876 -0.7479  0.4738 -0.3254
18442TIP3    H276818   0.642   4.623   4.956  2.1129 -1.0103  0.4291
18443TIP3   OH276819   5.435   3.200  10.898 -0.0650  0.1975 -0.1334
18443TIP3    H176820   5.390   3.140  10.958 -1.8033  2.1956  0.6488
18443TIP3    H276821   5.426   3.158  10.812 -2.7266  0.0944  0.1242
18444TIP3   OH276822   1.394   6.069  15.566  0.4130 -0.5782  0.0547
18444TIP3    H176823   1.417   6.136  15.502  0.9211  0.3538  1.1674
18444TIP3    H276824   1.329   6.014  15.521  0.4510  0.2811 -1.1029
18445TIP3   OH276825   6.357   4.927   1.043  0.4797 -0.2350 -0.0036
18445TIP3    H176826   6.353   4.832   1.028 -3.9235 -0.7691  2.9776
18445TIP3    H276827   6.320   4.965   0.964 -0.4746 -1.2364 -0.0611
18446TIP3   OH276828   1.012   6.539  16.461 -0.0193 -0.6063 -0.0001
18446TIP3    H176829   1.019   6.573  16.550  1.1313 -1.2309  0.1719
18446TIP3    H276830   1.029   6.445  16.471 -1.4777 -0.9585 -0.6744
18447TIP3   OH276831   3.819   1.260   4.897  0.8215 -0.3384 -0.1490
18447TIP3    H176832   3.888   1.195   4.881 -0.0209 -1.3416  0.1754
18447TIP3    H276833   3.738   1.213   4.879  0.1366  0.2836  1.1798
18448TIP3   OH276834   5.122   3.940   3.175 -0.2276 -0.0381  0.2999
18448TIP3    H176835   5.031   3.938   3.203  0.0059 -1.5347  1.0577
18448TIP3    H276836   5.130   3.865   3.116  0.5219  0.0454  0.2856
18449TIP3   OH276837   0.473   1.900  13.381  0.0968 -0.3006 -0.1512
18449TIP3    H176838   0.564   1.908  13.351  0.5130 -1.6862  0.6514
18449TIP3    H276839   0.448   1.989  13.404  1.2906  0.0960 -0.2862
18450TIP3   OH276840   0.160   6.560   0.706 -0.5037 -0.2630  0.1251
18450TIP3    H176841   0.243   6.601   0.683 -1.3063  0.6186 -1.3630
18450TIP3    H276842   0.183   6.469   0.725  0.9493  0.2488  0.9567
18451TIP3   OH276843   6.751   5.339  15.649  0.1533 -0.2066 -0.0978
18451TIP3    H176844   6.737   5.252  15.612  2.1640 -0.0372 -1.4266
18451TIP3    H276845   6.667   5.363  15.687 -0.8523 -2.1360 -0.9715
18452TIP3   OH276846   1.602   0.640  16.114 -0.8052  0.2216  0.4903
18452TIP3    H176847   1.691   0.674  16.129 -0.9570  0.9816 -0.2628
18452TIP3    H276848   1.606   0.550  16.145 -0.1479  0.6438  1.7404
18453TIP3   OH276849   6.286   0.666  10.858 -0.0767  0.6698  0.2490
18453TIP3    H176850   6.230   0.607  10.908  0.2347 -0.7472 -1.0195
18453TIP3    H276851   6.253   0.754  10.880 -0.8330  0.0310  1.8268
18454TIP3   OH276852   1.338   6.581  14.785 -0.3688 -0.4297  0.0076
18454TIP3    H176853   1.342   6.658  14.728  0.1468 -0.4444  0.0223
18454TIP3    H276854   1.404   6.598  14.853 -2.8440  0.9306  2.3051
18455TIP3   OH276855   2.288   4.579  15.658 -0.2560  0.0222  0.4739
18455TIP3    H176856   2.220   4.583  15.726  0.4671  0.1005  1.2096
18455TIP3    H276857   2.256   4.638  15.589 -0.9222  0.0760  0.8189
18456TIP3   OH276858   0.609   2.863  12.006 -0.3679 -0.0077  0.0883
18456TIP3    H176859   0.534   2.837  11.952 -2.4613  1.3507  2.1579
18456TIP3    H276860   0.614   2.958  11.997 -0.1950  0.1429  1.5009
18457TIP3   OH276861   4.664   4.692   2.399 -0.0604 -0.0393  0.0171
18457TIP3    H176862   4.627   4.773   2.434 -0.2626 -0.3344  0.4860
18457TIP3    H276863   4.756   4.694   2.426  0.2209  0.5635 -0.9189
18458TIP3   OH276864   1.954   0.698   0.657  0.1528 -0.1229 -0.0048
18458TIP3    H176865   2.018   0.711   0.727 -0.0824  0.1789  0.1546
18458TIP3    H276866   1.939   0.785   0.621 -0.8528 -0.0494  0.5632
18459TIP3   OH276867   1.624   0.249  14.448 -0.7059  0.2415  0.1558
18459TIP3    H176868   1.603   0.171  14.398 -0.5551 -0.9297  1.8282
18459TIP3    H276869   1.538   0.289  14.467 -0.8427  0.0279 -0.0151
18460TIP3   OH276870   6.536   3.581   2.527  0.1149  0.1824 -0.4752
18460TIP3    H176871   6.505   3.591   2.437 -1.9384 -0.6936  0.0911
18460TIP3    H276872   6.579   3.496   2.528 -1.5735 -0.7066 -0.2185
18461TIP3   OH276873   4.950   0.970  14.938 -0.3572 -0.3624  0.6765
18461TIP3    H176874   4.993   0.985  14.854  0.2296 -3.0636  0.4009
18461TIP3    H276875   4.996   0.895  14.975 -1.4533 -0.0489  2.8282
18462TIP3   OH276876   5.657   3.984  10.857 -0.0607 -0.2268 -0.1799
18462TIP3    H176877   5.675   3.900  10.816  1.5123 -0.6985  1.3348
18462TIP3    H276878   5.567   3.977  10.887  0.2493 -1.6718  0.5139
18463TIP3   OH276879   4.353   2.435   4.756  0.5612  0.2812 -0.5772
18463TIP3    H176880   4.330   2.453   4.847  0.0748  1.7437 -0.9544
18463TIP3    H276881   4.425   2.495   4.736  0.6197  0.0266 -1.1689
18464TIP3   OH276882   4.314   2.346  16.976  0.1552 -0.2976 -0.1273
18464TIP3    H176883   4.221   2.341  16.954  0.3544 -0.6880 -0.8953
18464TIP3    H276884   4.317   2.329  17.070 -0.6572  0.8692  0.1309
18465TIP3   OH276885   0.865   4.184   0.957 -1.1439 -0.0730 -0.1129
18465TIP3    H176886   0.950   4.146   0.976 -0.7090  0.0530 -1.6395
18465TIP3    H276887   0.805   4.143   1.020  0.4001  1.6074  2.5830
18466TIP3   OH276888   4.462   4.018   1.256 -0.1230 -0.1852  0.4899
18466TIP3    H176889   4.404   4.004   1.182  0.1169 -1.3927  0.5107
18466TIP3    H276890   4.545   4.044   1.217 -0.4950  0.9679  0.4345
18467TIP3   OH276891   0.653   4.978  15.101 -0.6305  0.3149 -0.4876
18467TIP3    H176892   0.570   4.938  15.125  0.2914  0.2101  3.0748
18467TIP3    H276893   0.717   4.941  15.161  1.2587  3.2467 -0.4435
18468TIP3   OH276894   4.990   1.187   5.169  0.0601  0.9815  0.0542
18468TIP3    H176895   4.987   1.103   5.215 -2.3423 -0.1123 -1.8911
18468TIP3    H276896   5.034   1.168   5.086 -1.0397  1.4471 -0.6641
18469TIP3   OH276897   0.325   2.955   1.694 -0.0290 -0.6131 -0.0452
18469TIP3    H176898   0.389   2.893   1.657 -1.0842 -0.4077 -2.3749
18469TIP3    H276899   0.344   3.038   1.650 -1.6520 -0.4721 -0.5357
18470TIP3   OH276900   3.053   1.298   4.430 -0.3300 -0.0449 -0.0848
18470TIP3    H176901   3.141   1.261   4.425 -0.2951  0.0355 -0.0665
18470TIP3    H276902   2.995   1.226   4.404 -0.3078 -0.2943  0.5384
18471TIP3   OH276903   4.007   3.277  16.315  0.3681 -0.7057  0.4617
18471TIP3    H176904   3.927   3.316  16.280  0.9820  0.7213  0.5915
18471TIP3    H276905   4.073   3.291  16.246  0.5789 -1.6785  0.4412
18472TIP3   OH276906   0.978   3.451   5.794 -0.4913  0.1526  0.0173
18472TIP3    H176907   0.994   3.362   5.826 -0.1411  0.1558 -0.1357
18472TIP3    H276908   0.883   3.461   5.796 -0.6117 -0.6318 -1.0214
18473TIP3   OH276909   4.442   5.597  14.663 -0.6899  0.2903  0.4414
18473TIP3    H176910   4.407   5.599  14.753 -0.6532  0.2723  0.4560
18473TIP3    H276911   4.410   5.514  14.627  0.4990 -0.4089  0.9256
18474TIP3   OH276912   6.516   1.466   0.826  0.0983 -0.5677 -0.1734
18474TIP3    H176913   6.520   1.496   0.917 -0.3297 -1.3218  0.1061
18474TIP3    H276914   6.471   1.537   0.780 -2.4060 -1.3928  0.7916
18475TIP3   OH276915   6.757   1.172   1.486  0.6791  0.8741 -0.0755
18475TIP3    H176916   6.763   1.079   1.509  0.6650  0.5622 -1.2521
18475TIP3    H276917   6.673   1.200   1.521  0.7597  0.4880  0.4410
18476TIP3   OH276918   1.903   4.296   2.424  0.3575 -0.1807  0.7696
18476TIP3    H176919   1.872   4.287   2.514 -3.4452  2.4053 -0.0455
18476TIP3    H276920   1.927   4.388   2.416  0.7580 -0.3938 -0.8601
18477TIP3   OH276921   3.127   5.672   3.545 -0.7162 -0.0400 -0.0865
18477TIP3    H176922   3.115   5.766   3.553  1.3358  0.2238  0.4864
18477TIP3    H276923   3.216   5.662   3.510 -1.0957 -1.7593 -0.6672
18478TIP3   OH276924   2.465   5.784  17.164  0.3513  0.3500  0.0345
18478TIP3    H176925   2.483   5.689  17.163  0.0474  0.2761  1.0760
18478TIP3    H276926   2.391   5.794  17.224  0.4144  1.2568 -0.0332
18479TIP3   OH276927   2.189   5.278   2.181  0.1051  0.7176  0.2439
18479TIP3    H176928   2.137   5.230   2.246  0.8127  1.5663  1.4774
18479TIP3    H276929   2.123   5.323   2.127 -0.5813 -1.6168 -1.0009
18480TIP3   OH276930   2.508   1.604   1.713 -0.0190  0.1600 -0.0085
18480TIP3    H176931   2.452   1.629   1.640 -0.0303 -0.5434 -0.2506
18480TIP3    H276932   2.586   1.567   1.671 -0.2699 -0.7767  0.3354
18481TIP3   OH276933   3.722   2.127   0.968 -0.1633 -0.6180  0.0479
18481TIP3    H176934   3.710   2.216   1.000 -1.2214 -0.2850 -1.2119
18481TIP3    H276935   3.648   2.078   1.003 -0.1401 -0.7590 -0.0995
18482TIP3   OH276936   2.580   5.781  14.622  0.7191  0.3903 -0.1579
18482TIP3    H176937   2.610   5.871  14.616  0.7905  0.3347 -0.6516
18482TIP3    H276938   2.492   5.787  14.660  0.3919  0.7335 -0.9417
18483TIP3   OH276939   6.538   3.607  16.230 -0.0849  0.0968  0.3316
18483TIP3    H176940   6.628   3.582  16.253 -0.4797 -1.1367  0.6216
18483TIP3    H276941   6.527   3.693  16.269  1.2732  0.6821 -0.4932
18484TIP3   OH276942   1.156   3.174  17.102  0.2138 -0.2297 -1.1601
18484TIP3    H176943   1.152   3.121  17.023 -1.4417 -0.1892 -1.1473
18484TIP3    H276944   1.110   3.255  17.078 -0.7064 -0.3998 -0.0492
18485TIP3   OH276945   0.606   0.687   1.936  0.3706  0.2254  0.0640
18485TIP3    H176946   0.692   0.654   1.910  0.2214 -0.1221  0.0003
18485TIP3    H276947   0.548   0.661   1.865  0.3761  1.2611 -0.3253
18486TIP3   OH276948   5.353   6.337  15.810  1.0420 -0.1704 -0.2773
18486TIP3    H176949   5.260   6.342  15.787  0.3870  1.1886  2.2722
18486TIP3    H276950   5.376   6.428  15.832  3.2223 -0.3432 -1.5296
18487TIP3   OH276951   4.946   5.738  13.909  0.3656 -0.0433 -0.4486
18487TIP3    H176952   4.922   5.708  13.821  0.3876 -1.1956 -0.0827
18487TIP3    H276953   5.023   5.792  13.896 -1.0848  1.9197 -1.4016
18488TIP3   OH276954   0.263   2.086  15.130 -0.0680  0.3720  0.9518
18488TIP3    H176955   0.214   2.098  15.211  0.9624 -2.2453  2.0606
18488TIP3    H276956   0.349   2.055  15.158  1.7744  3.2963 -1.0084
18489TIP3   OH276957   3.738   6.138  16.221 -0.1268  0.4684 -0.2720
18489TIP3    H176958   3.733   6.196  16.297 -0.6816  0.3387 -0.2056
18489TIP3    H276959   3.820   6.090  16.233 -1.5115 -1.5821  1.7370
18490TIP3   OH276960   1.097   2.669   2.250  0.3311  0.8397  0.1632
18490TIP3    H176961   1.135   2.757   2.244  0.7292  0.6671  0.1242
18490TIP3    H276962   1.064   2.652   2.162  0.4588  0.8578  0.1115
18491TIP3   OH276963   6.050   6.200   3.022 -0.4345  0.2086 -0.0342
18491TIP3    H176964   6.043   6.209   3.117  2.5070  0.3777  0.2751
18491TIP3    H276965   6.108   6.271   2.996 -0.9201 -0.0555 -1.9260
18492TIP3   OH276966   3.186   5.642  14.790 -0.3965  0.2328  0.3604
18492TIP3    H176967   3.242   5.720  14.788  0.1121 -0.1423 -1.3950
18492TIP3    H276968   3.232   5.582  14.849 -0.0804  0.7380  0.6423
18493TIP3   OH276969   5.431   4.683  13.093 -0.3622 -0.4742 -0.0177
18493TIP3    H176970   5.429   4.602  13.144  0.7340 -0.8607 -0.5507
18493TIP3    H276971   5.369   4.668  13.022  1.4190 -1.7646 -1.3904
18494TIP3   OH276972   6.688   5.347   0.276 -0.0648 -0.1273 -0.3644
18494TIP3    H176973   6.757   5.284   0.296 -0.1997  0.6447  3.1449
18494TIP3    H276974   6.729   5.433   0.290 -0.9696  0.4489 -1.1072
18495TIP3   OH276975   2.006   2.773  12.240  0.0673  0.3794  0.2144
18495TIP3    H176976   2.083   2.788  12.295 -0.7546  0.7211  1.2964
18495TIP3    H276977   1.934   2.815  12.287 -0.7766  0.1205 -0.8109
18496TIP3   OH276978   2.916   2.768  17.240 -0.3369  0.2963  0.5596
18496TIP3    H176979   2.978   2.772  17.166 -0.1422  1.3946  0.7647
18496TIP3    H276980   2.962   2.717  17.307  0.5952  1.5813  0.9224
18497TIP3   OH276981   5.703   5.369   4.769  0.4428  0.1204 -0.1971
18497TIP3    H176982   5.704   5.417   4.686  2.9246  0.1748 -0.2013
18497TIP3    H276983   5.638   5.300   4.755  0.1503  0.6702 -1.8542
18498TIP3   OH276984   5.731   6.201  12.557 -0.0241 -0.3407  0.1444
18498TIP3    H176985   5.709   6.258  12.484 -1.6733 -1.9211 -0.6703
18498TIP3    H276986   5.708   6.250  12.635  0.7608  0.9589 -0.4117
18499TIP3   OH276987   3.953   5.017   4.734 -0.4917 -0.5159 -0.7843
18499TIP3    H176988   3.995   5.074   4.798 -1.2360 -1.6069  0.7526
18499TIP3    H276989   4.025   4.965   4.698 -0.3478 -1.8153  1.2320
18500TIP3   OH276990   0.475   1.872  12.689 -0.3131  0.0008  0.2471
18500TIP3    H176991   0.414   1.872  12.616  0.1217 -1.4234 -0.1491
18500TIP3    H276992   0.528   1.793  12.676 -1.1685 -1.1334  2.8519
18501TIP3   OH276993   4.885   4.150   4.909 -0.7997 -0.0762  0.3955
18501TIP3    H176994   4.911   4.067   4.870  1.1503  0.7605 -0.1921
18501TIP3    H276995   4.886   4.135   5.003  1.5123 -0.2283  0.3919
18502TIP3   OH276996   4.206   2.896  15.046 -0.0738 -0.2350 -0.5221
18502TIP3    H176997   4.207   2.842  14.967 -1.2657  0.2137 -0.8719
18502TIP3    H276998   4.135   2.958  15.031 -0.2124 -0.0396  0.8391
18503TIP3   OH276999   0.489   3.748   1.436 -0.2964 -0.4388  1.0308
18503TIP3    H177000   0.528   3.741   1.348 -1.2878  0.1830  0.5303
18503TIP3    H277001   0.402   3.710   1.426 -0.9469  0.9351  1.3928
18504TIP3   OH277002   1.606   1.126  13.689  0.1160 -0.5865 -0.6537
18504TIP3    H177003   1.599   1.169  13.774  3.1753 -1.0724 -0.0479
18504TIP3    H277004   1.607   1.198  13.626 -2.0274 -0.2164 -0.3558
18505TIP3   OH277005   4.344   0.020   4.146  0.2696  0.6823 -0.0572
18505TIP3    H177006   4.417   0.039   4.205  2.6608 -1.0529 -2.2113
18505TIP3    H277007   4.358   0.078   4.071 -0.4766  0.2093 -0.5739
18506TIP3   OH277008   4.387   5.254  14.832 -0.0786 -0.0361  0.3414
18506TIP3    H177009   4.328   5.330  14.835  1.0471  0.9236 -0.6849
18506TIP3    H277010   4.370   5.208  14.914 -0.0415  1.9462  1.5486
18507TIP3   OH277011   6.322   0.750   3.203  0.1251 -0.7084 -0.4119
18507TIP3    H177012   6.398   0.705   3.240  1.0670  0.2753 -1.0642
18507TIP3    H277013   6.354   0.839   3.185 -1.4881  0.0498  0.2720
18508TIP3   OH277014   3.249   6.057   4.511  0.0996  0.1894 -0.1212
18508TIP3    H177015   3.344   6.069   4.504  0.1786  0.5924  1.2322
18508TIP3    H277016   3.213   6.101   4.434  0.9242  1.6548  0.2986
18509TIP3   OH277017   4.568   4.058   2.828 -0.1526 -0.0926 -0.2516
18509TIP3    H177018   4.516   4.112   2.888 -0.2368 -0.8819  0.3986
18509TIP3    H277019   4.508   4.038   2.756 -0.0644  0.8215 -0.6024
18510TIP3   OH277020   2.097   1.313  12.411  0.0626  1.1838  0.7581
18510TIP3    H177021   2.134   1.396  12.441 -0.1952  1.3919  0.4992
18510TIP3    H277022   2.122   1.250  12.479  0.3742  1.4430  0.8892
18511TIP3   OH277023   0.378   5.666  16.426  0.4390 -0.3888  0.3721
18511TIP3    H177024   0.377   5.573  16.403 -0.6667  0.3217 -3.0498
18511TIP3    H277025   0.464   5.697  16.400  0.5477 -0.2671  0.8525
18512TIP3   OH277026   4.004   2.253   1.176 -0.0877  0.7379  0.4821
18512TIP3    H177027   4.096   2.269   1.156 -0.1017  0.4866  0.2046
18512TIP3    H277028   3.957   2.290   1.102 -0.1550  0.0282  0.1630
18513TIP3   OH277029   1.422   1.279  12.078 -0.7068  0.0479 -0.0847
18513TIP3    H177030   1.444   1.371  12.092 -2.2043  0.5976 -1.0662
18513TIP3    H277031   1.394   1.247  12.163 -2.1110  1.0927 -0.1250
18514TIP3   OH277032   5.407   1.662   4.890  0.2825  0.0551  0.2176
18514TIP3    H177033   5.501   1.659   4.905  0.2312 -2.5472  0.5019
18514TIP3    H277034   5.371   1.697   4.972  0.9733  1.0521  0.1120
18515TIP3   OH277035   5.652   2.270  14.729 -0.3069 -0.2128 -0.6888
18515TIP3    H177036   5.700   2.204  14.778 -0.0412  0.0603 -0.5759
18515TIP3    H277037   5.712   2.345  14.724 -0.3111 -0.2525 -1.4696
18516TIP3   OH277038   2.354   3.105   5.755 -0.2014  0.4197 -0.3962
18516TIP3    H177039   2.312   3.178   5.709 -1.6019 -0.1833 -0.1245
18516TIP3    H277040   2.294   3.032   5.742 -0.1010 -0.0374  1.4938
18517TIP3   OH277041   5.350   4.232   3.599  0.0715 -0.2869  0.1490
18517TIP3    H177042   5.372   4.317   3.562 -0.3631  0.3430  1.2953
18517TIP3    H277043   5.271   4.205   3.552  0.7229 -0.4930 -0.8540
18518TIP3   OH277044   4.495   3.677   3.587 -0.0117  0.5105 -0.4073
18518TIP3    H177045   4.452   3.762   3.592 -1.8899 -0.4006 -0.3017
18518TIP3    H277046   4.577   3.695   3.540 -0.3949  2.3432 -0.4600
18519TIP3   OH277047   1.706   3.985  16.368 -0.0642 -0.3414 -0.1735
18519TIP3    H177048   1.695   4.046  16.295 -2.0631  0.9183  1.0432
18519TIP3    H277049   1.762   4.032  16.430 -0.7197 -0.1601  0.2993
18520TIP3   OH277050   0.106   6.310   0.950 -0.3428  0.1049  0.2367
18520TIP3    H177051   0.068   6.316   0.862 -1.6867 -0.5132  0.7441
18520TIP3    H277052   0.175   6.244   0.942  0.8941  1.4448 -0.7710
18521TIP3   OH277053   2.917   6.309   2.480  0.4998 -0.7837 -0.2407
18521TIP3    H177054   2.957   6.328   2.565  0.2399  1.9362 -0.6370
18521TIP3    H277055   2.823   6.311   2.497  0.4282  0.6018 -0.7054
18522TIP3   OH277056   4.512   5.288   5.695 -0.0230 -0.1817  0.0024
18522TIP3    H177057   4.591   5.239   5.675 -0.3301 -0.8923  0.4698
18522TIP3    H277058   4.489   5.261   5.784  0.0636  1.1816  0.4642
18523TIP3   OH277059   5.756   6.622   4.703  0.1692 -0.0649 -0.1280
18523TIP3    H177060   5.847   6.599   4.724 -0.0684 -2.1378 -1.1789
18523TIP3    H277061   5.762   6.666   4.619  0.1582 -0.7671 -0.5035
18524TIP3   OH277062   2.615   3.976   2.774  0.2865  0.1471 -0.4679
18524TIP3    H177063   2.532   4.021   2.758  0.3456  1.6242  2.5858
18524TIP3    H277064   2.607   3.893   2.728 -2.9871  0.1471 -0.1250
18525TIP3   OH277065   5.314   1.508  14.737  0.2648  0.0619 -0.3794
18525TIP3    H177066   5.242   1.492  14.798  0.5984 -1.4154 -0.3227
18525TIP3    H277067   5.380   1.555  14.788 -0.1077  0.2203 -0.0487
18526TIP3   OH277068   3.091   4.660  14.449  0.2478  0.4248  0.1231
18526TIP3    H177069   3.046   4.579  14.429  0.7539 -0.2079  1.4552
18526TIP3    H277070   3.094   4.707  14.365  1.0199 -1.4527 -0.9592
18527TIP3   OH277071   0.929   2.934  13.061 -0.3203  0.5893  0.1921
18527TIP3    H177072   1.005   2.882  13.036 -0.3390  1.2392 -1.3579
18527TIP3    H277073   0.879   2.877  13.120  1.0621 -0.0553  0.7827
18528TIP3   OH277074   1.156   6.342  13.732 -0.1615 -0.2454 -0.6246
18528TIP3    H177075   1.171   6.436  13.720  2.9013 -0.3305  1.5107
18528TIP3    H277076   1.079   6.337  13.788 -0.0709  1.0254 -0.3579
18529TIP3   OH277077   0.573   6.389   4.104  0.2162  0.0819 -0.1203
18529TIP3    H177078   0.559   6.414   4.196  0.0190  1.6825 -0.5568
18529TIP3    H277079   0.497   6.424   4.058  0.2624 -0.8092 -0.8904
18530TIP3   OH277080   3.184   4.940  17.071 -0.0800  0.3936 -0.2916
18530TIP3    H177081   3.121   5.007  17.043  0.0032 -0.0248 -1.5572
18530TIP3    H277082   3.135   4.886  17.133 -0.7556  0.4954 -0.7177
18531TIP3   OH277083   2.505   6.574  12.207 -0.6988  0.3883 -0.7041
18531TIP3    H177084   2.452   6.494  12.208 -1.5572  0.9528  0.3807
18531TIP3    H277085   2.446   6.643  12.235  1.1649  0.6054  3.4682
18532TIP3   OH277086   2.884   6.780  14.531  0.2053  0.1334 -0.4446
18532TIP3    H177087   2.974   6.802  14.557  0.2592 -0.1898 -0.3475
18532TIP3    H277088   2.853   6.858  14.484 -0.3836  1.2717  1.7308
18533TIP3   OH277089   4.840   5.660  13.087  0.7220  0.0792  0.1210
18533TIP3    H177090   4.824   5.608  13.008  2.0965 -0.7984  0.3951
18533TIP3    H277091   4.772   5.632  13.148 -0.4452  0.8701 -0.7675
18534TIP3   OH277092   6.725   4.369  12.168 -0.3965 -0.4064  0.4483
18534TIP3    H177093   6.798   4.307  12.176 -0.4776 -0.9105 -1.8835
18534TIP3    H277094   6.758   4.451  12.205  1.0077 -0.8942  0.3297
18535TIP3   OH277095   3.223   5.550  16.426  0.0733  0.3209 -0.4226
18535TIP3    H177096   3.239   5.611  16.498 -0.2382 -1.0710  0.8864
18535TIP3    H277097   3.308   5.509  16.410  0.2338  0.9200 -1.1514
18536TIP3   OH277098   2.451   5.600  12.279  0.1353  0.3068 -0.3121
18536TIP3    H177099   2.414   5.627  12.363 -0.1397  0.2368 -0.4059
18536TIP3    H277100   2.530   5.652  12.269  0.6642 -0.3388  0.4134
18537TIP3   OH277101   3.744   5.422   5.549  1.1005  0.2305 -0.0828
18537TIP3    H177102   3.830   5.462   5.565  1.4589 -0.9407  1.1279
18537TIP3    H277103   3.747   5.340   5.598 -0.1225 -0.6130 -1.3611
18538TIP3   OH277104   3.654   1.106  16.410  0.0430 -0.7100  0.4335
18538TIP3    H177105   3.714   1.084  16.481 -0.0694  0.0677  0.7725
18538TIP3    H277106   3.702   1.081  16.331  0.6647 -0.4484  0.7190
18539TIP3   OH277107   2.330   1.144   3.117 -0.3475  0.0243 -0.0837
18539TIP3    H177108   2.401   1.202   3.145  1.0865 -0.8129 -1.7971
18539TIP3    H277109   2.351   1.059   3.155 -0.5634 -0.1767 -0.4028
18540TIP3   OH277110   6.053   1.102   5.018 -0.0971  0.3477  0.0038
18540TIP3    H177111   6.005   1.028   5.057  0.9973 -0.3362  0.0828
18540TIP3    H277112   6.052   1.170   5.085 -1.0833  0.4132 -0.0570
18541TIP3   OH277113   0.053   2.082   1.066 -0.6037 -0.5220  0.1105
18541TIP3    H177114   0.087   2.027   1.136  0.2870 -0.1852 -0.0408
18541TIP3    H277115   0.030   2.021   0.996  0.1734 -0.7254  0.0243
18542TIP3   OH277116   0.663   5.910  16.689  0.1210  0.0944 -0.4407
18542TIP3    H177117   0.676   5.978  16.755  0.9236 -0.6198  0.1534
18542TIP3    H277118   0.577   5.874  16.709  0.1921  0.1458 -0.0405
18543TIP3   OH277119   0.511   4.138  15.554 -0.0108  0.3626 -0.1159
18543TIP3    H177120   0.571   4.212  15.552  0.7197 -0.2072  0.0884
18543TIP3    H277121   0.567   4.062  15.573 -0.9382 -0.0188  1.2748
18544TIP3   OH277122   2.244   2.531   2.199 -0.2060  0.8658 -0.2893
18544TIP3    H177123   2.282   2.535   2.286  1.5126 -0.2879 -0.9295
18544TIP3    H277124   2.158   2.573   2.208 -0.8661 -0.8093  2.3359
18545TIP3   OH277125   1.642   1.724  12.391 -0.2472  0.3120 -0.5526
18545TIP3    H177126   1.714   1.707  12.331 -0.9525 -0.5741 -1.1752
18545TIP3    H277127   1.622   1.638  12.428  2.3493  1.1770  3.5817
18546TIP3   OH277128   5.999   5.505  15.443  0.0390 -0.2211 -0.1131
18546TIP3    H177129   5.945   5.527  15.520  0.0226 -1.9889  0.4186
18546TIP3    H277130   6.016   5.590  15.401  0.0524  0.8001  1.8316
18547TIP3   OH277131   6.174   3.137  14.789 -0.2372 -0.2198  0.0746
18547TIP3    H177132   6.252   3.188  14.770  0.1271 -1.2207 -1.2568
18547TIP3    H277133   6.127   3.131  14.706 -0.7917 -1.1689  0.4313
18548TIP3   OH277134   1.497   6.238   4.603  0.1541  0.0217 -0.5652
18548TIP3    H177135   1.586   6.232   4.639 -0.4673 -0.4512  0.9944
18548TIP3    H277136   1.471   6.329   4.617 -0.3901 -0.3503  1.0394
18549TIP3   OH277137   2.383   6.579   0.705 -0.4374  0.8185  0.5251
18549TIP3    H177138   2.417   6.490   0.704 -0.4128  0.8328 -0.3643
18549TIP3    H277139   2.326   6.582   0.782 -0.7779 -0.0880  0.3178
18550TIP3   OH277140   6.220   1.617  14.752  0.3665 -0.3994  0.8181
18550TIP3    H177141   6.240   1.532  14.714 -1.5511 -0.5562  0.0676
18550TIP3    H277142   6.124   1.618  14.761  0.3701  1.5321  1.1360
18551TIP3   OH277143   1.008   6.772  11.470  0.1549  0.1778 -0.0458
18551TIP3    H177144   1.075   6.710  11.500 -2.2912 -2.1653  1.0077
18551TIP3    H277145   0.979   6.736  11.386 -0.1075  0.8969 -0.2639
18552TIP3   OH277146   3.032   6.075   1.054  0.1908  0.0075  0.0239
18552TIP3    H177147   3.098   6.106   0.993  0.0365  2.2759  0.9171
18552TIP3    H277148   2.961   6.139   1.048  0.4479  0.7338  2.9683
18553TIP3   OH277149   0.184   3.195  12.477 -0.0546 -0.8930  0.5957
18553TIP3    H177150   0.130   3.188  12.398  0.8196  2.3320 -0.4361
18553TIP3    H277151   0.272   3.170  12.449  0.2495  0.2176  0.5209
18554TIP3   OH277152   2.418   1.830   5.315 -0.0677 -0.2330  0.6658
18554TIP3    H177153   2.365   1.820   5.394  0.1809  0.1281  0.8853
18554TIP3    H277154   2.440   1.923   5.313  0.3162 -0.3262  0.4208
18555TIP3   OH277155   2.189   3.780  13.780 -0.4564 -0.0308 -0.2686
18555TIP3    H177156   2.186   3.852  13.842 -0.1780  0.7450 -1.1405
18555TIP3    H277157   2.098   3.768  13.753 -0.7576 -1.1521  1.1438
18556TIP3   OH277158   6.040   1.433  13.450 -0.3759 -0.7354 -0.0097
18556TIP3    H177159   6.027   1.397  13.538  2.2043 -2.2184 -0.1180
18556TIP3    H277160   6.115   1.492  13.459 -0.6244 -0.2270 -1.0686
18557TIP3   OH277161   0.253   5.083  14.099 -0.5263  0.0772  0.0009
18557TIP3    H177162   0.288   5.004  14.140 -0.4626 -0.2952 -0.7614
18557TIP3    H277163   0.228   5.056  14.011 -0.2589  0.9670 -0.3671
18558TIP3   OH277164   6.733   2.416   2.429 -1.0132 -0.0148 -0.1197
18558TIP3    H177165   6.661   2.357   2.454  0.0496 -1.0308  0.6213
18558TIP3    H277166   6.738   2.408   2.334 -0.9993 -0.9858 -0.0469
18559TIP3   OH277167   2.010   6.099   4.988 -0.2733  0.2450 -0.1587
18559TIP3    H177168   1.966   6.078   5.070  1.8556  0.0272  0.9954
18559TIP3    H277169   2.028   6.193   4.994  2.6712 -0.3068  1.1480
18560TIP3   OH277170   3.858   6.104  14.337 -0.6137  0.2021 -0.2062
18560TIP3    H177171   3.804   6.028  14.357 -1.9160  1.6093  2.1664
18560TIP3    H277172   3.914   6.076  14.264 -1.9720 -2.5229 -0.3290
18561TIP3   OH277173   0.869   2.227  13.192 -0.1586  0.2678  0.5578
18561TIP3    H177174   0.901   2.293  13.130 -2.0417  0.7820  0.0796
18561TIP3    H277175   0.949   2.191  13.231  1.0161  0.9790 -1.0679
18562TIP3   OH277176   3.767   3.722  12.074 -0.3821  0.2767 -0.3085
18562TIP3    H177177   3.696   3.783  12.052 -1.2331 -0.5444  0.1241
18562TIP3    H277178   3.743   3.686  12.159  0.3716 -0.2917 -0.3241
18563TIP3   OH277179   1.797   4.143   0.327  0.3287 -0.2611 -0.7323
18563TIP3    H177180   1.871   4.084   0.312  0.1940 -0.7176  0.3053
18563TIP3    H277181   1.730   4.088   0.369 -0.1967  0.3873 -0.7000
18564TIP3   OH277182   0.810   1.857  12.977  0.0771  0.3643  0.2672
18564TIP3    H177183   0.882   1.831  13.034  2.8319 -2.1328 -3.8247
18564TIP3    H277184   0.847   1.925  12.920 -0.2965 -1.6518 -2.5819
18565TIP3   OH277185   5.889   3.708   0.701 -0.8076 -0.2053 -0.2446
18565TIP3    H177186   5.850   3.723   0.615 -0.6150  0.9124 -0.1546
18565TIP3    H277187   5.950   3.781   0.712 -0.1330 -0.8624  0.4371
18566TIP3   OH277188   1.657   1.993   5.345  0.2359  0.1114 -0.2637
18566TIP3    H177189   1.668   1.961   5.434  1.8267 -0.1378 -0.5114
18566TIP3    H277190   1.581   1.945   5.311  0.2079 -0.5063  0.6441
18567TIP3   OH277191   5.494   1.354   2.062  0.4740 -0.5594 -0.4044
18567TIP3    H177192   5.475   1.448   2.071  1.0425 -0.3182 -1.5419
18567TIP3    H277193   5.573   1.341   2.114  0.4111 -0.4084 -0.2676
18568TIP3   OH277194   1.618   3.925   5.772 -0.2087 -0.0184  0.3117
18568TIP3    H177195   1.600   3.921   5.866 -2.1086  0.5155  0.0073
18568TIP3    H277196   1.671   4.004   5.761  1.6670 -1.0958  1.1187
18569TIP3   OH277197   6.229   5.453  14.549 -0.1882 -0.0087 -0.0141
18569TIP3    H177198   6.218   5.492  14.462  1.7587  2.3932  0.6932
18569TIP3    H277199   6.218   5.526  14.610 -0.7396 -1.4782  1.7493
18570TIP3   OH277200   6.374   6.176   0.670 -0.4487  0.7014  0.3659
18570TIP3    H177201   6.361   6.185   0.576 -1.2989 -3.0236 -0.0057
18570TIP3    H277202   6.289   6.196   0.709 -0.1645  1.9748  0.3963
18571TIP3   OH277203   1.101   2.298   5.182 -0.5907 -0.0821  0.0177
18571TIP3    H177204   1.043   2.337   5.117 -0.2871  0.0467 -0.1747
18571TIP3    H277205   1.189   2.325   5.156 -0.4260 -0.4397  0.1969
18572TIP3   OH277206   3.139   2.631   0.721  0.0438  0.1852 -0.2280
18572TIP3    H177207   3.085   2.709   0.727  0.2397  0.5977 -2.6611
18572TIP3    H277208   3.078   2.558   0.734 -0.7491  0.6852 -1.0506
18573TIP3   OH277209   3.432   0.408  12.532  0.0219 -0.0315 -0.5794
18573TIP3    H177210   3.408   0.317  12.520 -0.2175  0.0786 -0.9440
18573TIP3    H277211   3.467   0.436  12.447  1.5690 -0.2233 -0.0341
18574TIP3   OH277212   3.235   4.109   4.745  0.6010  0.0680  0.2507
18574TIP3    H177213   3.283   4.030   4.770 -0.2352 -0.4615  0.2457
18574TIP3    H277214   3.267   4.129   4.657  0.0544 -0.9183 -0.2000
18575TIP3   OH277215   5.206   3.346  13.587  0.5187  0.0433 -0.3706
18575TIP3    H177216   5.141   3.283  13.555  0.0039 -0.4770  1.5451
18575TIP3    H277217   5.282   3.332  13.531 -1.0606  0.9262 -2.9366
18576TIP3   OH277218   4.433   1.905   0.607 -0.3483  0.2381 -0.1939
18576TIP3    H177219   4.379   1.951   0.670 -0.2691 -1.9709  1.6307
18576TIP3    H277220   4.382   1.827   0.584  0.2321  0.3012 -1.8169
18577TIP3   OH277221   3.092   6.353  17.072  0.3072 -0.0899 -0.3402
18577TIP3    H177222   3.036   6.404  17.012  0.3366  2.3053  1.5154
18577TIP3    H277223   3.176   6.347  17.027  0.1564  1.1309 -0.8172
18578TIP3   OH277224   5.272   1.447   4.677  0.2324 -0.3903  0.3985
18578TIP3    H177225   5.310   1.475   4.594  1.3892 -1.9427  0.3531
18578TIP3    H277226   5.245   1.357   4.661 -2.6507  0.3044  0.7483
18579TIP3   OH277227   4.654   2.822   5.009  0.1471 -0.3266  0.1405
18579TIP3    H177228   4.603   2.900   4.990 -0.9478 -1.3587 -1.4434
18579TIP3    H277229   4.590   2.751   5.007  1.2785 -1.3913  0.5077
18580TIP3   OH277230   4.720   2.856   6.902  1.0601 -0.3471 -0.6327
18580TIP3    H177231   4.658   2.896   6.840  2.0272 -0.0942 -1.4662
18580TIP3    H277232   4.779   2.928   6.926  0.0537 -0.1524  1.4786
18581TIP3   OH277233   4.764   6.224   3.509 -0.2936 -0.1131  0.1130
18581TIP3    H177234   4.803   6.218   3.422  0.9140 -2.1413  0.7229
18581TIP3    H277235   4.689   6.164   3.506 -0.5508  0.1990  0.3142
18582TIP3   OH277236   3.613   0.324  13.689 -0.2642  0.6936 -0.2467
18582TIP3    H177237   3.569   0.402  13.655 -0.3334  1.2143  0.9542
18582TIP3    H277238   3.654   0.284  13.613  0.1695  2.1670 -0.8232
18583TIP3   OH277239   6.240   4.894   0.756  0.1268 -0.3840  0.1514
18583TIP3    H177240   6.313   4.834   0.744  0.4044 -0.0752  0.2698
18583TIP3    H277241   6.162   4.840   0.744  0.3568 -0.9323  1.0487
18584TIP3   OH277242   5.973   6.618   3.477  0.4299  0.3125 -0.1261
18584TIP3    H177243   6.033   6.577   3.539 -0.5442 -1.4092 -0.2341
18584TIP3    H277244   5.886   6.594   3.510 -0.1425  1.0467 -1.0712
18585TIP3   OH277245   6.283   4.208  16.860  0.1381 -0.9367  0.0317
18585TIP3    H177246   6.365   4.199  16.812  0.6415 -1.2818  0.9437
18585TIP3    H277247   6.220   4.158  16.809  0.5375 -0.8545 -0.5560
18586TIP3   OH277248   4.172   4.498  14.910  0.3084  0.0305 -0.1203
18586TIP3    H177249   4.169   4.590  14.935  1.1098 -0.1228  0.5524
18586TIP3    H277250   4.086   4.464  14.935  0.0417  0.5674 -0.2895
18587TIP3   OH277251   2.537   5.544   3.859  0.0068  0.3052  0.1595
18587TIP3    H177252   2.577   5.458   3.875 -2.3782 -0.7892  0.6832
18587TIP3    H277253   2.525   5.580   3.947  0.0127  0.6980 -0.0019
18588TIP3   OH277254   2.274   3.907  12.054  0.0493  0.0070 -0.3014
18588TIP3    H177255   2.328   3.884  12.129  1.7093 -0.4501 -1.5756
18588TIP3    H277256   2.284   3.834  11.993 -1.2965  0.3395 -0.9724
18589TIP3   OH277257   4.835   4.297   2.815 -0.3056 -0.0541  0.6695
18589TIP3    H177258   4.739   4.296   2.807 -0.2582  0.4358 -0.1135
18589TIP3    H277259   4.862   4.374   2.764  0.3770  0.9160  2.4369
18590TIP3   OH277260   4.716   3.534  14.625  0.8841  0.3879 -0.2300
18590TIP3    H177261   4.659   3.494  14.691  2.5521  1.0534  1.7611
18590TIP3    H277262   4.673   3.616  14.601  0.9614  0.9159  1.2920
18591TIP3   OH277263   5.319   5.422  13.119  0.4732  0.3911 -0.0528
18591TIP3    H177264   5.391   5.477  13.149  0.4399  0.9559 -0.9811
18591TIP3    H277265   5.302   5.450  13.029  0.0663 -0.7415 -0.3498
18592TIP3   OH277266   2.600   4.639   3.542  0.1299  0.0748 -0.2719
18592TIP3    H177267   2.574   4.698   3.472  2.3203 -0.1150 -1.3206
18592TIP3    H277268   2.530   4.573   3.545 -0.9536  1.1577 -0.9394
18593TIP3   OH277269   1.341   0.196   1.392 -0.0429  0.0210  0.9766
18593TIP3    H177270   1.396   0.124   1.361  0.4978  0.6795  0.3524
18593TIP3    H277271   1.398   0.247   1.449  0.0259  0.7325  0.2912
18594TIP3   OH277272   6.564   0.614   3.269 -0.7221 -0.0613  0.5606
18594TIP3    H177273   6.536   0.534   3.225 -1.0036  0.6001 -0.4833
18594TIP3    H277274   6.635   0.648   3.215 -0.8688  0.5991  0.7769
18595TIP3   OH277275   1.469   4.491   1.896  0.1811  0.0286  0.3253
18595TIP3    H177276   1.422   4.415   1.861 -0.3207  0.6293 -0.3644
18595TIP3    H277277   1.543   4.454   1.944  1.5781 -0.8527 -2.3040
18596TIP3   OH277278   1.325   6.771  13.359  0.2290 -0.5266 -0.0493
18596TIP3    H177279   1.361   6.684  13.339 -1.6508 -1.0809 -1.2895
18596TIP3    H277280   1.402   6.828  13.363  1.4749 -2.1595  0.3778
18597TIP3   OH277281   1.466   0.282   2.895 -0.4078 -0.3559  0.3229
18597TIP3    H177282   1.446   0.375   2.886 -1.5640 -0.6582 -0.5176
18597TIP3    H277283   1.543   0.279   2.952 -0.9803  1.0487  1.2159
18598TIP3   OH277284   1.623   3.008   4.097 -0.1645  0.1206  0.0020
18598TIP3    H177285   1.558   2.958   4.048 -1.3913  1.4742  0.1787
18598TIP3    H277286   1.667   3.063   4.031 -0.6537  0.7103  0.1526
18599TIP3   OH277287   2.769   6.594  12.682 -0.1322 -0.5176 -0.1959
18599TIP3    H177288   2.855   6.557  12.661  0.0450  0.1365 -0.6245
18599TIP3    H277289   2.716   6.577  12.604  0.3367  1.3141 -0.9643
18600TIP3   OH277290   3.466   0.168  15.650  0.0896  0.2475  0.3008
18600TIP3    H177291   3.511   0.084  15.641  0.5548  0.2905  1.9606
18600TIP3    H277292   3.537   0.233  15.652 -0.3087  0.8835 -2.4384
18601TIP3   OH277293   4.911   3.462  16.059  0.7006  0.1810 -0.0848
18601TIP3    H177294   4.905   3.428  15.970 -0.8697  0.4446 -0.1244
18601TIP3    H277295   4.843   3.414  16.107  0.0742  1.5291  0.4332
18602TIP3   OH277296   0.093   4.806  14.152  0.0794 -0.2147  0.0259
18602TIP3    H177297   0.014   4.860  14.161 -0.4194 -1.1724  1.9400
18602TIP3    H277298   0.077   4.752  14.074 -0.2417  0.9992 -0.7838
18603TIP3   OH277299   0.839   2.255  13.666 -0.0484 -0.8129 -0.6372
18603TIP3    H177300   0.904   2.315  13.631  0.7798 -1.9659 -1.1492
18603TIP3    H277301   0.772   2.250  13.598  1.4513 -2.8778 -2.1069
18604TIP3   OH277302   2.367   3.902  12.502  0.4219 -0.1412 -0.3988
18604TIP3    H177303   2.452   3.929  12.537 -0.1749  0.1200  0.9126
18604TIP3    H277304   2.360   3.949  12.418  1.0757  0.7459  0.0199
18605TIP3   OH277305   0.718   1.668   3.622 -0.6578 -0.3528 -0.4828
18605TIP3    H177306   0.700   1.586   3.577 -1.9306 -1.1508  1.3867
18605TIP3    H277307   0.636   1.717   3.618 -1.1493 -0.8627  1.6885
18606TIP3   OH277308   5.103   4.013   4.497  0.0449 -0.1121 -0.2548
18606TIP3    H177309   5.108   4.047   4.407 -2.8874 -1.4653 -1.0579
18606TIP3    H277310   5.159   3.936   4.496 -0.5156 -0.5346 -1.1898
18607TIP3   OH277311   2.612   5.090  12.997 -0.3819 -0.0655  0.1434
18607TIP3    H177312   2.532   5.142  12.996  1.2588  2.6061  0.1494
18607TIP3    H277313   2.683   5.154  12.999  1.7910 -2.3236  0.2792
18608TIP3   OH277314   6.593   1.084  13.867 -0.0875 -0.2056 -0.4661
18608TIP3    H177315   6.675   1.081  13.818  0.0596  0.8478 -0.3125
18608TIP3    H277316   6.576   1.178  13.879 -1.0331 -0.4229 -0.0309
18609TIP3   OH277317   6.043   4.619   3.793  0.7294  0.2383  0.6726
18609TIP3    H177318   6.050   4.673   3.872  0.0384  0.1875  0.7725
18609TIP3    H277319   6.048   4.681   3.720 -0.0999  0.4571  0.7877
18610TIP3   OH277320   5.760   2.056   1.557  0.0865 -0.5207 -0.3744
18610TIP3    H177321   5.784   2.094   1.472 -0.0205  2.4779  0.8231
18610TIP3    H277322   5.672   2.090   1.573  1.0718  1.0965  2.0333
18611TIP3   OH277323   5.248   3.423   2.151  0.7006 -0.0393 -0.0540
18611TIP3    H177324   5.211   3.375   2.225 -2.1876  0.7316 -0.8718
18611TIP3    H277325   5.301   3.358   2.104 -0.8522 -1.7015  0.3932
18612TIP3   OH277326   3.360   2.067   4.688 -0.1775 -0.0466 -0.1431
18612TIP3    H177327   3.446   2.026   4.685 -0.7061 -1.2119 -0.4065
18612TIP3    H277328   3.361   2.133   4.619  1.2784  1.6473  1.4185
18613TIP3   OH277329   1.725   2.932  12.260  0.5892  0.5406  0.3728
18613TIP3    H177330   1.673   2.880  12.321  1.0000 -2.5501 -1.6568
18613TIP3    H277331   1.665   2.948  12.186  1.0830  1.2687  0.1221
18614TIP3   OH277332   0.009   4.929  15.849  0.1234  0.1308 -0.3502
18614TIP3    H177333  -0.087   4.924  15.858  0.1588  0.6153  0.4794
18614TIP3    H277334   0.037   4.838  15.842 -0.3005 -0.1157  0.7980
18615TIP3   OH277335   5.831   0.013   6.353 -0.5992 -0.0566 -0.3818
18615TIP3    H177336   5.902   0.074   6.370 -0.0534 -0.0878 -2.3578
18615TIP3    H277337   5.759   0.043   6.409  0.6280  0.5408  0.9315
18616TIP3   OH277338   0.916   1.919  13.560 -0.4099  0.2917 -0.2909
18616TIP3    H177339   0.901   1.825  13.570 -2.0220  0.4863 -0.5413
18616TIP3    H277340   0.938   1.950  13.649  0.5651 -0.3714 -0.2906
18617TIP3   OH277341   0.863   3.369  12.545 -0.1223 -0.5192  0.1469
18617TIP3    H177342   0.881   3.352  12.637 -0.6424 -1.2551  0.1182
18617TIP3    H277343   0.866   3.465  12.537  1.5039 -0.4926  0.5975
18618TIP3   OH277344   0.548   4.451  16.925  0.0880 -0.4200 -0.1776
18618TIP3    H177345   0.511   4.530  16.887 -0.6657 -0.9807 -0.6321
18618TIP3    H277346   0.630   4.437  16.878  1.1955  1.1034  1.1659
18619TIP3   OH277347   3.810   2.765  15.054 -0.0704  0.5837  0.6213
18619TIP3    H177348   3.850   2.716  15.125  1.1403 -1.1722 -1.1541
18619TIP3    H277349   3.866   2.747  14.978 -2.1728  1.0347 -1.1490
18620TIP3   OH277350   0.497   5.751  14.567  0.2746 -0.7739 -0.0424
18620TIP3    H177351   0.405   5.773  14.551  0.3473 -0.2880  0.1855
18620TIP3    H277352   0.516   5.788  14.654  0.8335 -0.3847 -0.3215
18621TIP3   OH277353   6.040   2.415   1.626 -0.6273 -0.2412  0.3848
18621TIP3    H177354   6.109   2.430   1.562 -0.4585 -0.1124  0.5938
18621TIP3    H277355   5.961   2.448   1.584 -0.8726 -1.8353 -0.5083
18622TIP3   OH277356   5.741   4.592   3.741  0.8150 -0.4006  1.0541
18622TIP3    H177357   5.774   4.668   3.790 -1.1971  1.9057 -0.9532
18622TIP3    H277358   5.764   4.611   3.650  1.1954 -2.7709  0.6140
18623TIP3   OH277359   0.701   0.012   2.092  0.0828 -0.9684 -0.1461
18623TIP3    H177360   0.646  -0.066   2.082  0.5082 -1.0624 -2.3396
18623TIP3    H277361   0.641   0.080   2.122 -0.7144 -1.6690 -0.1093
18624TIP3   OH277362   3.550   4.148   0.153  0.3066  0.0418 -0.6468
18624TIP3    H177363   3.580   4.128   0.064 -0.2167 -1.7464 -0.4463
18624TIP3    H277364   3.628   4.180   0.198  1.0957 -1.1599 -1.1331
18625TIP3   OH277365   3.671   1.165   0.439  0.4828  0.5024 -0.4244
18625TIP3    H177366   3.725   1.088   0.454 -1.9190 -1.5117 -1.3956
18625TIP3    H277367   3.686   1.188   0.348  1.3342  1.3192 -0.0849
18626TIP3   OH277368   1.093   4.048  16.588 -0.3697 -0.2795  0.7983
18626TIP3    H177369   1.131   3.980  16.533  0.6379 -0.0625  1.1887
18626TIP3    H277370   1.146   4.046  16.668 -0.1710  1.0914  0.7298
18627TIP3   OH277371   0.138   5.944   0.477 -0.3770  0.0358 -0.1382
18627TIP3    H177372   0.087   6.017   0.443  2.8125  2.5700 -0.0402
18627TIP3    H277373   0.119   5.871   0.418 -4.2236  0.6084  0.1614
18628TIP3   OH277374   0.483   3.347   4.098  0.4539 -0.1305  0.0219
18628TIP3    H177375   0.408   3.298   4.065  0.2277 -1.3935  2.1830
18628TIP3    H277376   0.446   3.431   4.126 -0.5697 -1.2885  2.4650
18629TIP3   OH277377   5.141   4.547  16.059  0.7620 -0.1093 -0.0415
18629TIP3    H177378   5.147   4.484  16.131  2.2630  0.3316  0.2350
18629TIP3    H277379   5.181   4.627  16.093 -1.2005  1.0765 -0.3444
18630TIP3   OH277380   6.641   6.210   3.782  0.6080 -0.1772  0.5874
18630TIP3    H177381   6.572   6.212   3.849  0.9032  0.7039  0.8663
18630TIP3    H277382   6.667   6.301   3.771  0.0254 -0.1979 -1.2979
18631TIP3   OH277383   3.072   5.829   5.147 -0.4932  0.0086 -0.2252
18631TIP3    H177384   3.098   5.805   5.236  0.3012  2.0228  0.1409
18631TIP3    H277385   2.996   5.774   5.129 -0.4719 -0.6798  1.5737
18632TIP3   OH277386   4.410   1.900   5.460 -0.2794  0.3137  0.6998
18632TIP3    H177387   4.353   1.837   5.417 -0.0244  1.8996 -2.2309
18632TIP3    H277388   4.478   1.846   5.502 -1.6671 -1.4116  0.8530
18633TIP3   OH277389   6.349   4.002   6.496 -0.4406  0.0297  0.0908
18633TIP3    H177390   6.354   3.914   6.458  0.2088  0.0902  0.0273
18633TIP3    H277391   6.322   3.987   6.587  0.5749 -0.3068  0.3496
18634TIP3   OH277392   4.341   2.424  10.965 -0.0676 -0.6171 -0.0563
18634TIP3    H177393   4.410   2.491  10.957 -0.2560 -0.2450  1.2631
18634TIP3    H277394   4.388   2.341  10.954  0.2692 -0.3024 -1.1056
18635TIP3   OH277395   1.316   2.824  11.673 -0.0413  0.3300  0.2116
18635TIP3    H177396   1.374   2.889  11.712 -1.2213  1.9618 -0.6290
18635TIP3    H277397   1.360   2.797  11.593  0.4657  0.0554  0.5771
18636TIP3   OH277398   3.129   1.779   5.372 -0.5902 -0.0657 -0.0108
18636TIP3    H177399   3.149   1.694   5.411 -0.1044  0.3261  0.6085
18636TIP3    H277400   3.194   1.839   5.408  0.7583  0.0614 -2.4466
18637TIP3   OH277401   1.826   6.144  11.862 -0.3574 -0.1910  0.4112
18637TIP3    H177402   1.787   6.109  11.782  0.6312  0.7771 -0.5310
18637TIP3    H277403   1.772   6.220  11.882 -0.8558 -0.6719  0.9089
18638TIP3   OH277404   2.810   5.789   0.358 -0.1308 -0.1245 -0.3167
18638TIP3    H177405   2.743   5.855   0.374 -0.5596 -0.8299  0.9550
18638TIP3    H277406   2.874   5.803   0.427 -0.1733 -0.9565 -0.1007
18639TIP3   OH277407   4.386   0.725  17.167 -0.2206  0.2804  0.0205
18639TIP3    H177408   4.404   0.755  17.257 -0.0525 -1.0965  0.4700
18639TIP3    H277409   4.304   0.767  17.144 -1.5439 -1.1693  1.7539
18640TIP3   OH277410   1.148   2.947   6.520  0.3309  0.0782 -0.1212
18640TIP3    H177411   1.209   2.978   6.586  0.1873  0.0224  0.0388
18640TIP3    H277412   1.071   3.003   6.530 -0.7606 -1.5821  1.5487
18641TIP3   OH277413   4.082   4.860   5.127  0.2442  0.1879 -0.2599
18641TIP3    H177414   4.069   4.786   5.186  0.4611  0.5617  0.2634
18641TIP3    H277415   4.007   4.917   5.143 -0.8034 -0.6761 -1.8420
18642TIP3   OH277416   4.192   4.606  11.514  0.6885  0.1451  0.7590
18642TIP3    H177417   4.192   4.530  11.573 -1.2768 -2.2356 -2.0576
18642TIP3    H277418   4.283   4.612  11.484  0.8359 -1.2251  0.8661
18643TIP3   OH277419   6.348   3.892   4.601  0.2039  0.2905  0.5366
18643TIP3    H177420   6.263   3.905   4.559  0.8418  1.3717 -0.5110
18643TIP3    H277421   6.366   3.976   4.645  0.5965 -0.0261  0.9942
18644TIP3   OH277422   3.522   3.994   2.896 -0.6182 -0.5496  0.3508
18644TIP3    H177423   3.499   3.903   2.878 -1.0044 -0.3605 -0.1371
18644TIP3    H277424   3.442   4.043   2.879  0.2841  0.2239 -2.2139
18645TIP3   OH277425   1.501   4.500   1.313 -0.0006  0.3507 -0.4131
18645TIP3    H177426   1.504   4.426   1.252 -0.1960  0.7104 -0.8597
18645TIP3    H277427   1.504   4.459   1.399  0.0819 -0.1720 -0.6580
18646TIP3   OH277428   2.515   5.101  11.802  0.7098 -0.4393  0.1206
18646TIP3    H177429   2.458   5.173  11.776  0.3429 -1.0616 -0.8309
18646TIP3    H277430   2.469   5.060  11.876  1.8695  1.4698  1.9949
18647TIP3   OH277431   1.004   3.975  15.987 -0.4409  0.7024  0.1151
18647TIP3    H177432   0.950   4.043  16.027  0.7093  0.9009  1.3617
18647TIP3    H277433   1.084   4.019  15.960 -0.3199  0.1384 -0.5003
18648TIP3   OH277434   4.589   6.071  13.129  0.8948 -0.2098 -0.2881
18648TIP3    H177435   4.594   6.068  13.033 -0.6119 -0.0986 -0.3937
18648TIP3    H277436   4.502   6.038  13.149  1.4269 -0.8108  1.0922
18649TIP3   OH277437   3.837   0.899   1.424 -0.0441  0.7006 -0.2769
18649TIP3    H177438   3.773   0.854   1.478  0.2975 -0.1143 -0.5421
18649TIP3    H277439   3.901   0.934   1.486 -1.1305  2.2056  0.0621
18650TIP3   OH277440   5.182   3.219  14.217  0.4421 -0.6143  0.3993
18650TIP3    H177441   5.150   3.239  14.129 -2.1336 -1.8057  0.9714
18650TIP3    H277442   5.187   3.305  14.261  0.6980 -0.1315 -0.5376
18651TIP3   OH277443   0.372   3.658  12.096 -0.1304 -0.2276  0.3062
18651TIP3    H177444   0.463   3.627  12.105  0.0303 -0.5615 -1.9026
18651TIP3    H277445   0.376   3.727  12.030 -1.3783  0.3268  0.7809
18652TIP3   OH277446   5.025   6.471  13.926  0.3671 -0.2903 -0.1408
18652TIP3    H177447   5.019   6.528  13.850 -1.7036 -0.3190 -0.0489
18652TIP3    H277448   5.061   6.389  13.892  2.7227  0.7683 -0.3930
18653TIP3   OH277449   4.512   3.250  14.226 -0.0736 -0.0882 -0.9536
18653TIP3    H177450   4.454   3.173  14.231  0.1469 -0.3010 -1.6141
18653TIP3    H277451   4.498   3.295  14.310 -0.6001 -0.5622 -0.7749
18654TIP3   OH277452   2.951   4.958   4.219 -0.1379  0.0807  0.2749
18654TIP3    H177453   2.989   4.893   4.278 -0.8298  0.7306  1.4575
18654TIP3    H277454   3.012   5.031   4.221 -1.6029  1.3656  2.6242
18655TIP3   OH277455   4.428   6.631  14.194 -0.1396 -0.0276  0.3452
18655TIP3    H177456   4.424   6.636  14.099  0.1142  0.5102  0.3572
18655TIP3    H277457   4.360   6.568  14.218  0.2284 -0.6549 -0.2314
18656TIP3   OH277458   2.295   1.482  12.709 -0.5633 -0.3747  0.1787
18656TIP3    H177459   2.380   1.470  12.667 -0.5603 -1.5951  0.5084
18656TIP3    H277460   2.292   1.575  12.731  1.0899 -0.4912  1.0400
18657TIP3   OH277461   2.102   2.182   2.500 -0.3190 -0.0065 -0.6216
18657TIP3    H177462   2.054   2.249   2.451 -0.5561  0.6400  0.4553
18657TIP3    H277463   2.182   2.168   2.449 -0.0728  1.4032 -0.6790
18658TIP3   OH277464   2.717   6.771   0.070  0.1224 -0.3865  0.2688
18658TIP3    H177465   2.805   6.806   0.051 -0.4172  0.4966 -0.7146
18658TIP3    H277466   2.719   6.682   0.036  0.3290 -0.0305 -0.6938
18659TIP3   OH277467   6.046   2.644   0.427  0.3824  0.0475  0.5668
18659TIP3    H177468   5.970   2.590   0.449 -1.0362  0.4404 -2.7736
18659TIP3    H277469   6.111   2.582   0.393 -0.2033  0.1293 -0.7396
18660TIP3   OH277470   6.085   1.955  16.009  0.4484  0.1809  0.1892
18660TIP3    H177471   6.099   1.998  16.093 -0.7973  2.5068 -0.7013
18660TIP3    H277472   6.098   1.862  16.027  0.8181  0.6642  2.7862
18661TIP3   OH277473   1.776   1.058  13.178 -0.3123  0.1863  0.2570
18661TIP3    H177474   1.732   1.091  13.100 -1.6036  1.4444  1.4471
18661TIP3    H277475   1.839   1.126  13.202 -0.6275  0.2768  0.8554
18662TIP3   OH277476   5.123   0.395  12.011  0.0250  0.2945  0.5194
18662TIP3    H177477   5.204   0.369  12.057 -0.0341  1.3804  1.2836
18662TIP3    H277478   5.054   0.343  12.053 -0.1243  1.7335  2.1757
18663TIP3   OH277479   3.528   5.663  13.895  0.7917 -0.1623 -0.2136
18663TIP3    H177480   3.446   5.633  13.857  0.6880  1.0632 -1.0107
18663TIP3    H277481   3.508   5.681  13.987  0.0773  0.4334 -0.4784
18664TIP3   OH277482   1.366   3.450   2.360  0.3424  0.5259 -0.4579
18664TIP3    H177483   1.405   3.514   2.419  0.2622  1.4212 -1.3584
18664TIP3    H277484   1.321   3.388   2.418  1.6608  0.4291  0.5029
18665TIP3   OH277485   3.733   5.112  12.700  0.2993 -0.3476  0.0432
18665TIP3    H177486   3.667   5.135  12.634 -0.3126 -0.8318  0.4728
18665TIP3    H277487   3.786   5.191  12.709  1.6406 -0.8587 -2.4485
18666TIP3   OH277488   1.986   2.266   0.463 -0.2344 -0.1159 -0.4624
18666TIP3    H177489   1.970   2.310   0.547 -0.1350  0.3708 -0.6968
18666TIP3    H277490   2.056   2.203   0.482 -0.3552 -0.1525 -0.1317
18667TIP3   OH277491   5.567   2.477   1.909 -0.5018  1.0145  0.4581
18667TIP3    H177492   5.651   2.514   1.881  1.0676 -2.1506  0.4969
18667TIP3    H277493   5.530   2.440   1.829 -1.0691  0.9928  0.7291
18668TIP3   OH277494   4.371   1.324  13.968 -0.1267  0.6166 -0.0052
18668TIP3    H177495   4.306   1.393  13.964 -1.0626 -0.2865 -1.0782
18668TIP3    H277496   4.364   1.289  14.057 -0.8258  0.7951  0.0135
18669TIP3   OH277497   4.755   0.602  16.222 -0.0421  0.1433 -0.1709
18669TIP3    H177498   4.748   0.692  16.256 -1.2922  0.9200 -2.2847
18669TIP3    H277499   4.774   0.613  16.129 -0.9936 -1.7594 -0.6337
18670TIP3   OH277500   1.275   2.862   1.455 -0.0855 -0.3945  0.4177
18670TIP3    H177501   1.222   2.907   1.390 -0.3907 -0.2203  0.7811
18670TIP3    H277502   1.365   2.886   1.433 -0.1934 -0.2547  0.1232
18671TIP3   OH277503   4.600   2.890   5.955  0.2066 -0.5868  0.0411
18671TIP3    H177504   4.509   2.866   5.967  0.2481  0.3113  2.9038
18671TIP3    H277505   4.624   2.853   5.870 -2.2075 -2.5923  0.1296
18672TIP3   OH277506   1.679   3.715  13.230 -0.4229  0.0522  0.0642
18672TIP3    H177507   1.595   3.669  13.226  0.2729 -1.2322 -2.6406
18672TIP3    H277508   1.738   3.655  13.275 -0.9404  1.0659  2.2052
18673TIP3   OH277509   0.205   5.893   1.633  0.3036 -0.0316  1.1860
18673TIP3    H177510   0.246   5.907   1.718 -0.8431 -0.9618  1.9323
18673TIP3    H277511   0.213   5.799   1.618 -0.0815  0.0279  0.5701
18674TIP3   OH277512   3.609   6.728  14.783  0.2365  0.7145  0.0801
18674TIP3    H177513   3.615   6.765  14.871 -3.2074 -1.2987  1.3364
18674TIP3    H277514   3.647   6.640  14.792 -1.3706 -0.0183 -0.0234
18675TIP3   OH277515   1.119   5.365   4.363 -0.4487 -0.1514  0.3326
18675TIP3    H177516   1.113   5.418   4.442  1.6504 -1.5099  1.5073
18675TIP3    H277517   1.137   5.428   4.293 -0.4352  0.9116  1.2686
18676TIP3   OH277518   4.876   3.746   4.023  0.6128 -0.0998 -0.2864
18676TIP3    H177519   4.903   3.731   3.932  0.1706 -0.3142 -0.3881
18676TIP3    H277520   4.800   3.688   4.034  1.2427 -0.7882  0.5091
18677TIP3   OH277521   0.490   6.389  13.128  0.6809  0.6735  0.4031
18677TIP3    H177522   0.472   6.364  13.038  0.8156  0.6898  0.3712
18677TIP3    H277523   0.406   6.422  13.161  0.1018 -1.1825  0.9035
18678TIP3   OH277524   1.889   3.762  12.682  0.4675  0.1113  0.0932
18678TIP3    H177525   1.877   3.778  12.589 -1.6482  0.7225  0.4244
18678TIP3    H277526   1.975   3.799  12.702 -0.0526  2.1262 -1.1530
18679TIP3   OH277527   3.657   1.084   2.922 -0.1321  0.2481  0.0033
18679TIP3    H177528   3.582   1.024   2.913 -0.7823  0.9271  0.7251
18679TIP3    H277529   3.707   1.048   2.995  1.2813 -1.2399 -1.6027
18680TIP3   OH277530   4.517   4.715   5.215  0.4431  0.0174  0.7460
18680TIP3    H177531   4.449   4.694   5.279  0.5034  0.2791  0.8952
18680TIP3    H277532   4.565   4.633   5.203  0.3117 -0.0804  0.8891
18681TIP3   OH277533   1.679   6.468   3.789 -0.0367  0.3121 -0.2207
18681TIP3    H177534   1.707   6.466   3.698 -1.2261 -2.5374 -0.6184
18681TIP3    H277535   1.586   6.492   3.785 -0.5335 -1.4185  0.0273
18682TIP3   OH277536   5.471   4.021  14.434  0.2453  0.2192  0.2225
18682TIP3    H177537   5.452   4.095  14.375 -0.1107 -0.1524 -0.1313
18682TIP3    H277538   5.403   4.025  14.501  0.5514  0.5405  0.5192
18683TIP3   OH277539   4.688   6.646   0.248 -0.5278  0.6369 -0.0831
18683TIP3    H177540   4.749   6.572   0.251  0.0714  1.1604  1.8215
18683TIP3    H277541   4.632   6.635   0.325  0.4670  2.8543  1.0606
18684TIP3   OH277542   6.451   1.517  15.062  0.1190 -0.2267  0.4032
18684TIP3    H177543   6.410   1.476  14.986 -0.6509 -2.3532  1.8836
18684TIP3    H277544   6.388   1.505  15.132  0.9478  1.4251  1.4987
18685TIP3   OH277545   2.976   4.120  15.869 -0.0574 -0.0521 -0.5517
18685TIP3    H177546   2.897   4.080  15.834 -0.7263  1.0380 -0.3299
18685TIP3    H277547   3.047   4.061  15.842 -0.9468 -1.0982 -0.6441
18686TIP3   OH277548   0.261   2.412   5.759 -0.3529 -0.0287  0.1371
18686TIP3    H177549   0.309   2.493   5.776 -0.8089 -0.1720  2.3334
18686TIP3    H277550   0.192   2.437   5.697 -1.7042  1.7521  2.2300
18687TIP3   OH277551   6.171   5.516   4.067 -0.0546  0.6136 -0.0907
18687TIP3    H177552   6.227   5.438   4.072 -0.8889  0.0760  1.2040
18687TIP3    H277553   6.154   5.527   3.973  0.7009 -0.2990 -0.3489
18688TIP3   OH277554   0.560   6.786  12.440  0.2372  0.2829 -0.4991
18688TIP3    H177555   0.577   6.816  12.529 -0.0730  0.9295 -0.6524
18688TIP3    H277556   0.561   6.690  12.447 -1.3238  0.2987  0.5230
18689TIP3   OH277557   3.527   5.224  16.082  0.0356  0.1965 -0.0142
18689TIP3    H177558   3.518   5.314  16.113 -0.2729  0.1304  0.1012
18689TIP3    H277559   3.439   5.186  16.093  0.5977 -0.7025  1.7949
18690TIP3   OH277560   0.304   2.052  16.977 -0.4962  0.1029 -0.7152
18690TIP3    H177561   0.215   2.073  16.948 -1.1276 -0.5663  0.6869
18690TIP3    H277562   0.301   1.959  16.999 -0.3304  0.7435  2.3649
18691TIP3   OH277563   5.614   0.231  14.953  0.1674 -0.1680 -0.5233
18691TIP3    H177564   5.650   0.278  15.028  0.7447  0.8552 -1.4185
18691TIP3    H277565   5.686   0.177  14.922  0.6401  1.0724 -1.6626
18692TIP3   OH277566   4.511   0.453  15.740 -0.1026 -0.3568 -0.3307
18692TIP3    H177567   4.429   0.440  15.692 -2.0761  2.0683  2.0483
18692TIP3    H277568   4.491   0.429  15.830  2.3098 -1.0822  0.0975
18693TIP3   OH277569   5.235   2.149   5.326 -0.3677  0.1489 -0.1227
18693TIP3    H177570   5.167   2.111   5.270  0.5765 -2.6414  0.5137
18693TIP3    H277571   5.302   2.179   5.265  0.2315 -2.0157 -0.6126
18694TIP3   OH277572   4.858   3.961  13.362  0.3476 -0.3009  0.3420
18694TIP3    H177573   4.796   3.924  13.299 -0.8897  1.9592  0.1303
18694TIP3    H277574   4.913   4.019  13.309 -0.8960  1.8580  1.3176
18695TIP3   OH277575   2.297   6.296  11.112  0.4281  0.1616 -0.4619
18695TIP3    H177576   2.232   6.257  11.054  1.0402 -1.9015  0.1763
18695TIP3    H277577   2.247   6.321  11.190  0.2104 -0.3708 -0.4288
18696TIP3   OH277578   5.328   2.383  15.693  0.1081  0.0081 -0.4395
18696TIP3    H177579   5.239   2.354  15.674  0.6996 -1.3499 -1.2526
18696TIP3    H277580   5.324   2.479  15.688 -1.4194 -0.0069  0.1136
18697TIP3   OH277581   3.654   4.688  16.808  0.1214  0.1264 -0.5616
18697TIP3    H177582   3.624   4.757  16.868  0.0087 -0.5214  0.1339
18697TIP3    H277583   3.606   4.610  16.835  0.0016 -0.1639 -1.5546
18698TIP3   OH277584   2.852   0.020   4.998  0.2129  0.0669 -0.5213
18698TIP3    H177585   2.795   0.079   4.950 -1.5418 -1.2264 -0.1258
18698TIP3    H277586   2.932   0.016   4.946 -0.7267  0.5662 -2.0626
18699TIP3   OH277587   6.109   1.707  15.211  0.4245 -0.2939  0.7104
18699TIP3    H177588   6.065   1.790  15.231 -0.1743 -0.3628 -0.2487
18699TIP3    H277589   6.197   1.718  15.247 -0.0114  0.2998  1.6348
18700TIP3   OH277590   0.399   1.243   3.788 -0.7275 -0.2196 -0.7441
18700TIP3    H177591   0.322   1.245   3.845 -0.3516 -4.2297  0.2067
18700TIP3    H277592   0.381   1.173   3.725  0.9411  0.7949 -2.4587
18701TIP3   OH277593   2.330   3.782   2.869  0.3523 -0.0419  0.2044
18701TIP3    H177594   2.352   3.871   2.840  1.5290  0.2099  1.7183
18701TIP3    H277595   2.290   3.741   2.793 -0.9908  2.0406 -0.3070
18702TIP3   OH277596   0.914   0.889  15.676  0.2157 -0.1501  0.3656
18702TIP3    H177597   0.894   0.958  15.738 -0.1920  0.1192 -0.0571
18702TIP3    H277598   0.917   0.933  15.591  3.5181  0.0295  0.4324
18703TIP3   OH277599   6.505   2.828   2.117 -0.3555  0.1782 -0.2660
18703TIP3    H177600   6.508   2.852   2.210 -0.7695  0.6607 -0.3711
18703TIP3    H277601   6.421   2.862   2.086 -1.3387 -2.0819 -0.2568
18704TIP3   OH277602   1.015   6.236  13.282  0.2059 -0.2246 -0.0804
18704TIP3    H177603   1.047   6.185  13.357  1.6359  0.2687 -0.3291
18704TIP3    H277604   0.920   6.238  13.293  0.3328 -0.8144  1.2963
18705TIP3   OH277605   3.072   2.133  11.976  0.5634 -0.2868  0.1364
18705TIP3    H177606   2.987   2.173  11.994  0.6614  0.3903 -0.8352
18705TIP3    H277607   3.100   2.097  12.060 -0.4936 -0.1470  0.5569
18706TIP3   OH277608   1.140   5.081   4.348 -0.8345  0.5534 -0.2889
18706TIP3    H177609   1.124   5.170   4.379  0.3504  0.2998  1.1742
18706TIP3    H277610   1.214   5.089   4.288 -0.1186  0.4681  0.5560
18707TIP3   OH277611   2.147   5.311   2.884  0.1291 -0.0298  0.4067
18707TIP3    H177612   2.234   5.334   2.917  0.8419  0.4692 -1.6461
18707TIP3    H277613   2.087   5.362   2.938  1.1679  0.3676  1.2350
18708TIP3   OH277614   2.437   0.289  15.025  0.0405  0.0220 -0.1813
18708TIP3    H177615   2.407   0.324  15.109  0.2035  1.4496 -0.6788
18708TIP3    H277616   2.528   0.263  15.041  0.2924  0.9353 -0.0708
18709TIP3   OH277617   0.443   3.901   2.860  0.2933 -0.3273 -0.6438
18709TIP3    H177618   0.514   3.961   2.838 -0.2427  0.1010 -1.2728
18709TIP3    H277619   0.475   3.852   2.935  0.7308  0.8003 -0.0642
18710TIP3   OH277620   2.642   5.081  14.652 -0.5064 -0.7092  0.3596
18710TIP3    H177621   2.599   5.165  14.669  0.2425 -0.3976  0.7627
18710TIP3    H277622   2.674   5.052  14.738  0.7963 -0.5295 -0.0435
18711TIP3   OH277623   2.978   1.712   0.728 -0.0124  0.1446  0.1154
18711TIP3    H177624   2.991   1.807   0.729 -0.6980  0.2513 -0.1653
18711TIP3    H277625   2.886   1.700   0.753  0.3365 -0.5114  1.1545
18712TIP3   OH277626   4.187   3.252  15.753 -0.2807  0.1721 -0.4847
18712TIP3    H177627   4.219   3.326  15.701  0.2100  0.0639 -0.3400
18712TIP3    H277628   4.106   3.285  15.793 -0.1566  0.5756 -0.5563
18713TIP3   OH277629   6.089   6.818   2.720 -0.1507  0.2693  0.7070
18713TIP3    H177630   6.056   6.873   2.649 -2.3534 -1.3363  0.3688
18713TIP3    H277631   6.153   6.872   2.765  0.7407  1.6296 -2.0042
18714TIP3   OH277632   5.741   1.742  13.465  0.3146  0.2103 -0.2033
18714TIP3    H177633   5.754   1.719  13.557  1.4900  0.7561 -0.2115
18714TIP3    H277634   5.676   1.812  13.467 -0.0655 -0.1527  0.1672
18715TIP3   OH277635   1.705   0.972   1.438 -0.0158  0.1717  0.0616
18715TIP3    H177636   1.778   0.984   1.377  0.0315  1.1319  0.2857
18715TIP3    H277637   1.699   1.055   1.485 -2.1632  0.6458 -0.9329
18716TIP3   OH277638   3.466   6.569  16.753  0.8269  0.1314 -0.2579
18716TIP3    H177639   3.513   6.488  16.772 -0.2243 -0.7017 -1.0505
18716TIP3    H277640   3.522   6.614  16.688  2.5280  1.1803  1.8149
18717TIP3   OH277641   1.332   5.333   1.292 -0.0328 -0.1020  0.0996
18717TIP3    H177642   1.246   5.313   1.329 -1.1333  1.8776 -1.2049
18717TIP3    H277643   1.393   5.324   1.365 -1.6500  0.4501  1.5579
18718TIP3   OH277644   0.944   0.382  15.022  0.3283  0.6379 -0.0130
18718TIP3    H177645   0.901   0.354  15.103  1.8099 -6.4118 -0.9451
18718TIP3    H277646   0.873   0.393  14.959 -0.6718 -1.0647  0.7322
18719TIP3   OH277647   2.305   3.093  12.319 -0.1633 -0.2187  0.2434
18719TIP3    H177648   2.363   3.155  12.361 -0.1232  0.8365 -1.3019
18719TIP3    H277649   2.234   3.146  12.282 -0.5123 -1.1440 -0.4887
18720TIP3   OH277650   6.533   0.212   1.439  0.0867 -0.7656  0.0213
18720TIP3    H177651   6.606   0.246   1.492 -1.4012 -1.6237  2.8477
18720TIP3    H277652   6.542   0.117   1.444 -2.2370 -0.9845  2.2012
18721TIP3   OH277653   4.453   6.156  16.047  0.0567  0.1875 -0.0578
18721TIP3    H177654   4.542   6.127  16.026 -0.0004  0.7165 -1.1020
18721TIP3    H277655   4.465   6.244  16.083 -0.0426  0.2213 -0.1085
18722TIP3   OH277656   1.024   0.397   5.449  0.5656 -0.1099  0.3198
18722TIP3    H177657   0.975   0.315   5.444  1.0917 -0.5179  1.4659
18722TIP3    H277658   0.962   0.459   5.489  0.0772  0.1580 -0.7904
18723TIP3   OH277659   1.619   0.307   5.128 -0.0270 -0.1113  0.6208
18723TIP3    H177660   1.698   0.291   5.178  0.1422 -0.3979  0.2695
18723TIP3    H277661   1.593   0.396   5.150  0.6253  0.1326  0.4165
18724TIP3   OH277662   5.482   0.613   5.434  0.3823  0.0769  0.3305
18724TIP3    H177663   5.449   0.523   5.439 -1.0774  0.5492 -0.1569
18724TIP3    H277664   5.547   0.618   5.503  1.2138 -1.6358 -0.2549
18725TIP3   OH277665   5.041   3.796   4.250  0.4616  0.5728 -0.0797
18725TIP3    H177666   4.966   3.762   4.201 -0.5864  0.5280  1.4985
18725TIP3    H277667   5.115   3.742   4.220 -0.9224 -2.4525  1.5077
18726TIP3   OH277668   5.518   5.142  13.594 -0.8514 -0.1426  0.1223
18726TIP3    H177669   5.495   5.228  13.630 -0.3786 -0.1151  0.3637
18726TIP3    H277670   5.614   5.143  13.588 -0.9245  0.0375 -1.5933
18727TIP3   OH277671   1.497   0.534   3.098  0.8727 -0.6076 -0.0039
18727TIP3    H177672   1.538   0.579   3.172 -2.0996  0.3692  1.1983
18727TIP3    H277673   1.501   0.597   3.027  1.3883 -0.5096  0.1076
18728TIP3   OH277674   4.614   2.283   5.617 -0.1356  0.4639 -0.3878
18728TIP3    H177675   4.690   2.270   5.561 -0.9551  1.3085 -1.7544
18728TIP3    H277676   4.610   2.378   5.630  0.4266  0.2573  1.7164
18729TIP3   OH277677   2.836   2.084  15.508 -0.4421  0.1366  0.7466
18729TIP3    H177678   2.814   2.089  15.415 -0.8746  0.7009  0.8742
18729TIP3    H277679   2.917   2.033  15.511 -0.7939 -0.4781  0.1209
18730TIP3   OH277680   0.079   4.248  13.571  0.4749  0.6190  0.6020
18730TIP3    H177681   0.173   4.232  13.560  0.1419 -1.2840  0.1215
18730TIP3    H277682   0.051   4.281  13.486  0.1731 -2.0045 -0.4180
18731TIP3   OH277683   0.006   5.626   1.417 -0.3064  0.4394  0.2738
18731TIP3    H177684   0.033   5.570   1.343 -0.0996  1.0355 -0.1131
18731TIP3    H277685   0.026   5.715   1.387 -0.5101  0.7084  0.9343
18732TIP3   OH277686   3.310   2.777  10.626 -0.2264 -0.0023 -0.5628
18732TIP3    H177687   3.342   2.688  10.612 -0.5882 -0.1995 -0.1762
18732TIP3    H277688   3.313   2.818  10.539  0.1635 -0.3137 -0.6996
18733TIP3   OH277689   1.617   1.595  14.421  0.6586 -0.1392  0.0855
18733TIP3    H177690   1.631   1.659  14.492  1.1719 -0.6299  0.4321
18733TIP3    H277691   1.585   1.516  14.466 -0.7616  0.1112 -0.4172
18734TIP3   OH277692   1.602   5.850   3.834 -0.4012  0.0591  0.1557
18734TIP3    H177693   1.614   5.886   3.746  1.0088 -1.1172 -0.1844
18734TIP3    H277694   1.651   5.910   3.891  2.1353 -1.3140 -0.4362
18735TIP3   OH277695   4.336   1.801   5.782  0.2564 -0.3204 -0.0929
18735TIP3    H177696   4.328   1.741   5.708  3.0962  0.9599 -1.6161
18735TIP3    H277697   4.387   1.752   5.847  5.0827  0.9865 -2.4321
18736TIP3   OH277698   3.395   2.467   2.081 -0.2247  0.3699 -0.1495
18736TIP3    H177699   3.400   2.561   2.098 -2.0023  0.3070  1.0525
18736TIP3    H277700   3.409   2.426   2.167 -1.8379 -0.3315 -0.1774
18737TIP3   OH277701   3.408   1.440  17.111  0.2821  0.0626  0.0121
18737TIP3    H177702   3.381   1.502  17.180  1.3297  0.6582 -0.0959
18737TIP3    H277703   3.332   1.382  17.101  0.3043 -0.3885  2.0383
18738TIP3   OH277704   0.457   1.627  12.900  0.2753  0.2134 -0.3000
18738TIP3    H177705   0.392   1.603  12.966  3.7896 -2.5053  2.6050
18738TIP3    H277706   0.499   1.706  12.934  2.0253 -1.1350  0.8455
18739TIP3   OH277707   5.657   6.188  16.232  0.0595  0.5223  0.4760
18739TIP3    H177708   5.651   6.162  16.140 -0.2833  1.1535  0.3151
18739TIP3    H277709   5.706   6.117  16.274  0.9111  0.6111 -0.3443
18740TIP3   OH277710   1.947   1.549  16.548  0.2091 -0.2135 -0.2401
18740TIP3    H177711   1.915   1.639  16.541 -0.3927 -0.4622 -0.7858
18740TIP3    H277712   2.038   1.558  16.577 -0.8021  0.4663  3.1985
18741TIP3   OH277713   4.360   0.705  16.882 -0.0949 -0.0313  0.1513
18741TIP3    H177714   4.275   0.691  16.840 -0.2285  1.2126 -0.0063
18741TIP3    H277715   4.339   0.750  16.964  0.3383 -0.6388  0.6071
18742TIP3   OH277716   2.034   2.433   4.269  0.0209  0.4036  0.6592
18742TIP3    H177717   1.958   2.374   4.272 -0.1031  0.5900  1.3318
18742TIP3    H277718   2.063   2.439   4.360  0.2686  1.0798  0.5378
18743TIP3   OH277719   2.983   0.234   5.233  0.1588  0.0729 -0.2103
18743TIP3    H177720   2.932   0.162   5.272 -0.3555 -0.6647 -2.1108
18743TIP3    H277721   2.917   0.301   5.212  0.7556  1.6883  2.5418
18744TIP3   OH277722   5.396   4.201  13.255 -0.5210  0.0722 -0.3943
18744TIP3    H177723   5.301   4.209  13.264 -1.0732 -4.7057  0.7254
18744TIP3    H277724   5.412   4.208  13.161 -1.8141  1.5388 -0.5529
18745TIP3   OH277725   0.703   2.270   3.744 -0.1287 -0.0617 -0.2527
18745TIP3    H177726   0.647   2.324   3.688  0.1382  0.2058 -0.2625
18745TIP3    H277727   0.643   2.206   3.783 -0.9899  1.8915  1.8714
18746TIP3   OH277728   0.272   2.696   0.044 -0.1767  0.4076 -0.3952
18746TIP3    H177729   0.320   2.670  -0.035 -2.2449  1.0341 -1.9735
18746TIP3    H277730   0.256   2.790   0.033  0.3530  0.7187  1.2926
18747TIP3   OH277731   0.148   5.583  13.718 -0.9301  0.6867 -0.3194
18747TIP3    H177732   0.095   5.545  13.648 -0.2702 -1.6239  0.3500
18747TIP3    H277733   0.097   5.571  13.797 -0.7298  1.2971 -0.0902
18748TIP3   OH277734   2.757   5.885   2.349 -0.6581 -0.3686  0.4774
18748TIP3    H177735   2.819   5.828   2.303 -1.5086 -1.4989  0.7008
18748TIP3    H277736   2.810   5.931   2.413  0.4218  0.6695 -1.0766
18749TIP3   OH277737   6.812   3.843  15.466 -0.3044  0.1832 -0.4276
18749TIP3    H177738   6.812   3.758  15.510 -0.2866  0.2137 -0.3690
18749TIP3    H277739   6.749   3.833  15.395  0.4367 -0.1977 -1.0431
18750TIP3   OH277740   5.281   5.293  16.782  0.0160 -0.9293 -0.0846
18750TIP3    H177741   5.187   5.296  16.765 -0.2951  0.7178  1.5871
18750TIP3    H277742   5.321   5.293  16.695 -1.5112  0.0753 -0.8328
18751TIP3   OH277743   2.911   0.931  16.607 -0.2395 -0.0760  0.0430
18751TIP3    H177744   2.895   0.931  16.513 -2.3609 -0.6826  0.3694
18751TIP3    H277745   2.907   1.024  16.632  0.0049  0.0559 -0.3998
18752TIP3   OH277746   2.650   6.797   0.715 -0.5569 -0.5135  0.4702
18752TIP3    H177747   2.728   6.743   0.707 -0.0849  0.4205 -2.3300
18752TIP3    H277748   2.628   6.794   0.808  0.7768 -3.5579  0.8082
18753TIP3   OH277749   0.666   5.728  13.973 -0.2607 -0.2063 -0.4080
18753TIP3    H177750   0.645   5.803  13.917  0.1984  0.6890  0.6031
18753TIP3    H277751   0.746   5.753  14.019 -1.4340 -0.2921  1.7835
18754TIP3   OH277752   1.141   4.744   5.010  0.3101 -0.0375  0.1585
18754TIP3    H177753   1.228   4.709   5.029 -0.5387 -2.5974 -0.3242
18754TIP3    H277754   1.133   4.739   4.915 -0.8772 -1.2425  0.2927
18755TIP3   OH277755   6.477   5.739  12.235  0.4380  0.0146  0.2152
18755TIP3    H177756   6.424   5.712  12.160 -0.1663  1.3460  0.1269
18755TIP3    H277757   6.517   5.822  12.208  1.1096 -0.0522  0.9603
18756TIP3   OH277758   6.205   2.399   0.369 -0.1157 -0.3620 -0.5197
18756TIP3    H177759   6.182   2.321   0.318 -0.0135 -0.9926  0.3517
18756TIP3    H277760   6.280   2.371   0.422 -0.0149  0.3683 -0.2651
18757TIP3   OH277761   6.255   5.784   1.357 -0.0272  0.0316 -0.2000
18757TIP3    H177762   6.349   5.800   1.360  0.3876 -1.8626 -1.3422
18757TIP3    H277763   6.226   5.792   1.447  1.6029 -1.1745  0.4855
18758TIP3   OH277764   0.983   0.391  12.884  0.3988  0.0959 -0.4116
18758TIP3    H177765   0.985   0.352  12.797 -3.5030 -0.6898 -0.3438
18758TIP3    H277766   1.068   0.370  12.922  0.8185 -2.9161 -2.6456
18759TIP3   OH277767   0.185   5.573  15.068  0.0771  0.3106 -0.2617
18759TIP3    H177768   0.229   5.494  15.036 -2.2535 -1.6776  1.0445
18759TIP3    H277769   0.191   5.635  14.996 -0.4645 -2.1193 -2.5498
18760TIP3   OH277770   4.323   0.763   6.062  0.2320 -0.0096  0.1469
18760TIP3    H177771   4.242   0.797   6.024 -0.4197  0.5689  1.9535
18760TIP3    H277772   4.311   0.668   6.065 -0.2039  0.0420  0.0693
18761TIP3   OH277773   4.995   5.564   3.794  0.1159  0.5152 -0.6747
18761TIP3    H177774   5.048   5.638   3.765  1.4131 -0.5287 -1.0595
18761TIP3    H277775   4.999   5.567   3.889  1.0065  0.3709 -0.7007
18762TIP3   OH277776   2.358   1.919  13.338  0.5228 -0.5577 -0.0428
18762TIP3    H177777   2.379   1.994  13.281 -0.3491 -0.7433 -0.6250
18762TIP3    H277778   2.338   1.848  13.277  0.4129 -1.0026  0.5076
18763TIP3   OH277779   0.126   2.578  10.841  0.6395 -0.0317  0.3302
18763TIP3    H177780   0.051   2.555  10.786  0.1751 -0.1555  1.0025
18763TIP3    H277781   0.152   2.495  10.881  1.7536 -0.1805 -0.6242
18764TIP3   OH277782   4.658   3.220  11.515  0.2705  0.6355 -0.5460
18764TIP3    H177783   4.722   3.267  11.461  0.2552  0.4628 -0.7157
18764TIP3    H277784   4.599   3.179  11.452  0.1077  0.6350 -0.3926
18765TIP3   OH277785   6.618   2.414  17.231  0.0227  0.2113  0.0667
18765TIP3    H177786   6.561   2.427  17.307  0.4315  0.7668  0.2925
18765TIP3    H277787   6.702   2.453  17.258  0.4561 -0.4515 -0.3115
18766TIP3   OH277788   4.165   1.125  17.227  0.4056  0.0433 -0.2955
18766TIP3    H177789   4.240   1.163  17.272  0.8578 -1.1957  0.0259
18766TIP3    H277790   4.117   1.078  17.295  0.7218 -1.2830 -0.9505
18767TIP3   OH277791   4.755   3.942  17.113 -0.8914  0.2189  0.1185
18767TIP3    H177792   4.767   3.881  17.040 -1.2183 -0.5657  0.7122
18767TIP3    H277793   4.823   4.009  17.099 -1.3809  0.4559 -1.2742
18768TIP3   OH277794   2.012   5.799   5.424  0.5473  0.3603  0.2516
18768TIP3    H177795   2.081   5.839   5.477  1.0643  0.1201 -0.2288
18768TIP3    H277796   2.000   5.713   5.462  2.2736 -0.5774 -1.1356
18769TIP3   OH277797   0.524   1.215  13.784 -0.8094  0.1621  0.0162
18769TIP3    H177798   0.461   1.151  13.752  0.6457 -1.9642  1.0839
18769TIP3    H277799   0.531   1.280  13.714 -2.1617 -1.0140 -1.2780
18770TIP3   OH277800   1.750   4.144  15.850  0.6661 -0.0183  0.5889
18770TIP3    H177801   1.773   4.096  15.770  0.4462  1.7887 -0.5998
18770TIP3    H277802   1.830   4.191  15.873  0.8338 -0.7878  1.6660
18771TIP3   OH277803   0.373   3.150  16.693 -0.0284 -0.2485  0.0485
18771TIP3    H177804   0.432   3.101  16.750  1.3112 -1.0225 -1.8947
18771TIP3    H277805   0.293   3.160  16.745  0.8868 -1.4538  1.7973
18772TIP3   OH277806   2.200   1.680   1.905  0.2262  0.2879 -0.6241
18772TIP3    H177807   2.173   1.769   1.929  0.0625 -0.1572  0.9752
18772TIP3    H277808   2.280   1.666   1.954  0.2169 -0.4761 -0.8235
18773TIP3   OH277809   2.176   3.819   0.613 -0.2591 -0.0530  0.2199
18773TIP3    H177810   2.185   3.908   0.580 -0.1493 -0.6636 -1.5076
18773TIP3    H277811   2.256   3.805   0.665  0.9286  0.0846 -1.4776
18774TIP3   OH277812   1.137   2.955   2.232  0.5904  0.2355 -0.1116
18774TIP3    H177813   1.181   2.967   2.316 -0.7157  1.6031  0.4398
18774TIP3    H277814   1.084   3.035   2.221  0.7182  0.0955 -2.2320
18775TIP3   OH277815   0.186   4.591   2.272  0.3585  0.0365 -0.0446
18775TIP3    H177816   0.222   4.532   2.205 -0.7529 -0.8509  0.1286
18775TIP3    H277817   0.247   4.583   2.345 -0.6737 -2.2417  0.6387
18776TIP3   OH277818   1.051   3.106   1.529  0.3954  0.5003  0.1901
18776TIP3    H177819   0.980   3.043   1.543 -0.4038  1.3387  0.0104
18776TIP3    H277820   1.122   3.075   1.585 -0.2662 -0.1156  0.7022
18777TIP3   OH277821   4.138   3.563  16.457  0.1182  0.8219 -0.1634
18777TIP3    H177822   4.175   3.576  16.369 -0.3707  0.9201 -0.3617
18777TIP3    H277823   4.043   3.564  16.443  0.0331 -0.7910  0.1390
18778TIP3   OH277824   1.854   2.429  11.590  0.6449  0.2292  0.1407
18778TIP3    H177825   1.907   2.485  11.647 -0.0424  0.1496  0.8744
18778TIP3    H277826   1.786   2.488  11.557 -0.1979 -0.2024  1.0700
18779TIP3   OH277827   3.817   3.342  14.258  0.2957 -0.2983  0.5173
18779TIP3    H177828   3.770   3.391  14.192 -0.9599  0.3680  1.8562
18779TIP3    H277829   3.887   3.401  14.287  3.2135 -1.8771 -2.6366
18780TIP3   OH277830   0.662   1.558  12.052 -0.0474 -0.0954 -0.1942
18780TIP3    H177831   0.570   1.531  12.057  0.0136 -0.0923  1.7490
18780TIP3    H277832   0.659   1.654  12.050 -0.0888 -0.1043 -0.7727
18781TIP3   OH277833   5.305   3.535   1.791  0.4987  0.6308 -0.0826
18781TIP3    H177834   5.230   3.481   1.815  1.4230 -0.5878  0.1543
18781TIP3    H277835   5.283   3.569   1.704 -0.0857 -0.1649 -0.2576
18782TIP3   OH277836   3.892   3.966   1.183 -0.2438  0.8281  0.8339
18782TIP3    H177837   3.832   3.923   1.244  0.2379 -0.3882  0.4689
18782TIP3    H277838   3.977   3.926   1.200 -0.0077  0.8206 -0.3001
18783TIP3   OH277839   2.149   0.048   2.458  0.0229 -0.2408 -0.1830
18783TIP3    H177840   2.074   0.070   2.403 -0.0196 -0.5794 -0.2656
18783TIP3    H277841   2.193   0.131   2.473  0.6018 -0.2574 -1.5740
18784TIP3   OH277842   5.192   5.925  16.150 -0.6708  0.5543 -0.0492
18784TIP3    H177843   5.134   5.996  16.178 -0.7130  1.1333 -1.5336
18784TIP3    H277844   5.138   5.874  16.089 -0.4193 -0.3757  0.4881
18785TIP3   OH277845   3.104   0.081  13.665 -0.2597  0.4815  0.1765
18785TIP3    H177846   3.167   0.062  13.735 -0.3361  0.5554  0.2652
18785TIP3    H277847   3.145   0.151  13.614  0.4446 -0.5217 -0.6892
18786TIP3   OH277848   3.697   1.795   4.674 -0.5830 -0.3410 -0.4397
18786TIP3    H177849   3.637   1.797   4.599 -0.0573 -1.2570 -0.9019
18786TIP3    H277850   3.754   1.871   4.661 -0.4304 -0.5478 -1.0336
18787TIP3   OH277851   6.081   1.356  15.480  0.1476  0.1306 -0.2719
18787TIP3    H177852   6.011   1.372  15.416 -0.6442 -1.8104  0.0270
18787TIP3    H277853   6.104   1.264  15.468 -0.4890 -0.5111  2.6291
18788TIP3   OH277854   1.673   4.960  15.413 -0.5015 -0.1279 -0.6890
18788TIP3    H177855   1.635   4.872  15.416  2.3890 -1.5662 -1.8405
18788TIP3    H277856   1.692   4.981  15.505  1.2857 -2.0039 -0.5541
18789TIP3   OH277857   4.807   4.805  11.838  0.1117 -0.2309  0.2306
18789TIP3    H177858   4.812   4.823  11.932 -3.0223 -0.2632  0.5054
18789TIP3    H277859   4.834   4.888  11.797 -0.2754  0.4099  1.2226
18790TIP3   OH277860   4.721   3.515   0.102 -0.1295 -0.2264  0.1140
18790TIP3    H177861   4.636   3.473   0.089 -0.4180  0.2596  0.4014
18790TIP3    H277862   4.740   3.557   0.018  0.0869 -0.7987 -0.1240
18791TIP3   OH277863   4.280   1.393   5.167  0.3709  0.1292 -0.8737
18791TIP3    H177864   4.224   1.436   5.102  0.5597 -0.1727 -1.2428
18791TIP3    H277865   4.218   1.348   5.225  0.1868  0.6616 -0.6504
18792TIP3   OH277866   6.518   5.274  11.679 -0.1156 -0.2436 -0.0652
18792TIP3    H177867   6.597   5.312  11.718  0.3875 -1.0356 -0.2893
18792TIP3    H277868   6.544   5.185  11.654 -0.6846 -0.0627 -1.3825
18793TIP3   OH277869   5.903   3.857   5.464 -0.5638 -0.0287 -0.3530
18793TIP3    H177870   5.894   3.843   5.370 -2.8623  0.4695 -0.2801
18793TIP3    H277871   5.960   3.934   5.472  0.6021 -0.7657 -1.2549
18794TIP3   OH277872   3.142   5.416  11.146  0.6530  0.4452 -0.5890
18794TIP3    H177873   3.118   5.410  11.054  1.4409  1.9998 -0.9252
18794TIP3    H277874   3.225   5.370  11.153 -0.0998 -0.9194 -0.3451
18795TIP3   OH277875   4.641   4.075   0.227  0.0655 -0.0619  0.1771
18795TIP3    H177876   4.692   4.155   0.217  0.3460 -0.3305 -0.6071
18795TIP3    H277877   4.571   4.099   0.288 -0.3883  1.0328 -0.7359
18796TIP3   OH277878   0.094   6.802  11.321 -0.6407 -0.2588  0.0074
18796TIP3    H177879   0.125   6.719  11.285  0.7628 -0.3337  1.2770
18796TIP3    H277880   0.072   6.782  11.413 -0.0952  0.8010  0.3872
18797TIP3   OH277881   0.785   0.779  14.370 -0.5942 -0.3396  0.4923
18797TIP3    H177882   0.849   0.807  14.305 -0.7907  0.1903  0.5250
18797TIP3    H277883   0.759   0.691  14.341 -0.7336 -0.0820 -0.1854
18798TIP3   OH277884   5.476   0.161   1.539 -0.4852 -0.0540 -0.1492
18798TIP3    H177885   5.530   0.121   1.607  0.0781 -1.1193 -1.1784
18798TIP3    H277886   5.397   0.190   1.584 -0.4674 -1.4356  0.8138
18799TIP3   OH277887   5.200   1.135   4.998 -0.0413 -0.1084 -0.4238
18799TIP3    H177888   5.261   1.084   5.051  0.0229 -1.0311 -1.3548
18799TIP3    H277889   5.255   1.198   4.951 -0.1444  0.9950  0.8867
18800TIP3   OH277890   4.979   2.618  14.810  0.0561 -0.2906  0.0570
18800TIP3    H177891   5.020   2.532  14.795 -0.9019 -0.6227 -0.7808
18800TIP3    H277892   5.049   2.671  14.848  0.9685 -1.1342 -0.3882
18801TIP3   OH277893   5.716   1.796   3.211 -0.4321 -0.3261  0.0688
18801TIP3    H177894   5.741   1.888   3.198 -1.7877  0.3683  1.9351
18801TIP3    H277895   5.657   1.798   3.286  0.9056 -2.9649  1.3089
18802TIP3   OH277896   4.044   1.840   4.032 -0.3144 -0.6560  0.5532
18802TIP3    H177897   4.106   1.865   4.100  0.9895 -2.4831  0.1150
18802TIP3    H277898   3.969   1.804   4.081  0.1415 -0.9319  1.0611
18803TIP3   OH277899   4.551   1.879  11.558  0.4889 -0.3816  0.0839
18803TIP3    H177900   4.584   1.847  11.642  1.3967 -1.3383 -0.6041
18803TIP3    H277901   4.587   1.817  11.494 -0.2508  0.2852 -0.9976
18804TIP3   OH277902   3.110   6.282  13.480  0.0707 -0.0633  0.5182
18804TIP3    H177903   3.041   6.309  13.540  1.2112  2.3626  0.8508
18804TIP3    H277904   3.089   6.327  13.398 -0.2989 -1.6503 -0.2903
18805TIP3   OH277905   0.737   5.073  11.934 -0.3363 -0.5422  0.2617
18805TIP3    H177906   0.703   5.140  11.875 -2.1422 -1.4341  0.2448
18805TIP3    H277907   0.807   5.030  11.884 -0.1257  0.3575 -0.2468
18806TIP3   OH277908   4.810   3.684  13.805 -0.5310 -0.1197  0.0066
18806TIP3    H177909   4.754   3.731  13.744 -0.4298  0.1565  0.1255
18806TIP3    H277910   4.838   3.606  13.757 -2.1881 -1.0272  0.4512
18807TIP3   OH277911   1.683   3.720   5.242 -0.1373 -0.0910  0.0249
18807TIP3    H177912   1.761   3.711   5.297  0.1453  1.4921 -0.0710
18807TIP3    H277913   1.622   3.655   5.276  0.7510 -0.4610  0.9547
18808TIP3   OH277914   1.972   3.844  15.199 -0.0447  0.6522 -0.0725
18808TIP3    H177915   2.018   3.891  15.269 -2.3691  1.6731  0.8648
18808TIP3    H277916   2.020   3.762  15.190  1.3344  1.2139  1.5428
18809TIP3   OH277917   5.586   3.240  12.959 -0.5541  0.1062 -0.5116
18809TIP3    H177918   5.643   3.316  12.971 -2.1780  1.3003  0.0146
18809TIP3    H277919   5.612   3.204  12.874  0.3977  1.0944 -0.6626
18810TIP3   OH277920   2.392   5.432   2.983  0.4955 -0.0584 -0.7372
18810TIP3    H177921   2.454   5.465   2.918  1.9576  2.3047  1.6307
18810TIP3    H277922   2.340   5.509   3.008 -1.5561 -1.3941 -0.6577
18811TIP3   OH277923   0.200   3.740  12.780 -0.0610 -0.1444 -0.1574
18811TIP3    H177924   0.142   3.685  12.727 -0.9522  0.9693 -0.3747
18811TIP3    H277925   0.192   3.706  12.869 -0.2498 -0.6383 -0.3622
18812TIP3   OH277926   2.414   3.179  11.774 -0.6810 -0.1958 -0.4422
18812TIP3    H177927   2.471   3.247  11.737 -2.1665  1.0263 -0.5939
18812TIP3    H277928   2.421   3.105  11.714  0.6220 -0.0257 -0.5237
18813TIP3   OH277929   1.560   1.802   1.995 -0.4100  0.4779  0.0545
18813TIP3    H177930   1.532   1.711   1.988  0.5946  0.2202 -1.0053
18813TIP3    H277931   1.536   1.840   1.910  0.4503  0.8092 -0.0485
18814TIP3   OH277932   5.865   6.428  12.314  0.2632  0.3702  0.0265
18814TIP3    H177933   5.846   6.374  12.237  2.3179  0.5186 -0.6539
18814TIP3    H277934   5.798   6.497  12.313 -0.2715 -0.1448 -1.1142
18815TIP3   OH277935   3.453   0.917   4.879  0.3562 -1.0483  0.2791
18815TIP3    H177936   3.367   0.926   4.838 -0.1011 -0.5400  1.2937
18815TIP3    H277937   3.476   1.007   4.906  0.7331 -1.3283  0.9209
18816TIP3   OH277938   1.627   4.971   1.277 -0.2658 -0.0195  0.2298
18816TIP3    H177939   1.606   5.056   1.237  2.1204 -0.1635 -1.5459
18816TIP3    H277940   1.545   4.921   1.271 -1.1279  1.4229 -0.6579
18817TIP3   OH277941   1.532   1.054   6.114 -0.6489 -0.2136 -0.4687
18817TIP3    H177942   1.585   0.975   6.122 -0.3227  0.0665  0.1703
18817TIP3    H277943   1.465   1.045   6.181  0.4983  0.8988  0.8875
18818TIP3   OH277944   4.580   2.950   6.695  0.3063 -0.1245  0.3089
18818TIP3    H177945   4.587   2.896   6.617  1.6633 -0.8672  0.9027
18818TIP3    H277946   4.507   3.010   6.677 -0.7038 -1.6009 -0.6878
18819TIP3   OH277947   4.391   0.724  12.616 -0.0698 -0.2134 -0.0983
18819TIP3    H177948   4.437   0.666  12.555  1.5048  2.0879 -1.2682
18819TIP3    H277949   4.422   0.697  12.702 -0.0841 -1.6791 -0.5352
18820TIP3   OH277950   5.741   0.069  13.879  0.5383 -0.1553 -0.2320
18820TIP3    H177951   5.772  -0.002  13.936 -0.5237 -0.9740 -0.6430
18820TIP3    H277952   5.665   0.032  13.834  0.7466  0.8222 -1.4288
18821TIP3   OH277953   4.866   6.462   5.138  0.0896 -0.0877  0.4775
18821TIP3    H177954   4.859   6.368   5.124 -2.8608  0.0907  0.1472
18821TIP3    H277955   4.843   6.501   5.054  0.1651  0.9306  0.9153
18822TIP3   OH277956   2.032   4.272  11.288 -0.2557  0.1421 -0.4806
18822TIP3    H177957   1.940   4.272  11.314  0.4050  0.8931  2.0915
18822TIP3    H277958   2.032   4.229  11.202 -3.0509  0.6589 -0.8393
18823TIP3   OH277959   0.676   2.942  13.535  0.5578 -0.2123 -0.4813
18823TIP3    H177960   0.692   2.904  13.621  1.8664  1.6802  0.1586
18823TIP3    H277961   0.713   3.029  13.539 -0.5428  0.4344 -2.5543
18824TIP3   OH277962   0.308   4.697   3.643  0.0476  0.2442  0.4201
18824TIP3    H177963   0.249   4.641   3.694 -0.5861  1.3866  0.9851
18824TIP3    H277964   0.349   4.637   3.581 -1.8131 -0.5983 -0.0942
18825TIP3   OH277965   5.225   4.536  16.626 -0.4429  0.8502 -0.4642
18825TIP3    H177966   5.156   4.505  16.686 -0.4583 -0.1694 -0.9830
18825TIP3    H277967   5.180   4.593  16.564 -0.6970  0.7286 -0.3923
18826TIP3   OH277968   3.827   6.659   5.670 -0.2932 -0.5111 -0.7059
18826TIP3    H177969   3.840   6.720   5.743 -3.1101 -0.9092  0.2269
18826TIP3    H277970   3.863   6.576   5.700  0.0624 -0.2584 -0.4331
18827TIP3   OH277971   6.486   2.434   4.645 -0.2342 -0.2835 -0.7361
18827TIP3    H177972   6.576   2.423   4.614 -0.2197  0.2300 -0.8921
18827TIP3    H277973   6.487   2.400   4.734  0.2848  0.3304 -0.4937
18828TIP3   OH277974   4.361   0.038  15.318  0.2097 -0.6497  0.0761
18828TIP3    H177975   4.444   0.005  15.284  0.9086 -0.7506  1.8200
18828TIP3    H277976   4.298  -0.033  15.300  0.4681 -0.5869 -1.2121
18829TIP3   OH277977   4.376   4.519  14.388 -0.1141  0.6709  0.1450
18829TIP3    H177978   4.453   4.469  14.412  0.0473 -0.0196 -1.6236
18829TIP3    H277979   4.363   4.581  14.460  0.6015 -0.8534  1.6350
18830TIP3   OH277980   3.684   3.241  14.843  0.3154  0.0847 -0.5649
18830TIP3    H177981   3.741   3.213  14.914 -0.2111  0.0012 -0.1728
18830TIP3    H277982   3.699   3.335  14.834 -0.2029  0.2465  0.1936
18831TIP3   OH277983   1.663   4.911  13.340 -0.5755 -0.0005  0.5544
18831TIP3    H177984   1.688   4.895  13.249  0.8699 -0.2239  0.9588
18831TIP3    H277985   1.641   4.824  13.374 -0.2765 -0.0464  0.6379
18832TIP3   OH277986   2.065   4.166  16.079  0.0684  0.3945  0.0159
18832TIP3    H177987   2.110   4.250  16.073  0.3739  0.1359 -2.0855
18832TIP3    H277988   2.051   4.152  16.173 -1.1100  3.3609  0.3649
18833TIP3   OH277989   4.823   5.335  11.787  0.3573  0.1867  0.1465
18833TIP3    H177990   4.819   5.417  11.834  0.9884  0.1505  0.2673
18833TIP3    H277991   4.763   5.347  11.712  0.0400  0.5533  0.4563
18834TIP3   OH277992   2.318   2.319  14.996  0.2990 -0.0127  0.0374
18834TIP3    H177993   2.310   2.230  15.031  2.0259  0.0629  0.7334
18834TIP3    H277994   2.252   2.369  15.043 -0.5251 -0.8700 -0.1827
18835TIP3   OH277995   1.877   2.576  16.063 -0.0620  0.1031  0.1813
18835TIP3    H177996   1.821   2.602  16.136 -1.5914 -1.8127 -0.2219
18835TIP3    H277997   1.941   2.517  16.103  1.7439  2.2275  0.6269
18836TIP3   OH277998   1.053   2.237   5.513  0.9064 -0.1068  0.1870
18836TIP3    H177999   0.978   2.282   5.473  0.4954 -1.1408 -0.2678
18836TIP3    H278000   1.063   2.157   5.461  0.7247 -1.2279  1.7928
18837TIP3   OH278001   1.361   4.193  14.965 -0.2351  0.1371 -0.9513
18837TIP3    H178002   1.316   4.268  14.926 -1.5004 -0.6881 -1.1520
18837TIP3    H278003   1.392   4.225  15.049  0.2973  1.2170 -1.5408
18838TIP3   OH278004   0.302   4.477   4.242  0.0844 -0.2929  0.5146
18838TIP3    H178005   0.381   4.525   4.270  1.7885 -2.2363 -0.6520
18838TIP3    H278006   0.336   4.397   4.202 -2.5152 -1.0313 -0.4003
18839TIP3   OH278007   1.435   0.261  16.466 -1.1730 -0.1317 -0.6587
18839TIP3    H178008   1.442   0.288  16.375  0.0168 -0.4781 -0.6836
18839TIP3    H278009   1.341   0.249  16.480 -1.3837  0.0704 -1.7841
18840TIP3   OH278010   3.992   3.364   6.036 -0.2217  0.7446 -0.2809
18840TIP3    H178011   3.950   3.410   5.963  0.7765  2.2647  0.0638
18840TIP3    H278012   4.078   3.338   6.003  0.4990  2.0148  0.5142
18841TIP3   OH278013   4.478   0.475  16.248  0.5672 -0.1872  0.5617
18841TIP3    H178014   4.571   0.476  16.269  0.5587 -1.0561  0.6719
18841TIP3    H278015   4.455   0.567  16.239  1.8857  0.0201 -1.4589
18842TIP3   OH278016   2.054   1.214  16.408  0.2156  0.0312  0.3710
18842TIP3    H178017   2.111   1.240  16.335  1.1905  0.5599  1.2902
18842TIP3    H278018   2.017   1.297  16.440 -1.1337 -0.3102 -0.2411
18843TIP3   OH278019   3.374   6.287   5.536  0.7474 -0.5982  0.5080
18843TIP3    H178020   3.350   6.295   5.443  0.2868 -0.0458  0.6677
18843TIP3    H278021   3.468   6.300   5.538  0.7447 -0.4986  0.1273
18844TIP3   OH278022   2.992   4.007  13.807  0.3044  0.0862 -0.2637
18844TIP3    H178023   2.900   4.031  13.798  0.3678  0.1557 -0.7230
18844TIP3    H278024   3.009   4.014  13.901 -0.5683 -1.4418  0.0487
18845TIP3   OH278025   3.049   5.550   2.155 -0.8993  0.2708  0.3408
18845TIP3    H178026   3.135   5.515   2.129 -0.6089  1.6704 -0.6944
18845TIP3    H278027   3.004   5.566   2.072 -1.2549  1.7147  0.7887
18846TIP3   OH278028   5.852   5.598  17.086  0.0574  0.1781  0.2938
18846TIP3    H178029   5.805   5.583  17.004 -1.2519 -1.5059  1.2913
18846TIP3    H278030   5.931   5.645  17.060 -1.3397  1.6075 -1.6567
18847TIP3   OH278031   6.818   1.438  11.477 -0.6997  0.2143  0.0909
18847TIP3    H178032   6.767   1.468  11.402 -1.4227  0.1494  0.5455
18847TIP3    H278033   6.813   1.509  11.541 -0.7869 -0.0672  0.4039
18848TIP3   OH278034   0.950   0.149   2.585 -0.3376 -0.2386 -0.3908
18848TIP3    H178035   0.958   0.134   2.680 -1.9726 -3.2146 -0.5951
18848TIP3    H278036   0.968   0.064   2.546 -1.1956  0.5541 -2.6576
18849TIP3   OH278037   6.126   4.688   1.764  0.0538  0.0358 -0.4415
18849TIP3    H178038   6.180   4.696   1.843  1.6413  1.9752 -1.6260
18849TIP3    H278039   6.045   4.733   1.786 -0.6788 -1.8575  0.9593
18850TIP3   OH278040   6.111   1.542   0.474 -0.2097 -0.0797  0.3137
18850TIP3    H178041   6.137   1.623   0.518  0.1517 -0.4027  0.6987
18850TIP3    H278042   6.193   1.506   0.439 -0.0194 -1.3637  1.9551
18851TIP3   OH278043   2.269   5.777   1.034 -0.1551  0.3063 -0.5446
18851TIP3    H178044   2.293   5.706   0.974 -1.5926 -0.3995 -0.3127
18851TIP3    H278045   2.293   5.744   1.121  2.0517  1.3809 -0.6737
18852TIP3   OH278046   0.011   5.751  15.336 -0.3842  0.0413 -0.6348
18852TIP3    H178047   0.013   5.655  15.328  1.3355  0.0069 -0.3259
18852TIP3    H278048   0.029   5.783  15.248  0.0129  0.0556 -0.5494
18853TIP3   OH278049   4.760   2.219  14.893  0.2772  0.5822 -0.2562
18853TIP3    H178050   4.850   2.251  14.893  0.2046  0.8968  1.2558
18853TIP3    H278051   4.714   2.277  14.832  1.1180  0.2891 -1.1982
18854TIP3   OH278052   0.483   2.802   3.690  0.2136 -0.4207 -0.1965
18854TIP3    H178053   0.477   2.712   3.659  1.2005 -1.1084  1.4966
18854TIP3    H278054   0.392   2.828   3.706 -0.3319 -0.1188 -3.2226
18855TIP3   OH278055   2.885   6.504  14.406  0.2816  0.1742  0.1032
18855TIP3    H178056   2.905   6.469  14.493 -1.1506  1.1745  0.8908
18855TIP3    H278057   2.802   6.463  14.382  0.5626  0.0619 -0.7155
18856TIP3   OH278058   2.628   3.205   0.925  0.1068  0.4810  0.0118
18856TIP3    H178059   2.605   3.141   0.857 -1.0254  0.6111  0.2539
18856TIP3    H278060   2.645   3.152   1.003  0.1237  0.4088 -0.0407
18857TIP3   OH278061   2.285   4.786  15.458  0.0133 -0.5485 -0.1225
18857TIP3    H178062   2.215   4.833  15.412  1.1909  1.2289 -0.1959
18857TIP3    H278063   2.340   4.751  15.388  2.2706  2.8535 -0.2999
18858TIP3   OH278064   5.115   2.410  16.438 -0.2333 -0.7682  0.0046
18858TIP3    H178065   5.025   2.378  16.433 -0.3672 -0.2103 -2.2086
18858TIP3    H278066   5.164   2.353  16.379 -0.1387  1.7835 -2.6174
18859TIP3   OH278067   5.996   1.875  17.015  0.3052  0.2413  0.0142
18859TIP3    H178068   5.996   1.780  17.019 -0.2670  0.2722  1.2553
18859TIP3    H278069   6.074   1.902  17.064  1.1403  0.4039 -1.3651
18860TIP3   OH278070   6.631   0.975   4.589  0.0769 -0.8000  0.6058
18860TIP3    H178071   6.543   0.990   4.554 -0.2074 -1.8335  0.8489
18860TIP3    H278072   6.662   0.896   4.545  1.4319  0.2722 -0.4717
18861TIP3   OH278073   4.611   5.591  13.243 -0.0575  0.1665  0.7244
18861TIP3    H178074   4.634   5.498  13.247 -2.2797 -0.3946  2.4782
18861TIP3    H278075   4.630   5.624  13.331  0.0390  1.2239  0.3259
18862TIP3   OH278076   3.956   6.548   5.132 -0.0134  0.4686 -0.1442
18862TIP3    H178077   3.860   6.538   5.127  0.1262 -2.2915  0.6865
18862TIP3    H278078   3.989   6.500   5.056  0.7293 -0.3077  0.6438
18863TIP3   OH278079   2.165   6.535  14.095  0.1379  0.0010 -0.2506
18863TIP3    H178080   2.081   6.498  14.070  0.2577  0.3677 -1.2313
18863TIP3    H278081   2.153   6.630  14.088  0.5072  0.0700  0.0174
18864TIP3   OH278082   4.887   1.666  11.137  0.0251  0.6640 -0.1881
18864TIP3    H178083   4.948   1.611  11.186  0.7366  1.2372 -0.4016
18864TIP3    H278084   4.938   1.745  11.116 -0.1576  0.3317 -2.0826
18865TIP3   OH278085   4.481   1.312  12.618  0.3617  0.0967 -0.2880
18865TIP3    H178086   4.436   1.317  12.534 -0.0237 -1.8507 -0.2489
18865TIP3    H278087   4.543   1.239  12.608 -1.0908 -1.5510  1.6924
18866TIP3   OH278088   2.652   2.360   2.270  0.7376 -0.1179  0.0913
18866TIP3    H178089   2.651   2.271   2.235 -0.0672 -0.2095  0.3238
18866TIP3    H278090   2.613   2.413   2.201  1.4671  0.1043 -0.1566
18867TIP3   OH278091   5.147   0.709   2.315  0.2776  0.0064 -0.4147
18867TIP3    H178092   5.163   0.640   2.251 -3.9063 -0.4225 -1.2675
18867TIP3    H278093   5.174   0.671   2.399 -1.3676 -2.5403 -0.9319
18868TIP3   OH278094   6.771   0.603  14.987 -0.5273  0.5627 -0.3093
18868TIP3    H178095   6.781   0.688  14.946  1.9491 -0.6162 -2.5040
18868TIP3    H278096   6.745   0.622  15.077 -0.1517  3.6009 -0.7475
18869TIP3   OH278097   0.316   4.977   2.881  0.0034  0.1221 -0.1333
18869TIP3    H178098   0.297   4.885   2.898  0.6706  0.3643  2.2648
18869TIP3    H278099   0.243   5.024   2.923  1.0633  0.7367  1.0809
18870TIP3   OH278100   5.541   1.885  11.577  0.0050 -0.3332  0.2442
18870TIP3    H178101   5.580   1.888  11.664 -1.0238  0.8914  0.6952
18870TIP3    H278102   5.603   1.835  11.524  1.0811 -0.3199  1.4563
18871TIP3   OH278103   5.724   1.379   1.061  0.6697  0.2501 -0.0308
18871TIP3    H178104   5.710   1.470   1.087 -0.6321  0.1351 -0.2654
18871TIP3    H278105   5.698   1.328   1.138  3.1552  0.0841  0.7955
18872TIP3   OH278106   4.555   1.519   2.261 -0.1959 -0.0407  0.5395
18872TIP3    H178107   4.528   1.555   2.346 -0.8789 -1.8653  1.1417
18872TIP3    H278108   4.602   1.438   2.283 -0.2818 -0.4805 -0.8242
18873TIP3   OH278109   1.788   5.648  16.849  0.0927  0.0537  0.2104
18873TIP3    H178110   1.849   5.596  16.797 -1.2080  0.0720 -1.4233
18873TIP3    H278111   1.813   5.739  16.831 -0.7537  0.0818 -0.9734
18874TIP3   OH278112   6.169   2.973   3.344 -0.2431  0.0814 -0.8603
18874TIP3    H178113   6.253   2.978   3.299  0.0633  1.3302 -0.1948
18874TIP3    H278114   6.147   3.064   3.364 -1.2263 -0.3109 -0.0664
18875TIP3   OH278115   3.684   5.674   1.475  0.4460 -0.4459 -0.2895
18875TIP3    H178116   3.660   5.613   1.405  0.8858 -0.9642  0.0129
18875TIP3    H278117   3.641   5.639   1.553  2.7398 -1.8221  0.4302
18876TIP3   OH278118   3.026   1.100  13.609 -0.3522  0.0242 -0.2934
18876TIP3    H178119   2.984   1.117  13.524 -0.0950 -0.9782 -0.6264
18876TIP3    H278120   2.954   1.082  13.668 -0.7400  2.9458  0.2990
18877TIP3   OH278121   5.902   0.107  10.459  0.3441  0.1025 -0.0546
18877TIP3    H178122   5.886   0.016  10.435 -1.1352  0.0308  1.0421
18877TIP3    H278123   5.918   0.104  10.554 -2.3547  1.2058  0.5199
18878TIP3   OH278124   4.995   1.935  15.206  0.1964  0.3822 -0.1867
18878TIP3    H178125   5.003   2.028  15.182  0.0647  0.7143  1.0249
18878TIP3    H278126   4.985   1.935  15.301  1.8908 -0.9637  0.0531
18879TIP3   OH278127   6.209   6.798   4.195  0.4720 -0.1405  0.8781
18879TIP3    H178128   6.300   6.827   4.193  0.7577 -1.0113 -0.1498
18879TIP3    H278129   6.158   6.878   4.203  1.2755  0.5276 -0.4316
18880TIP3   OH278130   5.256   5.637   1.999  0.1149 -0.2153  0.1007
18880TIP3    H178131   5.302   5.556   2.022  1.5358  0.7328  0.7538
18880TIP3    H278132   5.196   5.612   1.928 -0.4351 -2.0930  1.1562
18881TIP3   OH278133   4.555   6.076  11.473 -0.3522  0.1579 -0.1811
18881TIP3    H178134   4.570   5.982  11.462  1.8564 -0.0694  3.2589
18881TIP3    H278135   4.481   6.081  11.534  1.7202  0.3472  2.5228
18882TIP3   OH278136   3.299   0.193  11.140 -0.1486 -0.3330 -0.4871
18882TIP3    H178137   3.209   0.224  11.147  0.0599  0.0820  0.3627
18882TIP3    H278138   3.304   0.121  11.203  0.5738  0.7367  0.7084
18883TIP3   OH278139   6.691   0.336  16.630 -0.1492 -0.4953  0.0942
18883TIP3    H178140   6.657   0.328  16.541  1.0613 -0.1372 -0.4127
18883TIP3    H278141   6.636   0.403  16.670 -1.1935 -1.1989 -0.1270
18884TIP3   OH278142   2.486   4.164  14.041 -0.2683 -0.2695 -0.4842
18884TIP3    H178143   2.523   4.251  14.027  1.5412 -1.0995 -1.1944
18884TIP3    H278144   2.400   4.167  14.000  0.3178  0.7933 -1.6853
18885TIP3   OH278145   0.777   4.192  14.554 -0.4671  0.1278  0.1608
18885TIP3    H178146   0.724   4.217  14.630 -1.3108  0.6278 -0.5681
18885TIP3    H278147   0.806   4.103  14.573 -0.5662  0.2887  1.1181
18886TIP3   OH278148   5.489   6.531   5.447 -0.0099 -0.1132  0.2806
18886TIP3    H178149   5.577   6.494   5.435  1.5650  3.4880 -0.6521
18886TIP3    H278150   5.460   6.553   5.358 -1.4185 -0.2441  0.6787
18887TIP3   OH278151   4.579   4.255  12.371  0.4630  0.4565 -0.0151
18887TIP3    H178152   4.668   4.274  12.401  0.7578 -1.2187  0.3048
18887TIP3    H278153   4.530   4.238  12.452 -0.1445  1.2913 -0.1941
18888TIP3   OH278154   3.044   3.409  16.697 -0.3018 -0.5360  0.1339
18888TIP3    H178155   3.131   3.442  16.671  0.4001 -2.2768  0.1566
18888TIP3    H278156   2.992   3.488  16.711  0.7253  0.5631 -1.7273
18889TIP3   OH278157   3.540   2.821  12.760 -0.5360  0.0934 -0.2200
18889TIP3    H178158   3.569   2.911  12.778  3.7790 -1.3307  1.1677
18889TIP3    H278159   3.536   2.779  12.846 -2.1060 -1.2281 -0.8785
18890TIP3   OH278160   5.790   2.813  15.022  0.7415 -0.7890  0.0291
18890TIP3    H178161   5.729   2.853  14.960  1.2722  0.0348  0.0195
18890TIP3    H278162   5.877   2.833  14.986  1.0395 -0.8112  0.7272
18891TIP3   OH278163   5.686   4.450  12.007  0.0320  0.2128  0.1710
18891TIP3    H178164   5.762   4.501  12.037 -0.5108  1.6494 -0.7715
18891TIP3    H278165   5.612   4.511  12.014 -2.2770 -2.4523  5.9287
18892TIP3   OH278166   5.146   6.260   2.479 -0.2116  0.2714 -0.5012
18892TIP3    H178167   5.194   6.188   2.520 -3.2289 -1.5332  0.1844
18892TIP3    H278168   5.160   6.247   2.385 -2.1012 -2.4855 -0.5396
18893TIP3   OH278169   4.657   1.946   3.415  0.2441  0.0967 -0.4240
18893TIP3    H178170   4.663   1.934   3.510  0.4311  0.7265 -0.3516
18893TIP3    H278171   4.689   2.035   3.400  0.1740  0.0168 -1.0748
18894TIP3   OH278172   1.424   6.733   0.138 -0.1021  0.0985 -0.3236
18894TIP3    H178173   1.499   6.790   0.156 -0.9146  1.0707  0.0840
18894TIP3    H278174   1.363   6.788   0.090 -0.8188 -0.4925 -0.1158
18895TIP3   OH278175   4.173   6.177   0.040 -0.2644  0.5505  0.3484
18895TIP3    H178176   4.117   6.253   0.056 -1.0140 -0.1083  0.9646
18895TIP3    H278177   4.112   6.104   0.029  0.4041  0.1736 -1.1556
18896TIP3   OH278178   5.048   1.216  12.006  0.4710  0.0712  0.3370
18896TIP3    H178179   5.099   1.207  12.087  2.7906 -1.7673 -1.1942
18896TIP3    H278180   5.021   1.127  11.985  0.0321  0.4957 -0.9801
18897TIP3   OH278181   3.661   6.801   4.825 -0.5941 -0.5557 -0.4420
18897TIP3    H178182   3.629   6.863   4.759 -3.2407 -0.3016  0.9356
18897TIP3    H278183   3.744   6.837   4.854 -1.1190  1.2910 -1.0841
18898TIP3   OH278184   1.008   1.600   1.119 -0.0833  0.0802  0.8028
18898TIP3    H178185   1.002   1.671   1.184  0.4202  2.6432 -1.7589
18898TIP3    H278186   1.093   1.559   1.136  0.4421  1.3031  1.2185
18899TIP3   OH278187   0.434   1.593   1.515 -0.2087 -0.1386  0.2382
18899TIP3    H178188   0.509   1.620   1.462 -1.5039  0.4258 -1.4004
18899TIP3    H278189   0.405   1.673   1.558  0.8639 -0.6040  1.9202
18900TIP3   OH278190   1.922   3.121  15.132 -0.2342 -0.2815 -0.1323
18900TIP3    H178191   1.934   3.078  15.217  0.2668  0.0135 -0.0456
18900TIP3    H278192   1.989   3.081  15.076  1.0086  1.1420  0.2491
18901TIP3   OH278193   4.219   1.282   0.227 -0.5868  0.3422 -0.3607
18901TIP3    H178194   4.152   1.214   0.229  0.1845 -0.4256  0.8357
18901TIP3    H278195   4.253   1.284   0.317  0.2545  1.4470 -0.6884
18902TIP3   OH278196   5.540   3.776   4.681  0.4191  0.2676 -0.6300
18902TIP3    H178197   5.575   3.826   4.755  2.3409  0.4393 -1.5932
18902TIP3    H278198   5.492   3.842   4.629  0.2069  0.4234 -0.2424
18903TIP3   OH278199   3.863   0.303  11.034 -0.3488 -0.0624 -0.6277
18903TIP3    H178200   3.819   0.383  11.066 -1.3349 -0.9430  0.2994
18903TIP3    H278201   3.804   0.232  11.058  0.0305 -1.0113 -2.3548
18904TIP3   OH278202   2.339   0.939  16.244  0.0107  0.2764 -0.0855
18904TIP3    H178203   2.392   1.013  16.213 -1.4260  1.9791  1.3127
18904TIP3    H278204   2.368   0.925  16.335 -2.2203  1.6272  0.9115
18905TIP3   OH278205   0.783   2.871   4.135 -0.6984 -0.2263 -0.4618
18905TIP3    H178206   0.850   2.939   4.125 -2.2566  1.3561 -0.6890
18905TIP3    H278207   0.714   2.896   4.074 -1.6362 -1.6433 -0.0347
18906TIP3   OH278208   0.475   0.421  14.915  0.3375 -0.1010  0.1200
18906TIP3    H178209   0.567   0.415  14.888  0.3633 -2.3690  0.5234
18906TIP3    H278210   0.435   0.342  14.881 -0.9775 -0.1813  1.7320
18907TIP3   OH278211   6.043   2.274  12.302  0.2323 -0.5335 -0.0648
18907TIP3    H178212   6.015   2.308  12.217 -1.8475 -1.3710  0.2211
18907TIP3    H278213   6.130   2.237  12.285  1.0807  1.7318 -1.1453
18908TIP3   OH278214   1.051   1.800   1.302  0.0813  0.0259 -0.3683
18908TIP3    H178215   1.056   1.885   1.258 -1.4976  0.8782  0.9754
18908TIP3    H278216   1.140   1.783   1.331  0.7450  0.4237 -2.0313
18909TIP3   OH278217   1.890   2.890   1.015  0.2984 -0.3057 -0.0718
18909TIP3    H178218   1.910   2.940   1.094 -0.0124 -1.1722  0.5719
18909TIP3    H278219   1.969   2.839   0.997 -0.3265 -1.6632  0.8912
18910TIP3   OH278220   4.878   4.277  16.075 -0.2709  0.0339 -0.5850
18910TIP3    H178221   4.856   4.337  16.146 -2.3503  0.4208 -1.4710
18910TIP3    H278222   4.920   4.203  16.118  0.1925  1.0565  0.8106
18911TIP3   OH278223   3.031   5.385  12.121 -0.1810 -0.2700 -0.2006
18911TIP3    H178224   2.994   5.405  12.207 -0.4316  0.4324 -0.4682
18911TIP3    H278225   3.099   5.319  12.139 -1.9202 -2.0382  0.2362
18912TIP3   OH278226   1.067   0.487  10.733 -0.8180 -0.6008  0.2773
18912TIP3    H178227   1.127   0.527  10.797  0.9444 -0.2968 -1.4636
18912TIP3    H278228   1.104   0.400  10.717 -0.9729 -0.5087 -0.6257
18913TIP3   OH278229   0.230   5.224  13.063 -0.3632  0.5669  0.6018
18913TIP3    H178230   0.317   5.246  13.030 -0.7284  1.3934  0.1618
18913TIP3    H278231   0.211   5.138  13.026 -0.2347  0.9204 -0.3045
18914TIP3   OH278232   3.925   0.732  11.726 -0.0221 -0.0131 -0.0245
18914TIP3    H178233   3.900   0.651  11.682  0.7432 -0.1854 -0.1546
18914TIP3    H278234   4.021   0.730  11.728 -0.0233  0.4552  0.7946
18915TIP3   OH278235   6.797   2.753   5.457 -0.1221  0.4290 -0.5852
18915TIP3    H178236   6.753   2.781   5.537 -1.5931  1.4491 -1.6935
18915TIP3    H278237   6.845   2.831   5.427  0.2014  0.1357 -0.8438
18916TIP3   OH278238   3.454   1.628  15.818 -0.2816  0.2796  0.5372
18916TIP3    H178239   3.394   1.698  15.845 -1.0570 -0.0254 -0.3289
18916TIP3    H278240   3.524   1.674  15.770  0.1908  0.6359  1.5462
18917TIP3   OH278241   4.295   2.572  13.382  0.2495 -0.1603  0.1823
18917TIP3    H178242   4.278   2.632  13.454 -1.9881 -0.7632  0.2369
18917TIP3    H278243   4.294   2.485  13.422  1.3013 -0.3870 -0.2393
18918TIP3   OH278244   1.737   0.976  15.963 -0.2752 -0.0259 -0.2106
18918TIP3    H178245   1.760   1.043  16.026  0.0767  0.9867 -1.3859
18918TIP3    H278246   1.643   0.987  15.949  0.0940  1.5961 -1.8702
18919TIP3   OH278247   3.567   5.538  14.645 -0.0178 -0.2185  0.1768
18919TIP3    H178248   3.556   5.499  14.558  1.2986 -1.9262  0.7009
18919TIP3    H278249   3.616   5.472  14.694 -0.7179  0.7050  2.2258
18920TIP3   OH278250   2.023   0.321   2.160  0.4837  0.1362 -0.9108
18920TIP3    H178251   1.930   0.305   2.144  0.2924  1.7072 -1.5525
18920TIP3    H278252   2.064   0.235   2.150 -0.6923 -0.3179 -2.2519
18921TIP3   OH278253   4.402   5.669   5.148  0.6325 -0.1376  0.2768
18921TIP3    H178254   4.491   5.682   5.181  0.4962 -0.0540  0.6197
18921TIP3    H278255   4.353   5.637   5.224  0.6311 -1.3047 -0.1952
18922TIP3   OH278256   4.953   3.727   2.803 -0.1683 -0.5106  0.6659
18922TIP3    H178257   4.935   3.816   2.832 -0.4690 -0.3111 -0.0840
18922TIP3    H278258   4.964   3.676   2.883 -2.9858 -0.4110  1.2245
18923TIP3   OH278259   1.167   3.581  12.990 -0.0140  0.0914 -0.2336
18923TIP3    H178260   1.093   3.522  13.004  1.0621 -1.0250  0.9726
18923TIP3    H278261   1.220   3.539  12.922  0.1206  0.3025 -0.2625
18924TIP3   OH278262   2.798   2.374   0.155 -0.1731 -0.1468 -0.6843
18924TIP3    H178263   2.817   2.313   0.225 -1.7542 -1.1688 -1.0950
18924TIP3    H278264   2.876   2.371   0.099  0.5585 -0.3056  0.3157
18925TIP3   OH278265   0.489   1.412   4.004  0.0983 -0.2487  0.3080
18925TIP3    H178266   0.450   1.349   3.944  2.3849 -1.7290  0.2443
18925TIP3    H278267   0.579   1.421   3.974  0.9384  0.0332  2.6626
18926TIP3   OH278268   6.401   3.023   0.597 -0.3582 -0.3134 -0.0841
18926TIP3    H178269   6.322   3.025   0.543  0.2138 -1.0007 -0.9680
18926TIP3    H278270   6.457   2.958   0.555  0.3807 -0.3685  0.9565
18927TIP3   OH278271   3.999   6.056  14.626 -0.0406  0.1873  0.6254
18927TIP3    H178272   3.941   5.995  14.581  1.4104  0.9071 -2.4817
18927TIP3    H278273   4.086   6.017  14.618  0.3408  0.5454  2.5857
18928TIP3   OH278274   2.311   5.498   0.084  0.0875 -0.3482  0.2122
18928TIP3    H178275   2.299   5.590   0.106 -0.1971 -0.4108  0.3222
18928TIP3    H278276   2.395   5.495   0.038 -0.6372  0.2065 -1.2167
18929TIP3   OH278277   6.502   0.287  13.565  0.1933 -0.5779  0.4772
18929TIP3    H178278   6.549   0.327  13.638  1.2533  0.8191 -0.8999
18929TIP3    H278279   6.410   0.303  13.583  0.4731  0.1998  1.2545
18930TIP3   OH278280   3.551   2.064  11.908 -0.5401 -0.0998  0.3111
18930TIP3    H178281   3.609   2.011  11.963 -0.0339  0.9650  0.8295
18930TIP3    H278282   3.607   2.094  11.837 -1.0267 -0.9030 -0.4320
18931TIP3   OH278283   2.464   6.307   1.511  0.1606  0.1747 -0.2229
18931TIP3    H178284   2.428   6.218   1.505 -0.8017  0.4805  0.5900
18931TIP3    H278285   2.398   6.362   1.468 -0.3087  0.7319  1.1460
18932TIP3   OH278286   4.899   5.623   2.562  0.2574 -0.2374  0.1143
18932TIP3    H178287   4.908   5.634   2.657 -2.0056  0.4971  0.3057
18932TIP3    H278288   4.937   5.703   2.525 -0.2262  0.1904  0.5131
18933TIP3   OH278289   4.572   4.018  11.720 -0.6945  0.7131 -0.1667
18933TIP3    H178290   4.600   4.095  11.670  2.3162 -0.2340 -0.1284
18933TIP3    H278291   4.488   3.993  11.681 -0.5829  2.6153 -1.7460
18934TIP3   OH278292   2.066   4.832  12.695 -0.7153 -0.0155 -0.1648
18934TIP3    H178293   2.033   4.911  12.651 -0.5530  0.7376  1.0242
18934TIP3    H278294   2.156   4.854  12.720  0.7551 -1.9975 -3.2275
18935TIP3   OH278295   1.012   6.733   5.837 -0.0646 -0.2799 -0.3660
18935TIP3    H178296   1.096   6.700   5.869 -0.3880 -0.3865  0.3886
18935TIP3    H278297   1.033   6.815   5.793  0.3968 -0.1476  0.0952
18936TIP3   OH278298   1.201   1.161   4.224 -0.2427  0.1076  0.3642
18936TIP3    H178299   1.280   1.214   4.223 -0.1728  0.0685 -1.9784
18936TIP3    H278300   1.231   1.072   4.202 -0.8165 -0.0657  0.2456
18937TIP3   OH278301   1.561   0.428   6.287  0.0394  0.8138 -0.1607
18937TIP3    H178302   1.533   0.451   6.376 -0.4863 -2.0674  0.5095
18937TIP3    H278303   1.656   0.424   6.292  0.1658  2.6742 -0.3267
18938TIP3   OH278304   3.710   4.591  16.561 -0.2416 -0.3899  0.1006
18938TIP3    H178305   3.717   4.500  16.590  0.4362  0.2989  2.3765
18938TIP3    H278306   3.729   4.642  16.640  2.4436  1.7717 -1.7598
18939TIP3   OH278307   4.758   2.690   6.648  0.4752 -0.2004 -0.0781
18939TIP3    H178308   4.760   2.728   6.736  0.2684 -0.1692 -0.0871
18939TIP3    H278309   4.666   2.688   6.625  0.5616  0.2225 -0.4827
18940TIP3   OH278310   0.722   2.392  16.127  0.6139  0.1188  0.4908
18940TIP3    H178311   0.787   2.327  16.102 -1.3165 -2.3972  1.5450
18940TIP3    H278312   0.640   2.362  16.087 -0.4444  1.6414  1.3861
18941TIP3   OH278313   3.148   2.740  13.867  0.0540 -0.3311 -0.1464
18941TIP3    H178314   3.152   2.658  13.915 -2.8584  0.6607  2.0862
18941TIP3    H278315   3.226   2.788  13.894  1.2287 -1.8853 -0.6608
18942TIP3   OH278316   0.188   2.463   4.474  0.2663 -0.0815  0.1090
18942TIP3    H178317   0.187   2.448   4.569  1.4583  0.6933  0.2656
18942TIP3    H278318   0.176   2.557   4.464 -0.8951 -0.2852 -0.5777
18943TIP3   OH278319   0.643   2.476  13.369 -0.4523 -0.8257  0.1548
18943TIP3    H178320   0.635   2.569  13.351 -1.1840 -1.2044 -1.7928
18943TIP3    H278321   0.733   2.454  13.346 -0.1610 -0.5502  0.9942
18944TIP3   OH278322   6.719   3.567   5.470 -0.2056  0.1819 -0.5798
18944TIP3    H178323   6.716   3.663   5.478 -0.7721  0.1374 -0.2022
18944TIP3    H278324   6.791   3.540   5.526  0.0973  0.4058 -0.8593
18945TIP3   OH278325   6.527   3.852   4.345 -0.1177 -0.0240 -0.2865
18945TIP3    H178326   6.563   3.845   4.433  1.9382  0.3395 -1.0272
18945TIP3    H278327   6.433   3.868   4.358  0.1624  0.2225  1.8162
18946TIP3   OH278328   4.562   3.993  12.809  0.8049  0.2042 -0.5210
18946TIP3    H178329   4.655   4.013  12.824  1.2416 -1.7761 -0.3248
18946TIP3    H278330   4.555   3.899  12.826 -0.6367 -0.2926 -3.2777
18947TIP3   OH278331   2.001   4.972  14.806  0.3588 -0.5267 -0.2269
18947TIP3    H178332   1.977   5.059  14.839 -1.5106 -0.7407 -0.9081
18947TIP3    H278333   1.995   4.915  14.883  2.3156 -0.0008  0.3933
18948TIP3   OH278334   1.845   0.234  14.605  0.7144 -0.1966  0.8350
18948TIP3    H178335   1.812   0.189  14.682  2.0205 -0.0593  1.5016
18948TIP3    H278336   1.772   0.233  14.543 -0.1140 -0.9388  1.7989
18949TIP3   OH278337   0.120   6.640   3.293  0.3369 -0.1629  0.6181
18949TIP3    H178338   0.139   6.644   3.199 -2.1874  0.1292  0.0491
18949TIP3    H278339   0.132   6.548   3.316  0.2143 -0.3872 -0.1713
18950TIP3   OH278340   4.323   2.776  13.565  0.4190  0.2805 -0.0751
18950TIP3    H178341   4.395   2.773  13.627  1.3172  0.2641 -1.1014
18950TIP3    H278342   4.258   2.833  13.607  1.1752  0.5921  0.6970
18951TIP3   OH278343   2.455   0.365  13.111  0.0708  0.6437  1.0284
18951TIP3    H178344   2.359   0.367  13.112  0.0730  2.5143  1.9907
18951TIP3    H278345   2.479   0.349  13.203  0.6950 -0.3509  0.7032
18952TIP3   OH278346   3.734   0.398   3.439 -0.1780 -0.0675 -0.2583
18952TIP3    H178347   3.752   0.487   3.410 -0.2107 -0.0705 -0.2882
18952TIP3    H278348   3.657   0.371   3.388 -0.0996 -0.1537 -0.3308
18953TIP3   OH278349   5.179   0.953  12.454  0.2427 -0.8322 -0.2156
18953TIP3    H178350   5.253   0.987  12.505  0.0315 -2.3945  1.2356
18953TIP3    H278351   5.101   0.979  12.503 -0.2094  0.5590 -1.5849
18954TIP3   OH278352   2.267   4.644  14.311  0.0840 -0.5419  0.7598
18954TIP3    H178353   2.343   4.600  14.349  1.5183  1.4539  0.3272
18954TIP3    H278354   2.271   4.622  14.218  0.9761  0.6905  0.4901
18955TIP3   OH278355   3.159   1.278   1.186  0.3532  0.5400  0.2666
18955TIP3    H178356   3.252   1.289   1.166  0.4135  0.2999  0.4126
18955TIP3    H278357   3.158   1.240   1.274  0.1112  0.7635  0.3583
18956TIP3   OH278358   0.777   0.710  12.611 -0.6628 -0.0057  0.4522
18956TIP3    H178359   0.824   0.689  12.693 -0.0678  0.9532  0.3697
18956TIP3    H278360   0.687   0.727  12.639 -0.9304 -1.5719  0.6538
18957TIP3   OH278361   4.498   3.477  16.509  0.3753  0.1312 -0.0881
18957TIP3    H178362   4.583   3.435  16.501  1.2110  1.3472  1.7558
18957TIP3    H278363   4.435   3.405  16.505  1.3248 -0.6604 -2.9412
18958TIP3   OH278364   4.616   0.348   2.502  0.1446 -0.7888 -0.3358
18958TIP3    H178365   4.574   0.312   2.579 -1.5960 -1.0435 -1.3612
18958TIP3    H278366   4.698   0.386   2.535 -0.7314 -0.5272  1.6832
18959TIP3   OH278367   4.854   4.884   6.017 -0.0281  0.3000  0.2319
18959TIP3    H178368   4.775   4.837   5.991  0.7422 -0.4452 -0.8380
18959TIP3    H278369   4.873   4.851   6.104 -1.3083  1.0519  0.8278
18960TIP3   OH278370   4.845   1.900   0.388 -0.1270 -0.4201 -0.0413
18960TIP3    H178371   4.940   1.905   0.397 -0.1548  1.8742 -0.6162
18960TIP3    H278372   4.811   1.941   0.467 -0.6409 -0.3976 -0.2713
18961TIP3   OH278373   6.490   5.569   3.958  0.0300 -0.1592  0.6029
18961TIP3    H178374   6.526   5.653   3.985 -1.0967  0.6522 -0.3145
18961TIP3    H278375   6.567   5.517   3.934  0.6953  1.1165 -0.1680
18962TIP3   OH278376   2.724   4.365   3.491 -0.1064 -0.0656  0.5454
18962TIP3    H178377   2.811   4.357   3.452  1.3201 -0.7367  3.5595
18962TIP3    H278378   2.684   4.439   3.446  1.4384 -0.5789 -1.8730
18963TIP3   OH278379   6.523   5.075   5.183 -0.3039 -0.2387 -0.7593
18963TIP3    H178380   6.529   5.168   5.163  2.0551  0.2465  1.5853
18963TIP3    H278381   6.587   5.034   5.125  0.2431 -0.0447 -0.3114
18964TIP3   OH278382   5.248   2.301  14.997  0.2966  1.0813 -0.4442
18964TIP3    H178383   5.228   2.385  15.038 -0.4461  0.6212  0.1623
18964TIP3    H278384   5.326   2.270  15.041 -1.4238 -0.2016  1.8872
18965TIP3   OH278385   4.340   0.497   1.299 -0.4625  0.4103  0.6062
18965TIP3    H178386   4.289   0.435   1.247 -1.3087  2.1442 -0.7377
18965TIP3    H278387   4.285   0.575   1.304  0.5983  1.0986  2.1844
18966TIP3   OH278388   3.685   3.414  13.373 -0.7185 -0.3650  0.2060
18966TIP3    H178389   3.749   3.384  13.437 -0.1985  0.4485  0.0789
18966TIP3    H278390   3.634   3.336  13.353  1.0207 -1.3483 -0.6318
18967TIP3   OH278391   1.872   2.681   5.455  0.3625 -0.6041  0.1491
18967TIP3    H178392   1.841   2.770   5.469  0.3984 -0.4415 -0.7839
18967TIP3    H278393   1.847   2.635   5.535 -0.5061  0.0117  0.2468
18968TIP3   OH278394   0.520   1.094   5.625 -0.0620  0.6770  0.1437
18968TIP3    H178395   0.463   1.154   5.673 -2.0658  0.6223 -1.9629
18968TIP3    H278396   0.460   1.035   5.580  1.7175 -0.2533 -1.1580
18969TIP3   OH278397   2.863   6.642   0.856  0.1006  0.5978  0.0739
18969TIP3    H178398   2.841   6.564   0.806 -0.8944 -0.4925  2.0565
18969TIP3    H278399   2.905   6.608   0.936  1.1579  2.2013  0.2512
18970TIP3   OH278400   2.290   3.589   3.366 -0.0561  0.5091  0.1988
18970TIP3    H178401   2.208   3.544   3.348 -0.1944 -0.0801  2.0163
18970TIP3    H278402   2.345   3.571   3.290 -1.6426  1.0775 -1.1416
18971TIP3   OH278403   6.115   6.552   2.767  0.1344  1.0789 -0.0502
18971TIP3    H178404   6.122   6.635   2.720 -0.2819  1.4557  0.5393
18971TIP3    H278405   6.205   6.530   2.789  0.3279  0.9523 -0.9095
18972TIP3   OH278406   4.561   4.950   6.253  0.0639 -0.2514 -0.4883
18972TIP3    H178407   4.605   4.866   6.246  2.4546  0.9129 -0.3128
18972TIP3    H278408   4.572   4.976   6.344 -3.0098 -0.8591  0.1858
18973TIP3   OH278409   2.139   1.953  11.105 -0.2649  0.1854  0.1043
18973TIP3    H178410   2.076   1.918  11.042 -0.3696 -1.6560  1.1647
18973TIP3    H278411   2.219   1.966  11.055  0.2305 -3.0032 -0.1459
18974TIP3   OH278412   1.541   6.533   3.158 -0.0181  0.7644  0.0753
18974TIP3    H178413   1.544   6.558   3.250  0.6100  0.8147  0.0469
18974TIP3    H278414   1.536   6.616   3.111  1.1770  0.8199  0.0148
18975TIP3   OH278415   1.395   2.051   2.450  0.3427 -0.2333  0.3449
18975TIP3    H178416   1.377   2.129   2.397  0.5873 -0.6527 -0.3586
18975TIP3    H278417   1.437   1.990   2.390 -2.0294 -1.8574  0.2430
18976TIP3   OH278418   5.926   6.455   5.097 -0.3621 -0.0532  0.4661
18976TIP3    H178419   5.909   6.364   5.121  2.0223 -0.0634  2.4269
18976TIP3    H278420   5.860   6.505   5.146 -1.2991 -0.6438 -0.1572
18977TIP3   OH278421   3.605   0.658   5.737 -0.0093 -0.1485  0.3972
18977TIP3    H178422   3.554   0.706   5.672  0.2045  1.2623  1.2213
18977TIP3    H278423   3.583   0.701   5.821  1.3792 -0.4717  0.9551
18978TIP3   OH278424   4.060   4.699  16.133 -0.0779  0.2239 -0.4609
18978TIP3    H178425   3.988   4.719  16.073 -1.0663 -0.7776  0.3445
18978TIP3    H278426   4.135   4.681  16.076 -0.9840 -0.6496 -1.4159
18979TIP3   OH278427   0.734   2.274   5.505  0.0727  0.0969  0.0556
18979TIP3    H178428   0.754   2.192   5.460  3.0498  0.5061  0.4446
18979TIP3    H278429   0.717   2.249   5.596  0.8884 -0.1196  0.1539
18980TIP3   OH278430   0.036   6.649  14.471 -0.3152  0.2349  0.3648
18980TIP3    H178431   0.041   6.651  14.375  0.9773 -1.6319  0.3347
18980TIP3    H278432   0.096   6.718  14.500  0.2079  0.0255 -0.1939
18981TIP3   OH278433   4.443   0.756  16.248  0.3028 -0.1441 -0.5190
18981TIP3    H178434   4.506   0.805  16.194 -1.6322  2.7305 -0.3876
18981TIP3    H278435   4.435   0.807  16.328 -1.9569 -0.5249 -0.4216
18982TIP3   OH278436   5.243   3.141   2.989 -0.5305  0.4713  0.3378
18982TIP3    H178437   5.159   3.096   2.978 -0.3658  0.6536 -2.2754
18982TIP3    H278438   5.293   3.118   2.911  1.0509  2.0964  0.7970
18983TIP3   OH278439   3.443   3.876  13.907  0.7219  0.2853  0.4850
18983TIP3    H178440   3.411   3.958  13.945  1.7467  0.4895  0.9431
18983TIP3    H278441   3.456   3.896  13.814 -0.2131  0.2664  0.3375
18984TIP3   OH278442   1.469   6.479   1.659 -0.3637 -0.3615 -0.0753
18984TIP3    H178443   1.548   6.523   1.691 -0.9148  0.4401  0.2105
18984TIP3    H278444   1.461   6.400   1.713 -0.2851  0.0458  0.5327
18985TIP3   OH278445   4.357   2.916   3.412 -0.2740 -0.7683  0.3596
18985TIP3    H178446   4.350   2.977   3.338 -1.3641  2.0444  2.5873
18985TIP3    H278447   4.273   2.923   3.457  0.0807 -2.9515  1.5113
18986TIP3   OH278448   4.974   0.855   6.247  0.2112 -0.1916 -0.4934
18986TIP3    H178449   4.947   0.943   6.218  0.2024 -0.3007 -0.8278
18986TIP3    H278450   4.988   0.864   6.341  0.4945  0.2395 -0.5724
18987TIP3   OH278451   4.432   1.571   6.232  0.1733 -0.0259  0.3640
18987TIP3    H178452   4.366   1.502   6.239  1.9905 -2.2344 -2.0687
18987TIP3    H278453   4.500   1.545   6.295  0.5736 -0.1478 -0.1088
18988TIP3   OH278454   2.123   6.095  13.470 -0.0493 -0.2787  0.0715
18988TIP3    H178455   2.064   6.165  13.500  0.1588  0.0849 -0.3543
18988TIP3    H278456   2.075   6.014  13.487 -0.4501 -0.0118  0.2237
18989TIP3   OH278457   0.288   3.607  12.460  0.5114 -0.4600  0.0451
18989TIP3    H178458   0.302   3.702  12.460  0.4803 -0.4542  0.3285
18989TIP3    H278459   0.371   3.570  12.432  1.3286 -0.4584  2.2992
18990TIP3   OH278460   3.175   3.480   6.211 -0.5900 -0.4499  0.0030
18990TIP3    H178461   3.192   3.419   6.283 -0.7803  1.1158  1.4710
18990TIP3    H278462   3.079   3.489   6.209 -0.5734 -0.3175 -0.2859
18991TIP3   OH278463   4.151   0.639   1.725 -0.3152 -0.2271 -0.2460
18991TIP3    H178464   4.082   0.704   1.733 -0.8635 -0.8204 -0.0791
18991TIP3    H278465   4.174   0.617   1.816 -0.5013 -0.6490 -0.2985
18992TIP3   OH278466   3.394   3.004   2.294  0.2963  0.9037  0.3215
18992TIP3    H178467   3.427   3.073   2.352  3.6309  1.2123 -1.6916
18992TIP3    H278468   3.376   3.049   2.211  0.3479 -0.2949 -0.3537
18993TIP3   OH278469   2.917   0.678   0.045 -0.1387 -0.8329  0.5093
18993TIP3    H178470   2.910   0.771   0.068  0.6931 -1.0211  1.5967
18993TIP3    H278471   2.938   0.678  -0.048  1.3843  0.1304  0.8234
18994TIP3   OH278472   5.739   0.769   5.901 -0.7217 -0.0321  0.2896
18994TIP3    H178473   5.701   0.793   5.985 -0.1499  0.2147  0.4887
18994TIP3    H278474   5.820   0.722   5.923  0.3453  1.5347 -0.0906
18995TIP3   OH278475   2.615   1.145  11.671  0.4056  0.4838 -0.2307
18995TIP3    H178476   2.586   1.116  11.585  0.8303 -0.9014  0.0622
18995TIP3    H278477   2.702   1.182  11.656  1.3078 -1.4895 -0.1662
18996TIP3   OH278478   4.416   3.061   4.333 -0.2863  0.7432 -0.4918
18996TIP3    H178479   4.461   3.089   4.412 -0.3830 -0.3774 -0.0200
18996TIP3    H278480   4.426   3.133   4.272  0.1105  1.4685  0.4194
18997TIP3   OH278481   1.538   5.798  15.411  0.7551 -0.3726  0.0342
18997TIP3    H178482   1.466   5.842  15.364  0.5142 -0.8174 -0.0252
18997TIP3    H278483   1.566   5.861  15.477  0.8570  0.1261 -0.4786
18998TIP3   OH278484   6.056   3.338   3.837  0.1772 -0.4752  0.3467
18998TIP3    H178485   6.055   3.284   3.758  0.0951  0.5703 -0.3894
18998TIP3    H278486   5.964   3.344   3.862  0.1895 -0.6973  0.4481
18999TIP3   OH278487   6.012   4.012  12.448 -0.2258  0.1513 -0.4962
18999TIP3    H178488   6.071   4.075  12.406 -0.8093  1.1720  0.1729
18999TIP3    H278489   6.039   4.013  12.540  0.0384 -0.9217 -0.5421
19000TIP3   OH278490   0.147   1.849   2.678 -0.1021 -0.5789 -0.0449
19000TIP3    H178491   0.105   1.786   2.738 -0.0567  0.7793  1.4653
19000TIP3    H278492   0.074   1.884   2.626 -0.6708  0.6706  1.5365
19001TIP3   OH278493   6.755   2.130   5.572 -0.1691  0.3492  0.3302
19001TIP3    H178494   6.816   2.091   5.635  0.5490  1.3915  0.3210
19001TIP3    H278495   6.697   2.058   5.547  3.0488 -1.6562 -2.1646
19002TIP3   OH278496   5.097   1.782   3.736 -0.0487 -0.7650 -0.4359
19002TIP3    H178497   5.169   1.818   3.684  1.2290 -2.2065  0.2637
19002TIP3    H278498   5.053   1.859   3.773  1.5571  0.1430 -0.3285
19003TIP3   OH278499   2.413   1.942  17.220 -0.5207  0.1467  0.3286
19003TIP3    H178500   2.381   1.853  17.203  0.0387  0.0389 -0.2019
19003TIP3    H278501   2.343   1.999  17.187 -1.2548 -0.0833  1.4287
19004TIP3   OH278502   5.779   6.416   5.448 -0.4537 -0.3646 -0.4271
19004TIP3    H178503   5.785   6.503   5.488  0.3895  0.1750 -1.6846
19004TIP3    H278504   5.855   6.369   5.482 -1.6820 -1.1562  1.4107
19005TIP3   OH278505   5.052   3.788   1.269  0.2125 -0.5930 -0.4156
19005TIP3    H178506   4.973   3.780   1.217  0.4913  2.0346 -1.3788
19005TIP3    H278507   5.046   3.875   1.309  1.9483 -0.9032  0.6311
19006TIP3   OH278508   6.579   3.114   2.226 -0.4674  0.3510  0.0057
19006TIP3    H178509   6.552   3.046   2.289  0.0544 -0.9262 -1.1076
19006TIP3    H278510   6.522   3.100   2.151 -0.9940  1.7893  0.1057
19007TIP3   OH278511   3.635   1.646  12.195 -0.5034 -0.0363 -0.5313
19007TIP3    H178512   3.602   1.724  12.150  1.1021  1.4092  0.6793
19007TIP3    H278513   3.645   1.581  12.125 -1.6426  0.8935 -1.6099
19008TIP3   OH278514   3.889   6.113  12.848  0.0143 -0.0520  0.0224
19008TIP3    H178515   3.801   6.149  12.839 -0.4656 -1.5515 -1.8933
19008TIP3    H278516   3.946   6.183  12.816 -0.4274  0.9956  1.4361
19009TIP3   OH278517   1.290   0.753   1.113  0.4354  0.1488  0.6486
19009TIP3    H178518   1.342   0.832   1.099  1.4993 -0.7475 -0.7555
19009TIP3    H278519   1.341   0.701   1.174  0.3940 -0.0379  0.5247
19010TIP3   OH278520   5.953   2.252  16.027  0.3808 -0.5972 -0.5379
19010TIP3    H178521   5.993   2.321  16.079  0.0161 -0.0808 -0.9338
19010TIP3    H278522   5.882   2.218  16.082 -1.4610  1.4347 -1.4780
19011TIP3   OH278523   6.537   1.685  11.141 -0.5669  0.3767 -0.3304
19011TIP3    H178524   6.574   1.672  11.054  1.3947 -2.8376  0.7984
19011TIP3    H278525   6.599   1.742  11.186 -0.3494  0.1418 -0.3342
19012TIP3   OH278526   0.458   0.874  17.220 -0.0413 -0.3092  0.8459
19012TIP3    H178527   0.445   0.941  17.153 -1.4691  0.3022  1.6790
19012TIP3    H278528   0.426   0.793  17.178  0.5005 -0.2380  0.2775
19013TIP3   OH278529   1.338   1.749  16.262 -0.0473  0.4190  0.1903
19013TIP3    H178530   1.285   1.746  16.341  0.2568  0.8177  0.4141
19013TIP3    H278531   1.427   1.764  16.293 -0.1024  1.8834 -0.2742
19014TIP3   OH278532   0.354   3.470   1.261 -0.4491  0.6443  0.2920
19014TIP3    H178533   0.277   3.511   1.222 -1.3105 -0.9421  0.2515
19014TIP3    H278534   0.395   3.421   1.190  0.0341  0.6482  0.5571
19015TIP3   OH278535   4.893   6.798   0.767  0.1399 -0.1245 -0.2165
19015TIP3    H178536   4.910   6.891   0.750  1.9369 -0.3735 -0.0268
19015TIP3    H278537   4.888   6.792   0.863  0.0420 -0.2192 -0.2275
19016TIP3   OH278538   6.103   4.372  12.738 -0.0644 -0.1085  0.1859
19016TIP3    H178539   6.084   4.281  12.715  0.7292 -0.2300 -0.0278
19016TIP3    H278540   6.021   4.405  12.775 -0.3303 -0.9411  0.3646
19017TIP3   OH278541   5.236   6.472  13.063 -0.2325 -0.4178 -0.0376
19017TIP3    H178542   5.243   6.378  13.049 -2.1447 -0.6204  0.1533
19017TIP3    H278543   5.161   6.482  13.121  0.4982  1.1842  0.6961
19018TIP3   OH278544   6.423   4.471   4.192  0.3005  0.3545 -0.3766
19018TIP3    H178545   6.367   4.549   4.192 -1.2604 -0.7060 -0.4556
19018TIP3    H278546   6.370   4.404   4.237  1.7686 -0.5476  0.0761
19019TIP3   OH278547   6.356   3.651  10.481  0.2420 -0.2492 -0.6430
19019TIP3    H178548   6.328   3.617  10.567  0.7113  1.3540  0.1714
19019TIP3    H278549   6.279   3.639  10.425 -1.0418  1.1549  0.7282
19020TIP3   OH278550   3.414   3.236   4.335 -0.0100 -0.4692  0.2014
19020TIP3    H178551   3.377   3.293   4.402  2.0844  1.5502 -0.2388
19020TIP3    H278552   3.495   3.203   4.374 -0.0849 -1.3850 -0.3896
19021TIP3   OH278553   0.733   1.300   2.888 -0.3130  0.2222  0.2924
19021TIP3    H178554   0.781   1.254   2.818 -0.9775 -0.5772  0.3557
19021TIP3    H278555   0.726   1.390   2.856  0.3335  0.1161 -0.1802
19022TIP3   OH278556   1.655   1.335   0.625 -0.3660 -0.3831 -0.0432
19022TIP3    H178557   1.610   1.420   0.619 -2.6969 -1.5300 -0.0217
19022TIP3    H278558   1.639   1.306   0.715 -0.2747 -1.1861 -0.2783
19023TIP3   OH278559   1.989   5.450  14.081 -0.7894 -1.2000  0.6096
19023TIP3    H178560   1.974   5.536  14.043  2.7586  0.0756  1.6464
19023TIP3    H278561   1.920   5.439  14.146 -2.3684  0.0078 -0.7883
19024TIP3   OH278562   3.061   6.182  12.358 -0.4350 -0.1711  0.4506
19024TIP3    H178563   3.098   6.268  12.377  0.4609 -0.7761  1.6294
19024TIP3    H278564   3.132   6.121  12.376 -0.8155 -1.1259 -1.0948
19025TIP3   OH278565   6.448   1.324   5.933  0.2627 -0.5733 -0.8123
19025TIP3    H178566   6.498   1.372   5.866  1.1003 -1.8944 -1.1699
19025TIP3    H278567   6.402   1.256   5.884 -0.5483 -0.4410 -0.2565
19026TIP3   OH278568   6.363   0.184  15.624  0.3404  0.3616 -0.2744
19026TIP3    H178569   6.417   0.247  15.673 -2.5087  2.8483 -0.0346
19026TIP3    H278570   6.344   0.115  15.687  2.5691 -0.2501 -0.1723
19027TIP3   OH278571   5.471   6.188   5.412  0.4845  0.0883 -0.5092
19027TIP3    H178572   5.445   6.168   5.502 -0.2360  0.5021 -0.6217
19027TIP3    H278573   5.564   6.164   5.409  0.0679 -1.7730 -0.2100
19028TIP3   OH278574   6.401   1.065  13.203  0.2960 -0.0494 -0.1160
19028TIP3    H178575   6.389   1.070  13.109 -1.8185  2.0416  0.1758
19028TIP3    H278576   6.321   1.023  13.236  0.3970  0.4505  0.8243
19029TIP3   OH278577   4.068   5.186   3.275 -0.0799  0.0124 -0.3563
19029TIP3    H178578   4.119   5.212   3.198  0.0196 -2.3145 -1.1802
19029TIP3    H278579   4.134   5.175   3.344  0.0352  0.6318 -0.3637
19030TIP3   OH278580   3.091   3.064  15.437  0.0764  0.4838 -0.3888
19030TIP3    H178581   3.021   3.125  15.411 -0.0568 -0.3051 -2.0010
19030TIP3    H278582   3.044   2.983  15.457  0.1839  1.0127  2.3794
19031TIP3   OH278583   0.401   3.873  11.927 -0.0515 -0.4424 -0.6662
19031TIP3    H178584   0.488   3.871  11.888 -0.4715  0.8394 -1.7485
19031TIP3    H278585   0.390   3.964  11.955 -1.2108 -0.4876 -0.9533
19032TIP3   OH278586   2.420   6.765  12.748 -0.6536 -0.0551 -0.9614
19032TIP3    H178587   2.512   6.780  12.767 -1.1553  0.2486  1.5288
19032TIP3    H278588   2.417   6.749  12.653  1.8666  0.3570 -1.1657
19033TIP3   OH278589   1.658   5.631  13.532 -0.2747 -0.1721 -0.2089
19033TIP3    H178590   1.683   5.539  13.534 -1.3014 -0.4627  0.1405
19033TIP3    H278591   1.667   5.661  13.622  0.5316  0.2107 -0.4125
19034TIP3   OH278592   5.567   6.408  13.802 -0.0794 -0.0512  0.3151
19034TIP3    H178593   5.549   6.351  13.727  0.7696 -1.3042  1.0200
19034TIP3    H278594   5.524   6.490  13.781 -1.6763 -1.0759 -0.5724
19035TIP3   OH278595   5.377   3.706   2.068 -0.4247  0.0574 -0.3237
19035TIP3    H178596   5.314   3.744   2.007 -1.8721 -1.1778  0.3357
19035TIP3    H278597   5.355   3.745   2.153  2.3380  2.6936 -0.6415
19036TIP3   OH278598   3.617   4.115  11.342 -0.1566 -0.0167  0.1805
19036TIP3    H178599   3.563   4.049  11.385 -0.6765 -0.6911 -1.4403
19036TIP3    H278600   3.587   4.198  11.379 -0.2028 -0.5965  1.4885
19037TIP3   OH278601   0.978   4.583  13.937 -0.3717  0.0225  0.1371
19037TIP3    H178602   1.054   4.634  13.907 -1.4585  2.0891  0.6534
19037TIP3    H278603   0.918   4.649  13.971 -2.1900 -1.6080  0.2356
19038TIP3   OH278604   6.573   2.844  16.555 -0.3923  0.7011 -0.1006
19038TIP3    H178605   6.518   2.873  16.483  0.4237  0.3808 -0.8771
19038TIP3    H278606   6.663   2.858  16.523 -0.0089  1.7102  1.3202
19039TIP3   OH278607   3.703   2.413  16.216 -0.3999 -0.2833  0.1669
19039TIP3    H178608   3.712   2.318  16.212 -0.8411 -0.2936 -1.4061
19039TIP3    H278609   3.771   2.447  16.158  0.2763  0.4194  1.3322
19040TIP3   OH278610   2.037   1.113  14.562  0.3101 -0.1801  0.3343
19040TIP3    H178611   2.024   1.113  14.468  0.6297 -0.8250  0.2809
19040TIP3    H278612   2.129   1.137  14.574 -0.1417  1.5369  0.5713
19041TIP3   OH278613   0.116   6.276   3.470  0.6032 -0.8136 -0.3349
19041TIP3    H178614   0.048   6.306   3.410  0.2321 -1.8749 -0.4773
19041TIP3    H278615   0.194   6.267   3.416  0.7902  0.1136 -0.2343
19042TIP3   OH278616   0.420   4.341  15.804  0.1824 -0.4968  0.0780
19042TIP3    H178617   0.389   4.418  15.852 -0.2055 -0.2040 -0.6334
19042TIP3    H278618   0.508   4.326  15.838 -0.0885 -0.3169  0.8994
19043TIP3   OH278619   1.566   6.130   6.529  0.0251  0.3226  0.9238
19043TIP3    H178620   1.659   6.146   6.547  0.4312  0.8890 -1.3485
19043TIP3    H278621   1.530   6.217   6.513 -0.8089  0.0524  1.2892
19044TIP3   OH278622   6.507   5.077  15.361 -0.1965 -0.2916  0.3042
19044TIP3    H178623   6.507   5.003  15.301  0.3092  0.1725 -0.2841
19044TIP3    H278624   6.416   5.086  15.388 -0.4992 -0.2867 -0.6825
19045TIP3   OH278625   6.242   1.425  15.703 -0.2676  0.5678  0.0065
19045TIP3    H178626   6.181   1.388  15.638 -0.0488  1.3331 -0.6621
19045TIP3    H278627   6.297   1.351  15.729 -0.7750  0.1047 -0.1983
19046TIP3   OH278628   4.694   4.541  14.310 -0.0350 -0.1945  0.2238
19046TIP3    H178629   4.717   4.560  14.401  0.4455 -0.1439  0.0927
19046TIP3    H278630   4.622   4.602  14.290 -0.3457 -0.4169  0.6611
19047TIP3   OH278631   2.494   0.394  17.047  0.3423  0.4260  0.3434
19047TIP3    H178632   2.425   0.461  17.054 -1.0985 -1.0202  0.5708
19047TIP3    H278633   2.575   0.444  17.043 -0.7789  2.2585 -1.1117
19048TIP3   OH278634   1.457   4.260   3.458 -0.8634 -0.0928 -0.7981
19048TIP3    H178635   1.404   4.294   3.386 -0.2489  1.3288 -0.6077
19048TIP3    H278636   1.406   4.280   3.537 -0.5584  0.2652 -0.6912
19049TIP3   OH278637   6.698   4.482   3.477 -0.3251  0.2496  0.1802
19049TIP3    H178638   6.609   4.511   3.457 -0.5877 -1.0367 -0.6601
19049TIP3    H278639   6.703   4.394   3.439  0.3951 -0.8271  2.5344
19050TIP3   OH278640   3.847   1.278  15.927  0.2281 -0.0114 -0.0522
19050TIP3    H178641   3.770   1.321  15.892  0.5416  0.2350 -0.4506
19050TIP3    H278642   3.823   1.186  15.934 -0.2295  0.1269  0.1927
19051TIP3   OH278643   0.633   5.407  16.331  0.8389 -0.0852  0.4337
19051TIP3    H178644   0.576   5.482  16.344  0.7039 -0.0739 -0.1606
19051TIP3    H278645   0.701   5.439  16.272 -0.7987 -1.1268 -2.2486
19052TIP3   OH278646   4.651   3.483   3.193  0.1579 -0.6015 -0.4333
19052TIP3    H178647   4.735   3.470   3.149 -0.1421  0.2714 -1.3062
19052TIP3    H278648   4.604   3.545   3.137 -0.9773 -0.8913  0.1677
19053TIP3   OH278649   2.283   3.619   3.651  0.0829  0.1044  0.1437
19053TIP3    H178650   2.325   3.702   3.674  0.6345 -0.1303 -0.0278
19053TIP3    H278651   2.300   3.609   3.557  0.1501 -0.2844  0.1984
19054TIP3   OH278652   3.831   1.502  16.512  0.8668 -0.4405 -0.4392
19054TIP3    H178653   3.741   1.498  16.542  0.5280 -0.3959 -1.4251
19054TIP3    H278654   3.876   1.433  16.560  0.7279  0.6495  1.3769
19055TIP3   OH278655   2.861   5.984  11.510 -0.0367 -0.3287 -0.2438
19055TIP3    H178656   2.779   6.032  11.515 -0.1982 -0.6954  1.2384
19055TIP3    H278657   2.895   6.002  11.422 -1.9757 -0.6563 -1.0980
19056TIP3   OH278658   6.591   5.371  13.792 -0.3495 -0.1764 -0.1175
19056TIP3    H178659   6.522   5.305  13.782 -0.2984 -0.7482  2.6721
19056TIP3    H278660   6.599   5.384  13.886  1.5053  1.8906 -0.4805
19057TIP3   OH278661   6.219   0.972  15.964  0.0559  0.5242  0.6454
19057TIP3    H178662   6.251   0.895  15.916  1.4088  0.7639  1.1283
19057TIP3    H278663   6.157   0.935  16.027  1.0700 -0.2714  1.2237
19058TIP3   OH278664   3.098   1.109   4.088  0.4760  0.3006  0.1191
19058TIP3    H178665   3.049   1.042   4.137 -2.2987  1.7641 -0.4318
19058TIP3    H278666   3.101   1.076   3.998 -0.8805  0.8178 -0.1491
19059TIP3   OH278667   2.539   0.799  13.040 -0.0966  0.2300 -0.0755
19059TIP3    H178668   2.511   0.737  12.973  2.4174 -0.7442 -0.3606
19059TIP3    H278669   2.555   0.745  13.117 -0.6949  0.9857  0.5864
19060TIP3   OH278670   1.756   4.773  11.752 -0.0131  0.3293  0.2124
19060TIP3    H178671   1.716   4.689  11.774 -0.9545  1.0619  1.3801
19060TIP3    H278672   1.765   4.770  11.656  0.1095 -1.1384  0.2353
19061TIP3   OH278673   4.338   2.912  15.565  0.2766  0.5330  0.2001
19061TIP3    H178674   4.271   2.888  15.501 -0.4630  2.7402  0.0545
19061TIP3    H278675   4.419   2.875  15.531 -0.1295  1.4629 -1.9471
19062TIP3   OH278676   2.582   4.124   4.566  0.2114  0.4732 -0.2702
19062TIP3    H178677   2.541   4.162   4.644  1.1991  1.5522 -0.2375
19062TIP3    H278678   2.675   4.123   4.586  0.2783 -1.6864 -0.4406
19063TIP3   OH278679   3.279   1.690   4.401  0.2729 -0.3374  0.2258
19063TIP3    H178680   3.232   1.672   4.319  0.2442  0.6181  0.0217
19063TIP3    H278681   3.232   1.765   4.438 -0.4468 -1.4751  1.7100
19064TIP3   OH278682   3.977   3.827   4.640  0.1502  0.1681  0.1607
19064TIP3    H178683   4.024   3.891   4.694  1.3957 -0.2570 -0.3823
19064TIP3    H278684   4.020   3.743   4.659 -0.9929 -0.3930  0.3277
19065TIP3   OH278685   1.718   5.019   6.108 -0.0905 -0.6630  0.3209
19065TIP3    H178686   1.770   4.950   6.149  2.0046  2.0953  2.7465
19065TIP3    H278687   1.738   5.012   6.015  1.0296 -2.5017  0.6544
19066TIP3   OH278688   3.676   1.715  15.616  0.1993  0.7828  0.1536
19066TIP3    H178689   3.671   1.624  15.587  0.1008  0.4788  1.0860
19066TIP3    H278690   3.756   1.748  15.576 -0.0289  0.4485 -0.6111
19067TIP3   OH278691   6.437   6.247   4.445 -0.1590  0.2489 -0.3678
19067TIP3    H178692   6.487   6.197   4.510  0.6972  0.3582 -0.9168
19067TIP3    H278693   6.398   6.319   4.495 -2.3691 -1.5284  0.6751
19068TIP3   OH278694   6.492   6.372  14.789  0.9348  0.5721 -0.4928
19068TIP3    H178695   6.566   6.312  14.795 -0.7941 -1.6036  0.6440
19068TIP3    H278696   6.465   6.367  14.697 -0.1917 -1.8481 -0.1216
19069TIP3   OH278697   2.658   6.156  17.219  0.3090  0.7986  0.4841
19069TIP3    H178698   2.746   6.180  17.189  0.8801  0.2664  1.6847
19069TIP3    H278699   2.628   6.232  17.269  1.0693  0.1092  2.0737
19070TIP3   OH278700   1.932   5.148  16.089 -0.0532  0.1580  0.3409
19070TIP3    H178701   2.002   5.204  16.054  0.1123  0.4724  1.1711
19070TIP3    H278702   1.935   5.162  16.183 -1.9115  0.9489  0.3186
19071TIP3   OH278703   0.529   2.990   3.461  0.5003 -0.1314  0.2609
19071TIP3    H178704   0.518   3.083   3.482  0.4875 -0.0822  0.0422
19071TIP3    H278705   0.562   2.951   3.542  0.2679  0.0179  0.4301
19072TIP3   OH278706   6.110   5.823   5.341 -0.1814 -0.1864 -0.4131
19072TIP3    H178707   6.079   5.856   5.426  0.8230  0.7487 -0.4002
19072TIP3    H278708   6.163   5.746   5.364 -1.0723 -0.7990 -0.3205
19073TIP3   OH278709   4.317   2.827   6.365 -0.1840 -0.4152 -0.6011
19073TIP3    H178710   4.222   2.832   6.369 -0.2163 -0.5822 -1.0740
19073TIP3    H278711   4.340   2.863   6.279  0.1407 -0.8122 -0.6877
19074TIP3   OH278712   0.403   2.341  15.771  0.3422  0.3562 -0.5062
19074TIP3    H178713   0.449   2.264  15.737 -0.8282 -1.5661  1.9403
19074TIP3    H278714   0.324   2.347  15.718 -0.1383 -0.9000  0.0412
19075TIP3   OH278715   0.835   4.339   2.678  0.1011  0.5309 -0.2119
19075TIP3    H178716   0.804   4.429   2.670  1.5970  0.9601 -1.6050
19075TIP3    H278717   0.834   4.305   2.588  0.4408 -0.5495  0.1722
19076TIP3   OH278718   2.319   2.065  16.551 -0.5181  0.2657  0.3754
19076TIP3    H178719   2.333   2.011  16.629 -0.8746 -0.3345  0.0294
19076TIP3    H278720   2.394   2.046  16.495 -0.3573  0.5567  0.4886
19077TIP3   OH278721   3.093   6.697  16.248 -0.0883  0.4592  0.1038
19077TIP3    H178722   3.181   6.725  16.271 -0.1616  1.4085 -0.7013
19077TIP3    H278723   3.106   6.621  16.191  0.1184 -1.0803  2.1203
19078TIP3   OH278724   2.694   1.454  11.279  0.5304  0.6996  0.1466
19078TIP3    H178725   2.668   1.389  11.214  1.3352 -1.3029  1.7079
19078TIP3    H278726   2.612   1.479  11.322  0.1989  0.8343 -0.5448
19079TIP3   OH278727   0.994   0.942  12.815 -0.3746 -0.3860  0.0661
19079TIP3    H178728   0.938   0.930  12.891  1.0012  0.5284  1.2890
19079TIP3    H278729   1.058   1.008  12.843  1.4094 -1.5013 -1.1744
19080TIP3   OH278730   6.227   2.890  15.252 -0.1355  0.4235 -0.6277
19080TIP3    H178731   6.242   2.945  15.176  0.1233  0.5765 -0.4688
19080TIP3    H278732   6.258   2.942  15.326 -0.4012  0.2843 -0.4149
19081TIP3   OH278733   3.603   2.779  12.228 -0.3576  0.0598 -0.0999
19081TIP3    H178734   3.580   2.772  12.321  0.2795 -1.4245 -0.0155
19081TIP3    H278735   3.692   2.744  12.223 -1.0769 -1.7290 -1.5250
19082TIP3   OH278736   3.345   5.578  11.832 -0.0634  0.2546  0.2261
19082TIP3    H178737   3.398   5.563  11.910  0.9847 -2.1779 -0.8502
19082TIP3    H278738   3.330   5.491  11.796 -2.3349  1.1218 -1.1517
19083TIP3   OH278739   1.589   1.030  14.402  0.0287  0.6456  0.0712
19083TIP3    H178740   1.594   0.938  14.376  1.6656  0.9668 -0.9323
19083TIP3    H278741   1.637   1.035  14.485  1.9302  0.8982 -0.9746
19084TIP3   OH278742   1.583   2.740   5.396 -0.3810 -0.4117 -0.0320
19084TIP3    H178743   1.576   2.834   5.411 -1.9143 -0.1303 -2.0678
19084TIP3    H278744   1.506   2.703   5.439 -0.8011 -0.4766 -0.8160
19085TIP3   OH278745   5.419   5.179  14.366 -0.1723 -0.3213  0.3782
19085TIP3    H178746   5.364   5.187  14.288 -0.0917 -1.7907  0.1372
19085TIP3    H278747   5.438   5.269  14.392 -2.1333  0.2169  0.0780
19086TIP3   OH278748   2.159   5.327   0.268  0.3248  0.0268  0.7603
19086TIP3    H178749   2.218   5.346   0.194 -0.6442 -0.0920 -0.0719
19086TIP3    H278750   2.189   5.384   0.338  0.5489  1.0119 -0.1047
19087TIP3   OH278751   4.767   1.343  14.979 -0.3490 -0.1793 -0.4659
19087TIP3    H178752   4.825   1.334  14.903  0.5141 -0.0698  0.1650
19087TIP3    H278753   4.815   1.301  15.051 -1.4839 -0.9774 -0.1379
19088TIP3   OH278754   1.064   1.730  15.583 -0.1074 -0.0732  0.3515
19088TIP3    H178755   1.125   1.657  15.597  0.7887  0.5380 -0.2367
19088TIP3    H278756   0.977   1.690  15.587  0.3905 -1.4307 -1.2298
19089TIP3   OH278757   2.435   4.320  13.574  0.6146  0.5768 -0.0895
19089TIP3    H178758   2.459   4.291  13.486  0.8514 -0.6651  0.3781
19089TIP3    H278759   2.339   4.322  13.573  0.5825 -0.6076 -0.0093
19090TIP3   OH278760   2.047   3.327  12.505 -0.6323  0.1858 -0.3318
19090TIP3    H178761   2.014   3.357  12.589 -0.5762 -1.0071  0.1256
19090TIP3    H278762   2.049   3.232  12.511  2.0165  0.1241 -0.6570
19091TIP3   OH278763   0.319   2.264   3.349  0.0360  0.0563 -0.4395
19091TIP3    H178764   0.320   2.353   3.315  0.8004 -0.0857 -0.8223
19091TIP3    H278765   0.233   2.254   3.390 -1.1872  0.0634 -2.8230
19092TIP3   OH278766   6.414   0.713   6.421  0.6648  0.0055  0.2386
19092TIP3    H178767   6.322   0.739   6.417  0.8047  0.3018 -1.4778
19092TIP3    H278768   6.463   0.795   6.410  1.1591 -0.1123  1.3998
19093TIP3   OH278769   2.562   6.087  13.205  0.4180  0.2052  0.1418
19093TIP3    H178770   2.510   6.167  13.207  1.6404  1.0461 -0.4932
19093TIP3    H278771   2.507   6.024  13.158 -1.0993  0.2292  1.7825
19094TIP3   OH278772   3.875   5.328   4.639  0.1254  0.3078  0.1854
19094TIP3    H178773   3.834   5.397   4.587  0.1186  0.5116  0.4577
19094TIP3    H278774   3.812   5.309   4.708 -0.5852 -1.1014 -0.8001
19095TIP3   OH278775   5.106   1.446   0.773 -0.3679  0.2713 -0.4572
19095TIP3    H178776   5.067   1.532   0.790 -1.5690 -0.4538  0.6439
19095TIP3    H278777   5.035   1.384   0.788  0.4842 -0.9292 -1.2182
19096TIP3   OH278778   2.979   4.340   2.090  0.3590 -0.3928  0.4779
19096TIP3    H178779   2.949   4.261   2.135 -3.8522 -0.1029 -1.2944
19096TIP3    H278780   3.020   4.308   2.009 -1.1399 -0.8935 -0.1305
19097TIP3   OH278781   3.872   5.955   6.209 -0.2825 -0.2974  0.1091
19097TIP3    H178782   3.920   5.978   6.130 -0.7776 -1.7598 -0.6435
19097TIP3    H278783   3.864   6.038   6.257 -0.5141  0.7495 -1.6616
19098TIP3   OH278784   3.863   2.723  16.741  0.2854  0.5761  0.9300
19098TIP3    H178785   3.821   2.681  16.666 -1.2213  1.4063  1.2592
19098TIP3    H278786   3.840   2.668  16.815  1.5724 -0.1091  0.8608
19099TIP3   OH278787   0.150   5.464   5.071  0.0084  0.3129 -0.5869
19099TIP3    H178788   0.178   5.475   5.162 -2.3689 -0.9608  0.4197
19099TIP3    H278789   0.226   5.487   5.018  2.6956 -2.2318  1.7995
19100TIP3   OH278790   4.843   3.615  13.229 -0.0157  0.3102 -0.0011
19100TIP3    H178791   4.758   3.573  13.242  0.2108 -0.3390 -0.5348
19100TIP3    H278792   4.855   3.670  13.307 -0.3036 -0.6484  0.7385
19101TIP3   OH278793   4.120   5.038  10.667 -0.1077  0.0666 -0.2522
19101TIP3    H178794   4.164   5.100  10.608  1.1227  1.4073  1.9295
19101TIP3    H278795   4.183   5.024  10.738 -1.5390 -1.4473  0.7982
19102TIP3   OH278796   5.441   4.236   6.471  0.0017  0.1581  0.0135
19102TIP3    H178797   5.487   4.296   6.530  0.6875  0.1010 -0.4484
19102TIP3    H278798   5.486   4.152   6.482  0.2374  0.1814 -0.6860
19103TIP3   OH278799   1.210   2.607   6.213 -0.4903 -0.5310  0.0337
19103TIP3    H178800   1.168   2.521   6.214  0.8944 -1.2442 -0.7272
19103TIP3    H278801   1.300   2.590   6.187 -0.4766  1.2889 -1.3092
19104TIP3   OH278802   1.373   5.727  16.254  0.7328  0.3416  0.3542
19104TIP3    H178803   1.309   5.786  16.294  0.1263  1.1118 -1.6221
19104TIP3    H278804   1.457   5.771  16.266  0.3805  1.2441 -0.4422
19105TIP3   OH278805   1.773   4.743   2.722  0.1334  0.2192  0.1799
19105TIP3    H178806   1.708   4.677   2.699  0.3244  0.1368 -0.1204
19105TIP3    H278807   1.773   4.805   2.648  0.9525 -0.2032 -0.1919
19106TIP3   OH278808   0.796   4.550  12.020 -1.1280 -0.2602  0.2029
19106TIP3    H178809   0.774   4.587  11.934  0.1264 -0.8908 -0.4111
19106TIP3    H278810   0.853   4.616  12.060 -1.8405  0.1076  0.6452
19107TIP3   OH278811   0.118   2.165  15.349 -0.0567 -0.5615  0.8644
19107TIP3    H178812   0.157   2.252  15.364  0.0832 -0.7920  1.9163
19107TIP3    H278813   0.104   2.130  15.437 -1.2921 -1.0905  0.4806
19108TIP3   OH278814   6.587   0.773  12.426  0.4144 -0.0235  0.1100
19108TIP3    H178815   6.506   0.749  12.471  0.6005  0.9084  0.9601
19108TIP3    H278816   6.601   0.865  12.447  0.9663  0.2102 -1.1696
19109TIP3   OH278817   1.027   1.019   3.163 -0.3901  0.3886  0.1512
19109TIP3    H178818   0.942   0.980   3.142 -0.7484  0.9231  0.5784
19109TIP3    H278819   1.061   0.963   3.233  0.3799 -0.8251 -1.1307
19110TIP3   OH278820   5.915   4.914  11.676 -0.4958  0.0355 -0.6150
19110TIP3    H178821   5.842   4.969  11.648  1.0094  1.7967 -1.2795
19110TIP3    H278822   5.878   4.826  11.682 -2.2243  0.5485 -2.7400
19111TIP3   OH278823   5.992   6.625   0.198  0.0076  0.1400 -0.6148
19111TIP3    H178824   5.949   6.674   0.268 -0.3711  0.0954 -0.8124
19111TIP3    H278825   6.074   6.672   0.182 -1.2457  1.9123 -2.1746
19112TIP3   OH278826   5.829   2.482  14.896  0.1494  0.1286 -0.3828
19112TIP3    H178827   5.869   2.425  14.963  1.4500  1.0096 -0.3703
19112TIP3    H278828   5.857   2.570  14.921 -1.9601  0.8294 -0.3149
19113TIP3   OH278829   4.855   1.550   3.446 -0.2227 -0.1194  0.0556
19113TIP3    H178830   4.944   1.549   3.480  0.1524 -1.1236 -0.8845
19113TIP3    H278831   4.850   1.632   3.396  0.6726 -0.7057 -1.0619
19114TIP3   OH278832   1.262   1.807   0.146 -0.1438 -0.2641 -0.5985
19114TIP3    H178833   1.232   1.741   0.084 -0.0115 -1.2224  0.3137
19114TIP3    H278834   1.329   1.761   0.199  1.6861  1.2945 -1.4528
19115TIP3   OH278835   4.299   2.795   3.140  0.0390 -0.0086  0.7349
19115TIP3    H178836   4.233   2.787   3.209  0.7861  0.2139  1.4948
19115TIP3    H278837   4.375   2.746   3.174  0.6313  0.6320  0.3491
19116TIP3   OH278838   1.518   2.941   5.607 -0.1441  0.3462  0.2125
19116TIP3    H178839   1.455   2.870   5.621  0.3694 -0.0225  0.6929
19116TIP3    H278840   1.465   3.015   5.577 -0.7089 -0.1855 -0.1142
19117TIP3   OH278841   2.025   6.615  12.850 -0.0077 -0.0729  0.1410
19117TIP3    H178842   2.084   6.687  12.876  0.3664  0.2137 -1.4052
19117TIP3    H278843   2.031   6.553  12.922  0.4748  0.9640  1.0375
19118TIP3   OH278844   5.510   4.315  13.020 -0.0030  0.2217  0.5732
19118TIP3    H178845   5.561   4.393  13.044  0.8966  0.4575 -1.8511
19118TIP3    H278846   5.559   4.276  12.947 -1.8093 -1.1693  0.0378
19119TIP3   OH278847   1.030   3.590  14.897 -0.7818 -0.3132 -0.2998
19119TIP3    H178848   0.989   3.596  14.811  0.9208 -0.6058 -1.1537
19119TIP3    H278849   0.979   3.523  14.943 -1.4239 -0.4777 -1.2224
19120TIP3   OH278850   4.818   6.477   1.216 -0.2384 -0.8118  0.2695
19120TIP3    H178851   4.736   6.519   1.241  0.1006 -0.3402  0.6169
19120TIP3    H278852   4.798   6.383   1.213 -0.4646 -0.8315  1.6609
19121TIP3   OH278853   5.144   2.264   4.823  0.9527 -0.0392  0.0281
19121TIP3    H178854   5.068   2.236   4.772  0.7316  0.3264  0.1529
19121TIP3    H278855   5.200   2.186   4.827  0.5453 -0.3350  0.0092
19122TIP3   OH278856   5.902   5.070  16.895  0.3086 -0.1512 -0.3102
19122TIP3    H178857   5.812   5.055  16.865  0.5431 -2.1264 -0.1795
19122TIP3    H278858   5.896   5.067  16.991  0.7498 -2.3321 -0.2976
19123TIP3   OH278859   2.024   5.988  16.633  0.3031  0.4169  0.0670
19123TIP3    H178860   2.070   5.911  16.601 -0.2779  0.1245 -0.0821
19123TIP3    H278861   2.001   6.037  16.555  1.0696  0.9781  0.1872
19124TIP3   OH278862   1.667   3.569   6.025  0.3226 -0.2974  0.4401
19124TIP3    H178863   1.670   3.476   6.001 -0.6471  0.1603 -1.7697
19124TIP3    H278864   1.712   3.614   5.953 -0.9650  1.0676  0.4215
19125TIP3   OH278865   2.550   4.052  16.010 -0.1247  0.1524 -0.1061
19125TIP3    H178866   2.610   3.987  15.975  1.7435  1.2602  0.8913
19125TIP3    H278867   2.569   4.055  16.104 -1.0366  1.2463  0.0755
19126TIP3   OH278868   2.994   3.509   4.227  0.2329  0.3386 -0.3043
19126TIP3    H178869   2.950   3.437   4.182  0.0004  0.5267 -0.3856
19126TIP3    H278870   2.935   3.584   4.215  0.3469  0.4808 -0.0049
19127TIP3   OH278871   0.955   2.457   0.712 -0.5879  0.2724  0.1715
19127TIP3    H178872   1.017   2.516   0.754 -1.1319  1.9499 -1.2400
19127TIP3    H278873   1.008   2.411   0.646 -0.1378 -0.9736  1.3536
19128TIP3   OH278874   5.982   6.366   0.278 -0.0912  0.0508 -0.0268
19128TIP3    H178875   5.937   6.313   0.213  1.2254  0.6258 -1.4977
19128TIP3    H278876   5.982   6.454   0.240  0.3744  0.4793  0.9395
19129TIP3   OH278877   0.402   1.007  14.683  0.5553  0.2003  0.1175
19129TIP3    H178878   0.440   1.007  14.771  2.0067  0.9379 -0.4682
19129TIP3    H278879   0.467   0.961  14.629  0.5049  1.2248 -0.8576
19130TIP3   OH278880   2.347   1.294   0.766 -0.1380  0.1963  0.7057
19130TIP3    H178881   2.348   1.237   0.842  0.6059  0.9962  1.3105
19130TIP3    H278882   2.384   1.377   0.797  0.5429  0.4128 -0.6173
19131TIP3   OH278883   3.731   3.987  13.296  0.3021  0.7050 -0.2193
19131TIP3    H178884   3.720   3.989  13.200  2.1312 -1.5049 -0.5535
19131TIP3    H278885   3.750   3.895  13.316  1.6852  1.4111  2.0535
19132TIP3   OH278886   2.898   3.516   6.202  0.4014  0.0617 -0.3096
19132TIP3    H178887   2.926   3.557   6.284 -1.5226 -2.9918  2.0953
19132TIP3    H278888   2.838   3.579   6.162  2.0883  1.9993  0.0453
19133TIP3   OH278889   3.145   2.483   1.815  0.1821 -0.5859 -0.3355
19133TIP3    H178890   3.119   2.433   1.893  0.6125  0.4309  0.4857
19133TIP3    H278891   3.075   2.547   1.804  1.3361  0.9454  0.7737
19134TIP3   OH278892   2.881   1.927   5.275 -0.9927 -0.2332  0.0410
19134TIP3    H178893   2.939   1.871   5.222 -2.3144 -2.4470  0.7926
19134TIP3    H278894   2.941   1.986   5.321  0.6074 -1.7414  0.0064
19135TIP3   OH278895   6.253   4.457   3.622  0.0180 -0.0945  0.1169
19135TIP3    H178896   6.205   4.446   3.705 -0.4970  1.1997  0.0144
19135TIP3    H278897   6.336   4.412   3.637  0.7822  1.7917  2.1087
19136TIP3   OH278898   3.284   6.514   3.273 -0.8066  0.0091  0.0924
19136TIP3    H178899   3.323   6.564   3.345 -1.4334  1.2023 -0.3851
19136TIP3    H278900   3.346   6.523   3.201 -0.6783 -0.3290  0.1581
19137TIP3   OH278901   4.618   1.127   2.701  0.5564 -0.3536 -0.0655
19137TIP3    H178902   4.696   1.173   2.672  0.7760  0.1721  1.3261
19137TIP3    H278903   4.620   1.044   2.652  2.0898 -0.4366  0.0937
19138TIP3   OH278904   3.231   2.093   0.714  0.4701 -0.3548 -0.1291
19138TIP3    H178905   3.245   2.030   0.643 -1.6581  0.0426 -0.9957
19138TIP3    H278906   3.303   2.077   0.775 -0.4102 -4.1768  0.1325
19139TIP3   OH278907   0.700   3.786   3.833 -0.0697 -0.1904  1.1368
19139TIP3    H178908   0.685   3.721   3.765 -0.4199  0.8756  0.1577
19139TIP3    H278909   0.742   3.859   3.788 -0.7395  0.7386  1.9547
19140TIP3   OH278910   0.591   5.347   3.271  0.0786  0.2773 -0.0178
19140TIP3    H178911   0.597   5.325   3.364  0.1332  0.0819 -0.0660
19140TIP3    H278912   0.594   5.442   3.269 -1.3727  0.3625  0.2977
19141TIP3   OH278913   4.796   5.070   3.974 -0.5771 -0.0416 -0.0159
19141TIP3    H178914   4.703   5.050   3.980 -0.0738 -2.4698  3.8123
19141TIP3    H278915   4.836   4.989   3.943  0.4365 -0.1077  1.3682
19142TIP3   OH278916   0.044   3.613  11.437 -0.6854  0.5416 -0.8603
19142TIP3    H178917   0.100   3.677  11.393  1.7931 -1.6081 -1.1118
19142TIP3    H278918   0.056   3.532  11.387 -1.6087 -0.7721  0.9122
19143TIP3   OH278919   2.183   1.700  16.716  0.4487 -0.1257  0.5566
19143TIP3    H178920   2.137   1.758  16.776 -1.2837 -1.2240  0.3644
19143TIP3    H278921   2.244   1.757  16.669 -1.2139  1.5643  0.3336
19144TIP3   OH278922   2.340   6.006  12.997 -0.2719 -0.2296  0.5458
19144TIP3    H178923   2.315   5.977  12.910 -2.2245 -0.1136  1.0152
19144TIP3    H278924   2.360   6.099  12.987 -0.7890 -0.1482  0.2721
19145TIP3   OH278925   1.797   1.341  17.160 -0.2646 -0.5039 -0.1385
19145TIP3    H178926   1.887   1.338  17.192 -0.6765  0.1499  1.1298
19145TIP3    H278927   1.793   1.420  17.106 -0.3903  0.2165  0.8817
19146TIP3   OH278928   0.130   3.155   6.047 -0.7139  0.9582 -0.4503
19146TIP3    H178929   0.158   3.244   6.071 -0.0651  0.1661  2.0217
19146TIP3    H278930   0.203   3.119   5.997  0.3137  0.8649  1.0535
19147TIP3   OH278931   0.832   2.447   1.500 -0.2896  0.5838 -0.4433
19147TIP3    H178932   0.872   2.432   1.586  0.1788  1.7245 -0.4488
19147TIP3    H278933   0.905   2.452   1.439 -0.6530 -0.7506 -1.0056
19148TIP3   OH278934   0.476   0.475   2.081  0.4118  0.0189  0.3577
19148TIP3    H178935   0.482   0.423   2.000 -1.0732 -1.6993  1.2699
19148TIP3    H278936   0.514   0.560   2.058  2.7992 -1.3647 -1.2689
19149TIP3   OH278937   6.585   4.070   3.550 -0.1267 -0.0881 -0.1083
19149TIP3    H178938   6.579   4.065   3.455  1.6080  0.4125 -0.2808
19149TIP3    H278939   6.607   3.981   3.578  2.1793  0.2927 -0.4898
19150TIP3   OH278940   3.129   1.252   2.884 -0.0487 -0.1365 -0.4908
19150TIP3    H178941   3.053   1.296   2.921  0.7480  1.0699 -0.2226
19150TIP3    H278942   3.095   1.204   2.808 -1.2472 -0.5419  0.2826
19151TIP3   OH278943   6.537   3.242   0.714 -0.1332  0.1385 -0.1063
19151TIP3    H178944   6.461   3.261   0.769  0.6464 -2.8918  2.2982
19151TIP3    H278945   6.506   3.178   0.650  0.4847 -1.9635  1.5777
19152TIP3   OH278946   0.151   2.595   0.767 -0.1135 -0.5705 -0.0054
19152TIP3    H178947   0.128   2.584   0.675  1.4189 -0.0633 -0.4806
19152TIP3    H278948   0.220   2.661   0.767  0.2883 -0.9434  1.4586
19153TIP3   OH278949   1.837   0.734   2.768  0.4897 -0.5728 -0.1506
19153TIP3    H178950   1.771   0.739   2.699 -0.3433  1.7532  0.7268
19153TIP3    H278951   1.835   0.820   2.810  3.1259 -0.8783  0.8120
19154TIP3   OH278952   4.828   1.577   2.876 -0.0061 -0.3355 -0.0644
19154TIP3    H178953   4.746   1.540   2.909 -0.2894  0.1056 -0.2511
19154TIP3    H278954   4.809   1.599   2.785  0.0647  0.5080  0.1139
19155TIP3   OH278955   4.527   2.295   0.495 -0.0433  0.5062  0.0220
19155TIP3    H178956   4.445   2.276   0.540  1.4697  0.1459  2.8212
19155TIP3    H278957   4.545   2.217   0.443 -1.3707  0.5575 -0.5598
19156TIP3   OH278958   5.734   6.390  14.006  0.0715 -0.1760  0.2545
19156TIP3    H178959   5.745   6.297  13.986  0.5402  0.4082 -2.6784
19156TIP3    H278960   5.660   6.417  13.952  0.8049  1.4289 -0.0048
19157TIP3   OH278961   2.271   1.575   1.527 -0.2056 -0.7529  0.4481
19157TIP3    H178962   2.244   1.507   1.466 -1.2991 -0.2597  0.3607
19157TIP3    H278963   2.309   1.643   1.471  0.9051 -1.2810  0.5372
19158TIP3   OH278964   0.082   2.220  13.277 -0.2791  0.4295  0.0402
19158TIP3    H178965   0.138   2.161  13.226 -0.0231  0.9452 -0.2957
19158TIP3    H278966   0.100   2.198  13.368  1.3322  1.3184 -0.0214
19159TIP3   OH278967   1.605   0.470  14.784 -0.0976  0.4028 -0.2449
19159TIP3    H178968   1.678   0.527  14.761 -0.1793  0.1340 -1.1884
19159TIP3    H278969   1.580   0.498  14.873  1.4521  0.1555  0.2927
19160TIP3   OH278970   1.787   6.430   5.774  0.0912 -0.2478  0.4323
19160TIP3    H178971   1.857   6.465   5.829 -0.4349 -0.5585  1.3159
19160TIP3    H278972   1.707   6.472   5.807 -0.0462  0.9101 -1.2434
19161TIP3   OH278973   4.902   2.636  16.606 -0.0677 -1.0842  0.0165
19161TIP3    H178974   4.978   2.578  16.600  0.2656 -0.5695 -1.2982
19161TIP3    H278975   4.860   2.628  16.521 -0.3952  0.0712  0.0530
19162TIP3   OH278976   2.952   0.841  17.059 -0.0305 -0.1777  0.1971
19162TIP3    H178977   2.992   0.848  16.972  0.6889  0.1125  0.5380
19162TIP3    H278978   2.965   0.928  17.097  1.4934 -0.8579  1.3503
19163TIP3   OH278979   1.317   2.980  16.516  0.3417  0.0448 -0.5402
19163TIP3    H178980   1.344   2.919  16.585  2.0068  2.0484  0.6937
19163TIP3    H278981   1.327   2.931  16.435  0.6717 -1.6073  0.4457
19164TIP3   OH278982   6.530   4.603   5.343  0.0687  0.2565 -0.3241
19164TIP3    H178983   6.491   4.689   5.356 -2.1422 -0.8109  0.7208
19164TIP3    H278984   6.589   4.614   5.268  0.2283  2.7505  0.0862
19165TIP3   OH278985   0.972   1.638   5.102 -0.0638  0.0508 -0.1160
19165TIP3    H178986   1.025   1.715   5.122 -1.4954  0.8293  0.9698
19165TIP3    H278987   0.918   1.626   5.180 -0.2370 -1.7601 -0.4785
19166TIP3   OH278988   6.748   0.451   0.619 -0.0816  0.0082 -0.0312
19166TIP3    H178989   6.800   0.447   0.700 -0.3598  1.1932  0.2238
19166TIP3    H278990   6.671   0.398   0.637  0.8054 -1.4018 -0.2537
19167TIP3   OH278991   6.640   4.916   1.801 -0.3366 -0.6713  0.2575
19167TIP3    H178992   6.706   4.945   1.739  0.6230 -2.3186  0.4500
19167TIP3    H278993   6.575   4.986   1.802  1.7248  1.3241  0.6007
19168TIP3   OH278994   5.642   2.622   4.243 -0.7634 -0.1327  0.2659
19168TIP3    H178995   5.716   2.589   4.294  1.1352  1.7246 -1.1525
19168TIP3    H278996   5.645   2.572   4.161  0.2325  1.3407 -0.6297
19169TIP3   OH278997   2.384   0.983   0.731 -0.2956 -0.3577 -0.5482
19169TIP3    H178998   2.347   1.052   0.787 -0.2268 -1.0947  0.4289
19169TIP3    H278999   2.352   0.902   0.769  0.4485 -0.9104 -1.0782
19170TIP3   OH279000   6.819   5.671   5.000  0.4633 -0.2683  0.1394
19170TIP3    H179001   6.890   5.735   4.995 -1.1406  1.5575 -0.8359
19170TIP3    H279002   6.860   5.592   5.035  2.6994  1.0520  0.7104
19171TIP3   OH279003   4.730   3.894   6.162  0.2989  0.3191  0.0857
19171TIP3    H179004   4.679   3.834   6.217 -0.6701  1.1225  0.1033
19171TIP3    H279005   4.817   3.855   6.157 -0.3576 -1.1855 -0.0676
19172TIP3   OH279006   4.123   5.221   2.806  0.6429 -0.4871  0.4318
19172TIP3    H179007   4.081   5.136   2.798  1.9228 -1.0390 -1.0725
19172TIP3    H279008   4.068   5.280   2.755  0.1257 -0.5665  0.8995
19173TIP3   OH279009   2.239   5.559  12.057 -0.1270  0.3832 -0.1493
19173TIP3    H179010   2.181   5.540  12.130 -1.4605 -0.8207 -1.4657
19173TIP3    H279011   2.321   5.587  12.098 -1.6560  2.3414  1.7628
19174TIP3   OH279012   1.295   6.687  11.505  0.2967 -0.1928  0.4452
19174TIP3    H179013   1.350   6.698  11.427 -1.0542 -0.7395 -0.6231
19174TIP3    H279014   1.266   6.596  11.501 -0.6716  0.0790  1.0043
19175TIP3   OH279015   4.383   3.079   6.223  0.1021  0.1155 -0.2704
19175TIP3    H179016   4.408   3.163   6.185 -1.2365  0.2730 -0.8700
19175TIP3    H279017   4.366   3.099   6.315 -1.7200  0.8788 -0.7257
19176TIP3   OH279018   0.180   5.796   3.907 -0.1655  0.2522 -0.2981
19176TIP3    H179019   0.177   5.700   3.907  1.5197  0.1621 -0.6306
19176TIP3    H279020   0.272   5.816   3.889 -0.4475  1.9349  0.0419
19177TIP3   OH279021   3.953   6.616   3.736 -0.4360  0.4549  0.5061
19177TIP3    H179022   3.997   6.582   3.659  1.0245  2.5619  0.3235
19177TIP3    H279023   4.023   6.626   3.801 -0.6980  3.0002  0.5252
19178TIP3   OH279024   6.027   6.177  11.298 -0.2917 -0.3504  0.5843
19178TIP3    H179025   6.042   6.229  11.219 -0.6765 -0.7288  0.2545
19178TIP3    H279026   6.114   6.145  11.322  0.1341  1.3719  1.4614
19179TIP3   OH279027   6.082   1.339  14.734 -0.4084  0.2359 -0.5286
19179TIP3    H179028   6.072   1.244  14.727 -3.1087  0.3218  0.9539
19179TIP3    H279029   6.142   1.362  14.663 -0.7516 -2.3887 -1.7910
19180TIP3   OH279030   0.778   5.534  11.515  0.5126 -0.2625  0.8694
19180TIP3    H179031   0.693   5.503  11.484  0.4151 -0.1449  1.0195
19180TIP3    H279032   0.764   5.625  11.538  1.1994  0.4131 -1.1738
19181TIP3   OH279033   2.677   1.925  15.662 -0.4524 -0.3197 -0.0440
19181TIP3    H179034   2.718   2.004  15.626 -1.3820  0.2530  0.1347
19181TIP3    H279035   2.701   1.925  15.755 -1.1971  0.2401  0.1520
19182TIP3   OH279036   2.227   6.632  15.664 -0.0699 -0.3417 -0.5422
19182TIP3    H179037   2.285   6.704  15.637 -0.2963  0.1124  0.1584
19182TIP3    H279038   2.139   6.671  15.664 -0.0186 -0.1172  1.4760
19183TIP3   OH279039   0.681   5.098   2.506  0.0101  0.0435 -0.1736
19183TIP3    H179040   0.771   5.082   2.535  0.2289 -0.8385 -1.2538
19183TIP3    H279041   0.632   5.114   2.586  1.0210 -0.0557  0.4787
19184TIP3   OH279042   6.087   3.529   0.972  0.2894 -0.2705 -0.2069
19184TIP3    H179043   6.112   3.440   0.946  0.2359  0.1507 -1.8325
19184TIP3    H279044   6.144   3.585   0.920 -0.3777  0.6508  0.0458
19185TIP3   OH279045   3.417   1.928  15.226  0.0157 -0.6923 -1.0348
19185TIP3    H179046   3.473   1.868  15.177  0.7705  0.0569 -1.1233
19185TIP3    H279047   3.347   1.951  15.164 -1.3149 -2.8368 -0.4058
19186TIP3   OH279048   6.772   5.918   2.214 -0.7587 -0.0113 -0.0976
19186TIP3    H179049   6.797   5.828   2.196 -1.1854 -0.2121  0.2890
19186TIP3    H279050   6.795   5.966   2.135 -0.7380 -0.5012 -0.3904
19187TIP3   OH279051   6.813   0.814   3.218  0.0450  0.3636  0.4572
19187TIP3    H179052   6.826   0.742   3.157  2.5064  1.4835 -0.4617
19187TIP3    H279053   6.880   0.802   3.285  0.0104  1.3810  0.6949
19188TIP3   OH279054   0.625   1.895  11.677  0.2844 -0.0112 -0.2073
19188TIP3    H179055   0.582   1.810  11.674  1.4642 -0.6247 -0.1788
19188TIP3    H279056   0.553   1.958  11.689 -0.6114 -0.9755 -0.3738
19189TIP3   OH279057   6.625   0.979  11.349  0.0114  0.0191  0.1794
19189TIP3    H179058   6.563   1.014  11.413 -2.6064 -0.8062 -1.7334
19189TIP3    H279059   6.704   0.960  11.400 -1.2862  1.0781  2.7674
19190TIP3   OH279060   1.944   2.020  11.301  0.3408 -0.3443 -0.1505
19190TIP3    H179061   2.022   2.001  11.248  0.1616 -1.1079 -0.1562
19190TIP3    H279062   1.966   2.100  11.348  1.1329 -0.5503 -0.1560
19191TIP3   OH279063   4.229   6.539  12.729  0.6178  0.3208 -0.2439
19191TIP3    H179064   4.204   6.573  12.643 -1.0786  0.2793  0.2059
19191TIP3    H279065   4.195   6.450  12.730  0.0155  0.5572  0.7341
19192TIP3   OH279066   0.997   0.642  15.609 -0.1770 -0.2114 -0.5801
19192TIP3    H179067   0.966   0.732  15.622  0.0335 -0.3000  0.7013
19192TIP3    H279068   1.019   0.637  15.516  0.3407  1.2393 -0.5640
19193TIP3   OH279069   3.254   6.186   0.592 -0.1506 -0.1868 -0.2224
19193TIP3    H179070   3.290   6.103   0.561 -0.2128  0.1189 -1.1351
19193TIP3    H279071   3.203   6.162   0.670  2.0202 -0.6167  1.1675
19194TIP3   OH279072   4.007   4.443  12.167  0.0322 -0.0086 -0.2446
19194TIP3    H179073   4.058   4.376  12.212 -1.6325  0.1209  2.0180
19194TIP3    H279074   4.071   4.491  12.114  1.7185 -1.6303  0.2247
19195TIP3   OH279075   5.936   4.571  12.055 -0.2967  0.3899 -0.1643
19195TIP3    H179076   5.947   4.649  12.001  2.0489 -0.1936 -0.6252
19195TIP3    H279077   6.025   4.546  12.079 -0.9973 -2.0838  0.0601
19196TIP3   OH279078   1.909   5.553  15.268  0.7248 -0.0944  0.0630
19196TIP3    H179079   1.863   5.632  15.241  1.6232  0.9751  1.4955
19196TIP3    H279080   1.840   5.495  15.301  0.3130  1.6607  2.6327
19197TIP3   OH279081   0.517   5.296  12.974  0.1933  0.0002  0.4156
19197TIP3    H179082   0.500   5.362  12.907 -0.1940  1.1144  1.5869
19197TIP3    H279083   0.597   5.325  13.017 -0.3549  0.0861  1.3929
19198TIP3   OH279084   0.069   4.593   5.362 -0.4912  0.2269 -0.5704
19198TIP3    H179085   0.086   4.664   5.424 -2.0891  0.4749 -0.3937
19198TIP3    H279086   0.126   4.613   5.287 -1.2021  1.9199 -0.6964
19199TIP3   OH279087   1.156   4.741  13.412 -0.0583 -0.3885  0.1611
19199TIP3    H179088   1.085   4.795  13.446  0.4023  0.0434  0.4415
19199TIP3    H279089   1.168   4.673  13.478 -0.4203 -0.6516 -0.0380
19200TIP3   OH279090   1.787   6.744  14.344 -0.2059  0.0934 -0.6094
19200TIP3    H179091   1.707   6.708  14.384 -0.2696  0.6665 -0.2067
19200TIP3    H279092   1.787   6.709  14.255 -1.8558  1.5002 -1.2191
19201TIP3   OH279093   3.428   4.660   2.688  0.2179  0.1125  0.2323
19201TIP3    H179094   3.452   4.747   2.657  0.5888  0.4366  1.3839
19201TIP3    H279095   3.335   4.651   2.666  0.4757  0.3121 -0.9688
19202TIP3   OH279096   1.235   4.635   2.003 -0.2691  0.2081 -0.1440
19202TIP3    H179097   1.249   4.611   2.095 -1.3002 -0.8422 -0.2423
19202TIP3    H279098   1.316   4.609   1.959 -0.6319 -1.4620  0.0916
19203TIP3   OH279099   0.382   6.155   0.313  0.0083  0.3832  0.2840
19203TIP3    H179100   0.416   6.069   0.339 -0.6681  0.0205 -0.0390
19203TIP3    H279101   0.365   6.147   0.219  1.0706  1.2495 -0.0069
19204TIP3   OH279102   5.600   0.876   0.144 -0.0524 -0.2896  0.1573
19204TIP3    H179103   5.556   0.799   0.179  0.8496 -0.5459  0.7604
19204TIP3    H279104   5.556   0.950   0.185  0.3675 -0.5591  1.1112
19205TIP3   OH279105   2.687   1.198  16.373  0.4162 -0.4973  0.2696
19205TIP3    H179106   2.649   1.138  16.437 -2.2805  1.0087  0.2175
19205TIP3    H279107   2.645   1.174  16.290  1.4275 -0.3075 -0.3186
19206TIP3   OH279108   1.516   4.707  16.933  0.1429  0.0646 -0.1522
19206TIP3    H179109   1.424   4.701  16.907  0.8415 -2.5885 -2.4831
19206TIP3    H279110   1.528   4.635  16.996  0.6897  0.2747 -0.0108
19207TIP3   OH279111   0.920   3.549   1.957  0.2437 -0.0015 -0.6399
19207TIP3    H179112   0.905   3.569   2.049 -0.1674  0.4740 -0.8063
19207TIP3    H279113   0.834   3.526   1.923  0.7303 -2.4934 -0.3702
19208TIP3   OH279114   0.927   4.377   4.089  0.0658 -0.0297 -0.1641
19208TIP3    H179115   0.906   4.357   3.998 -0.5531  0.5269 -0.1468
19208TIP3    H279116   0.896   4.301   4.139 -1.4221  0.5296 -0.2016
19209TIP3   OH279117   0.693   1.776   2.980 -0.0508  0.1220  0.3239
19209TIP3    H179118   0.762   1.815   2.926 -2.0379  1.2530 -1.5814
19209TIP3    H279119   0.629   1.846   2.989 -1.9106 -1.4973  0.2258
19210TIP3   OH279120   4.559   3.231   2.366 -0.5698 -0.2574  0.5717
19210TIP3    H179121   4.590   3.220   2.456  2.0018 -3.2420 -0.4719
19210TIP3    H279122   4.640   3.231   2.314 -2.0628 -0.4677 -1.8765
19211TIP3   OH279123   1.746   6.776  14.029 -0.3002  0.2228 -0.4371
19211TIP3    H179124   1.671   6.832  14.008  0.3174  1.8882  1.4374
19211TIP3    H279125   1.812   6.837  14.062  0.5609 -1.5534  1.3392
19212TIP3   OH279126   3.013   3.361   0.032 -0.1941 -0.4955 -0.3493
19212TIP3    H179127   3.071   3.429  -0.002 -1.0659  0.4696  0.0329
19212TIP3    H279128   2.933   3.369  -0.021  0.3476 -2.4698 -1.5494
19213TIP3   OH279129   6.524   3.208  17.186  0.3679  0.2042  0.2183
19213TIP3    H179130   6.479   3.246  17.262 -1.4299 -0.1880 -0.5920
19213TIP3    H279131   6.536   3.282  17.126 -1.6119 -0.1000 -0.6456
19214TIP3   OH279132   2.343   3.378   4.369 -0.0038  0.4446 -0.2276
19214TIP3    H179133   2.401   3.451   4.350  1.9498 -0.9037  0.2648
19214TIP3    H279134   2.331   3.381   4.464  2.0050 -1.1390  0.1554
19215TIP3   OH279135   5.263   2.309   1.471  0.2244 -0.1645  0.0417
19215TIP3    H179136   5.284   2.318   1.564  0.7054 -0.2318 -0.0602
19215TIP3    H279137   5.323   2.370   1.427 -1.2986  1.3336 -0.0747
19216TIP3   OH279138   0.397   1.646   2.170 -0.1961 -0.4519  0.5100
19216TIP3    H179139   0.458   1.573   2.173  0.3954  0.0486  2.7081
19216TIP3    H279140   0.321   1.615   2.219  0.1336  0.4331  1.6146
19217TIP3   OH279141   6.061   4.246   3.135 -0.2381 -0.0727 -0.5240
19217TIP3    H179142   6.025   4.266   3.049 -0.3862 -1.1476 -0.7228
19217TIP3    H279143   5.985   4.222   3.188  0.1093 -2.5399 -0.9983
19218TIP3   OH279144   2.956   4.272   4.223 -0.6414  0.2242  0.0585
19218TIP3    H179145   3.031   4.330   4.235 -0.7016  0.1322  0.8735
19218TIP3    H279146   2.979   4.220   4.146  0.7563 -0.7644  1.0878
19219TIP3   OH279147   1.401   5.025  12.035 -0.0688  0.0006  0.2243
19219TIP3    H179148   1.305   5.018  12.037 -0.1636  0.4725 -1.2265
19219TIP3    H279149   1.426   4.992  11.948  0.8902  1.6153 -0.1587
19220TIP3   OH279150   3.881   3.782   3.884 -0.4408 -0.0679  0.6402
19220TIP3    H179151   3.964   3.816   3.916 -0.2086  0.7803 -0.7429
19220TIP3    H279152   3.823   3.784   3.960 -0.9365  5.0897  0.4746
19221TIP3   OH279153   3.406   6.089  10.813 -0.1484  0.4197  0.1234
19221TIP3    H179154   3.329   6.120  10.862  0.6711  0.2132  1.5906
19221TIP3    H279155   3.404   6.140  10.732 -3.7049 -1.8733 -1.4989
19222TIP3   OH279156   3.205   0.650  16.560 -0.1776  0.1029  0.1064
19222TIP3    H179157   3.268   0.579  16.568 -1.0686 -0.8629 -1.0495
19222TIP3    H279158   3.241   0.706  16.491 -0.2868 -0.1397 -0.1511
19223TIP3   OH279159   5.450   1.211  14.915  0.3344 -0.3620 -0.6046
19223TIP3    H179160   5.483   1.123  14.935 -0.2780 -0.5686 -0.4464
19223TIP3    H279161   5.486   1.266  14.985  0.5524 -0.5293 -0.5842
19224TIP3   OH279162   0.889   3.263   2.092 -0.5032  0.0394 -0.3820
19224TIP3    H179163   0.969   3.296   2.132 -1.4877  3.0905 -0.7114
19224TIP3    H279164   0.910   3.253   1.999 -0.4795  0.7201 -0.4477
19225TIP3   OH279165   2.641   4.993  11.163  0.4116  0.6964 -0.4029
19225TIP3    H179166   2.733   4.998  11.186  0.2471  2.8325 -0.0489
19225TIP3    H279167   2.596   4.982  11.247  0.3184 -0.9809 -0.6197
19226TIP3   OH279168   4.744   1.492  12.404  0.8162 -0.0995 -0.6369
19226TIP3    H179169   4.674   1.527  12.350 -0.7979 -2.1080  0.0054
19226TIP3    H279170   4.800   1.444  12.343  0.7423  0.2177 -0.9505
19227TIP3   OH279171   0.293   3.457   2.250  0.3472 -0.0322  0.0137
19227TIP3    H179172   0.250   3.540   2.267 -1.0146 -0.2486 -2.0339
19227TIP3    H279173   0.234   3.410   2.192  1.4164 -2.1523  0.5166
19228TIP3   OH279174   6.795   4.216   2.888 -0.5708  0.1181  0.5261
19228TIP3    H179175   6.873   4.271   2.902  1.1962 -1.9346 -0.6171
19228TIP3    H279176   6.825   4.127   2.907 -2.9743 -0.6573  1.0689
19229TIP3   OH279177   2.753   2.541   2.448  0.5182  0.4161  0.3317
19229TIP3    H179178   2.702   2.485   2.390  1.4493  0.7652 -0.8650
19229TIP3    H279179   2.743   2.629   2.411  0.9056  0.6896  0.8677
19230TIP3   OH279180   4.220   5.162   3.512 -0.2617  0.0779  0.3668
19230TIP3    H179181   4.165   5.230   3.551 -0.3484  0.0990  0.2088
19230TIP3    H279182   4.278   5.134   3.583  0.0855  0.6427  0.3100
19231TIP3   OH279183   0.313   3.140  14.432  0.4173 -0.0595 -0.0872
19231TIP3    H179184   0.259   3.218  14.428 -0.0478 -0.2274  1.9342
19231TIP3    H279185   0.403   3.172  14.428  0.2451  0.6534  1.1907
19232TIP3   OH279186   2.395   1.290   6.224 -0.3979  0.6169 -0.1921
19232TIP3    H179187   2.372   1.383   6.229 -1.7035  0.3319 -0.4331
19232TIP3    H279188   2.311   1.245   6.234  0.3710 -0.5812  1.3494
19233TIP3   OH279189   3.872   2.597  11.540  0.6809 -0.8842  0.3854
19233TIP3    H179190   3.804   2.663  11.525  1.7284  0.1503 -0.0393
19233TIP3    H279191   3.868   2.541  11.462 -0.8864 -1.9941  1.2033
19234TIP3   OH279192   5.937   1.334  11.894  0.3987 -0.1775  0.2516
19234TIP3    H179193   5.999   1.320  11.966 -0.6868 -0.5854  1.1427
19234TIP3    H279194   5.981   1.299  11.817  2.1064  1.3973  0.4395
19235TIP3   OH279195   5.446   1.189   0.514  0.1660 -0.1856 -0.1519
19235TIP3    H179196   5.358   1.152   0.516  0.2597 -0.3910  0.5631
19235TIP3    H279197   5.470   1.189   0.422 -0.5911 -0.1056 -0.3615
19236TIP3   OH279198   4.819   6.219   3.239  0.1629  0.4735  0.0102
19236TIP3    H179199   4.858   6.276   3.173 -0.0872  0.3666 -0.2306
19236TIP3    H279200   4.766   6.157   3.189 -0.2898  0.5965  0.3362
19237TIP3   OH279201   0.473   3.722  14.373  0.2004 -0.9094  0.5352
19237TIP3    H179202   0.473   3.796  14.433 -0.5271 -0.6009  0.1726
19237TIP3    H279203   0.507   3.756  14.291 -0.1341 -0.9661  0.3675
19238TIP3   OH279204   1.217   4.988   1.508 -0.1515  0.2483  0.0367
19238TIP3    H179205   1.261   4.915   1.464  1.7767  0.6952  1.1287
19238TIP3    H279206   1.209   4.961   1.599  0.9079  1.5093  0.5295
19239TIP3   OH279207   1.767   6.761  11.707  0.4254 -0.1011  0.4752
19239TIP3    H179208   1.685   6.811  11.720  0.8064  0.0843  2.6175
19239TIP3    H279209   1.753   6.680  11.757  0.0449 -1.9949 -2.4812
19240TIP3   OH279210   0.714   0.699  15.385 -0.3559 -0.1359 -0.2396
19240TIP3    H179211   0.809   0.698  15.374 -0.1900  1.9016  0.5707
19240TIP3    H279212   0.696   0.626  15.443  0.8251 -0.0649  0.2367
19241TIP3   OH279213   5.391   2.235  12.839 -0.0031 -1.1377  0.0636
19241TIP3    H179214   5.297   2.247  12.851  0.4353  3.3402  0.8667
19241TIP3    H279215   5.404   2.242  12.745 -0.3393  1.7101  0.1281
19242TIP3   OH279216   3.555   0.612   1.784 -0.5381 -0.3223  0.3952
19242TIP3    H179217   3.644   0.632   1.814 -0.0302 -2.9899  0.9086
19242TIP3    H279218   3.500   0.626   1.860  0.1638 -2.9679  1.5232
19243TIP3   OH279219   3.207   2.878   1.011 -0.3929  0.3425  0.3378
19243TIP3    H179220   3.171   2.801   1.055 -0.2353  0.2265  0.2653
19243TIP3    H279221   3.149   2.950   1.037 -1.5695 -0.0964 -0.9526
19244TIP3   OH279222   5.257   3.232   2.338  0.2484  0.0897 -0.1450
19244TIP3    H179223   5.344   3.192   2.340  0.2393  0.0413 -0.5801
19244TIP3    H279224   5.200   3.164   2.300  0.2545  0.5368 -0.9918
19245TIP3   OH279225   4.396   6.058  13.651  0.2719 -0.0194 -0.5073
19245TIP3    H179226   4.448   6.127  13.610 -0.9370  0.3529 -1.4763
19245TIP3    H279227   4.337   6.104  13.710  1.1826 -0.4590  0.7751
19246TIP3   OH279228   2.032   2.613  16.830 -0.0925  0.6445  0.5455
19246TIP3    H179229   2.053   2.623  16.737 -1.1614 -1.2518  0.0569
19246TIP3    H279230   2.110   2.574  16.868 -0.2129 -0.0168  0.1230
19247TIP3   OH279231   3.577   1.707  16.862 -0.1145  0.5241  0.1635
19247TIP3    H179232   3.577   1.642  16.792  0.8702  0.7915 -0.0912
19247TIP3    H279233   3.657   1.758  16.849  0.1972  0.4615  1.5919
19248TIP3   OH279234   5.682   4.017   5.534 -0.0680 -0.8093  0.2068
19248TIP3    H179235   5.753   3.954   5.539  0.1601 -0.6159 -0.4339
19248TIP3    H279236   5.648   4.024   5.623  3.0441  1.7422  1.3894
19249TIP3   OH279237   3.543   3.382  14.541 -0.0721 -0.1013  0.1881
19249TIP3    H179238   3.561   3.434  14.463  0.4261 -0.7095 -0.1159
19249TIP3    H279239   3.608   3.312  14.539 -0.8179 -0.8240  0.4976
19250TIP3   OH279240   2.846   3.122  14.083 -0.6784  0.4182  0.1922
19250TIP3    H179241   2.902   3.195  14.058  0.0666 -0.4880 -0.9161
19250TIP3    H279242   2.893   3.044  14.053 -2.4197 -0.3886 -0.6052
19251TIP3   OH279243   1.107   6.139   6.141 -0.5008 -0.0748 -0.0751
19251TIP3    H179244   1.110   6.097   6.228 -1.0051 -0.9578 -0.4725
19251TIP3    H279245   1.198   6.161   6.122 -0.5362  1.4425  1.2905
19252TIP3   OH279246   2.269   3.901   5.075 -0.4668 -0.1006 -0.1889
19252TIP3    H179247   2.277   3.917   5.169 -1.3336 -0.6730 -0.0059
19252TIP3    H279248   2.236   3.983   5.040  1.1642  0.5755 -0.2119
19253TIP3   OH279249   1.140   4.950   3.416  0.0447 -0.4223 -0.1040
19253TIP3    H179250   1.224   4.905   3.413  0.7935  0.5769  2.4717
19253TIP3    H279251   1.089   4.902   3.482 -1.4537 -1.0124 -1.6211
19254TIP3   OH279252   5.659   6.053  16.683  0.3910 -0.5265  0.5419
19254TIP3    H179253   5.605   6.055  16.604  0.8000  0.3993  0.2851
19254TIP3    H279254   5.703   6.138  16.685  2.0435 -1.3477  0.6136
19255TIP3   OH279255   3.442   2.963   6.559 -0.2778  0.5576  0.1152
19255TIP3    H179256   3.439   2.963   6.655 -0.9963  0.0327  0.0975
19255TIP3    H279257   3.351   2.978   6.532 -0.3742 -0.9249 -0.4749
19256TIP3   OH279258   0.856   3.759   1.502  0.1292 -0.6358 -0.6946
19256TIP3    H179259   0.828   3.707   1.577  1.7778  0.6028  0.8695
19256TIP3    H279260   0.841   3.702   1.426 -3.8988 -1.0409  0.1955
19257TIP3   OH279261   2.337   5.944  11.850  0.0915 -0.0047 -0.3149
19257TIP3    H179262   2.334   5.962  11.756 -0.3413 -1.7974 -0.6849
19257TIP3    H279263   2.302   5.855  11.858 -1.3281  0.6590  1.6983
19258TIP3   OH279264   3.949   4.475   5.540 -0.3414 -0.2763 -0.3582
19258TIP3    H179265   3.998   4.498   5.620 -1.2713  0.1047  0.1113
19258TIP3    H279266   3.939   4.380   5.545  1.9928 -0.6515 -1.4304
19259TIP3   OH279267   4.270   0.959  14.551  0.2799 -0.0816 -0.5324
19259TIP3    H179268   4.315   0.921  14.475  0.3101 -1.4138  0.1124
19259TIP3    H279269   4.285   0.895  14.621  0.2966  1.1425  0.6123
19260TIP3   OH279270   3.643   5.635  14.910  0.6114 -0.0556  0.0328
19260TIP3    H179271   3.615   5.582  14.836  2.4271  1.8638 -2.1891
19260TIP3    H279272   3.625   5.725  14.883 -0.0098  0.6615  2.5783
19261TIP3   OH279273   6.553   2.537  12.809 -0.2430 -0.2917 -0.1397
19261TIP3    H179274   6.520   2.559  12.722 -1.2543  0.1087  0.3280
19261TIP3    H279275   6.614   2.465  12.794 -0.5529 -0.3550 -1.1597
19262TIP3   OH279276   2.217   3.062   0.945  0.1509  0.3776  0.0535
19262TIP3    H179277   2.173   3.069   1.030  1.3138  0.1122  0.6867
19262TIP3    H279278   2.205   2.971   0.919  0.4558  0.2684  0.2959
19263TIP3   OH279279   2.567   5.108  12.202 -0.8023  0.6399 -0.8264
19263TIP3    H179280   2.510   5.179  12.172  0.1592  1.5510 -0.6006
19263TIP3    H279281   2.549   5.035  12.143 -3.1977  0.3942  0.1123
19264TIP3   OH279282   1.778   2.718   4.690  0.4203 -0.0745  0.0927
19264TIP3    H179283   1.729   2.800   4.701  1.1988  0.5183 -0.7654
19264TIP3    H279284   1.800   2.715   4.597 -0.0875 -1.5560 -0.0050
19265TIP3   OH279285   3.190   5.652  13.168  0.1401  0.4334  0.1061
19265TIP3    H179286   3.247   5.728  13.158 -1.3661  1.8285  1.4966
19265TIP3    H279287   3.157   5.635  13.080  2.2258 -0.0994 -0.6329
19266TIP3   OH279288   5.486   0.770  15.439  0.3649 -0.4873  0.0692
19266TIP3    H179289   5.448   0.683  15.432  0.2818 -0.5414  1.0152
19266TIP3    H279290   5.440   0.822  15.373 -1.3046 -0.5770  1.0901
19267TIP3   OH279291   2.414   2.078  11.074  0.3613 -0.2268 -0.2004
19267TIP3    H179292   2.468   2.105  11.148  1.3408 -2.2000 -0.1219
19267TIP3    H279293   2.468   2.095  10.997 -0.1126  0.5400 -0.3773
19268TIP3   OH279294   4.819   1.070  12.193 -0.0425 -0.1091  0.7816
19268TIP3    H179295   4.869   1.031  12.121 -0.9316  1.6532 -0.9135
19268TIP3    H279296   4.734   1.026  12.190 -0.1587  0.1243  0.5787
19269TIP3   OH279297   1.092   6.568  16.740  0.2082  0.2176 -0.3758
19269TIP3    H179298   1.125   6.559  16.829  1.4958  0.1579 -0.8312
19269TIP3    H279299   1.114   6.658  16.715 -1.3833  0.6949 -0.1796
19270TIP3   OH279300   2.243   3.085  14.132 -0.2929  0.2503  0.3826
19270TIP3    H179301   2.299   3.115  14.204 -0.3364 -0.1448  0.5848
19270TIP3    H279302   2.266   2.993  14.121 -0.0409  0.3977 -0.3390
19271TIP3   OH279303   3.235   0.523  15.161  0.2294  0.3237  0.2077
19271TIP3    H179304   3.246   0.429  15.174  1.4899  0.5141  0.6602
19271TIP3    H279305   3.232   0.534  15.066 -0.1051 -0.1815  0.1538
19272TIP3   OH279306   5.049   6.014  16.434 -0.0059 -0.2493  0.1605
19272TIP3    H179307   5.074   5.931  16.475  1.0266 -0.1430 -0.2130
19272TIP3    H279308   5.009   6.064  16.504 -1.9894 -1.5824  0.0699
19273TIP3   OH279309   0.931   2.014  11.322  0.2608 -0.7292  0.0231
19273TIP3    H179310   0.944   1.965  11.403  0.8976 -1.4957 -0.5327
19273TIP3    H279311   0.978   1.964  11.256 -1.3896 -0.8609 -1.0910
19274TIP3   OH279312   0.297   3.515   4.790 -0.2813  0.1030 -0.2781
19274TIP3    H179313   0.278   3.495   4.882 -1.7400  0.4019 -0.4934
19274TIP3    H279314   0.364   3.584   4.794 -1.3534  1.1325  0.5978
19275TIP3   OH279315   5.882   1.076  14.848 -0.4374  0.5143  0.4113
19275TIP3    H179316   5.861   0.991  14.810  2.0856 -0.5054  1.1180
19275TIP3    H279317   5.876   1.137  14.774  1.1585 -0.8874 -0.9789
19276TIP3   OH279318   4.702   3.629   4.673 -0.3834 -0.2120  0.1116
19276TIP3    H179319   4.707   3.697   4.605 -2.0807  0.5285  0.6598
19276TIP3    H279320   4.652   3.670   4.743  0.3117 -1.3721  1.3261
19277TIP3   OH279321   1.367   6.361   6.541  0.1212 -0.7613  0.4825
19277TIP3    H179322   1.447   6.412   6.532  0.8421 -1.5599  2.0466
19277TIP3    H279323   1.306   6.420   6.586 -0.3344 -0.0223 -1.0460
19278TIP3   OH279324   1.796   4.599  13.103  0.3073  0.5833  0.4990
19278TIP3    H179325   1.719   4.652  13.083  0.9265  0.7856 -1.5247
19278TIP3    H279326   1.811   4.614  13.197 -0.6465  2.5015  0.4021
19279TIP3   OH279327   3.331   1.738  16.086  0.2099 -0.5373  0.6189
19279TIP3    H179328   3.333   1.644  16.071 -1.1417 -0.6068  0.7383
19279TIP3    H279329   3.422   1.766  16.081  0.6933 -1.9536  1.2756
19280TIP3   OH279330   5.310   6.523  16.751 -0.0740  0.5966 -0.8281
19280TIP3    H179331   5.319   6.559  16.663 -0.9730  1.1145 -0.7161
19280TIP3    H279332   5.243   6.455  16.742 -0.7326  1.1759 -0.4037
19281TIP3   OH279333   0.433   3.084   2.206  0.4013 -0.1989 -0.1043
19281TIP3    H179334   0.467   3.079   2.116  0.8855  0.4304  0.0304
19281TIP3    H279335   0.338   3.080   2.197  0.4666 -0.5705 -0.6147
19282TIP3   OH279336   2.157   0.167  14.726 -0.1058  0.0524 -0.9068
19282TIP3    H179337   2.211   0.245  14.716  0.0749  0.0862  0.2061
19282TIP3    H279338   2.079   0.185  14.673  1.1492 -0.2130 -2.9546
19283TIP3   OH279339   5.918   1.710   2.804  0.1128 -0.0179 -0.9053
19283TIP3    H179340   5.877   1.654   2.870 -0.5146 -1.4894 -2.4569
19283TIP3    H279341   6.010   1.713   2.829 -0.1719 -0.2812  0.2087
19284TIP3   OH279342   5.070   6.528  14.804 -0.4087 -0.1109 -0.5248
19284TIP3    H179343   5.163   6.550  14.815 -0.2669 -0.0755 -1.6484
19284TIP3    H279344   5.037   6.517  14.893  0.8808 -1.0083 -0.1293
19285TIP3   OH279345   1.807   4.819  17.158 -0.2746 -0.0356  0.1372
19285TIP3    H179346   1.835   4.848  17.245  3.6507 -0.2157 -0.8697
19285TIP3    H279347   1.746   4.887  17.129 -1.0670  0.4456  2.6342
19286TIP3   OH279348   3.920   6.071  15.314  0.7420 -0.3698  0.1296
19286TIP3    H179349   3.923   6.146  15.255 -1.7893 -0.9009 -0.8218
19286TIP3    H279350   3.937   6.108  15.400 -1.4886  1.5795 -0.1507
19287TIP3   OH279351   3.142   0.793  14.500  0.0337  0.1046  0.2011
19287TIP3    H179352   3.153   0.868  14.442 -0.6630  1.7529  2.0886
19287TIP3    H279353   3.226   0.747  14.495  1.3442  2.2757  0.6628
19288TIP3   OH279354   1.284   5.804  11.080 -0.6584  0.1886  0.2085
19288TIP3    H179355   1.326   5.823  10.996  0.7945 -0.8592  0.6600
19288TIP3    H279356   1.195   5.839  11.070 -0.1382  1.2241 -1.2941
19289TIP3   OH279357   5.469   5.780  14.489 -0.1902  0.0076 -0.5947
19289TIP3    H179358   5.523   5.858  14.491 -1.4831  0.9122  0.5098
19289TIP3    H279359   5.460   5.754  14.580 -0.5066 -0.9233 -0.8791
19290TIP3   OH279360   4.532   6.752  16.253  0.4931 -0.1103  0.2552
19290TIP3    H179361   4.583   6.675  16.227 -1.5033 -1.6035  0.5657
19290TIP3    H279362   4.598   6.817  16.279  2.2437 -1.5297 -0.4752
19291TIP3   OH279363   1.926   4.535   3.924 -0.0463  0.0196 -0.1970
19291TIP3    H179364   1.977   4.550   4.003  0.7348 -0.2144 -0.6427
19291TIP3    H279365   1.849   4.592   3.933  0.5396  0.7558  0.2616
19292TIP3   OH279366   2.980   4.112   1.113  0.5502 -0.9945 -0.0247
19292TIP3    H179367   2.948   4.186   1.165  0.3797 -0.2832 -1.1265
19292TIP3    H279368   2.934   4.036   1.149  0.1378 -0.4571  0.6017
19293TIP3   OH279369   3.024   4.876   2.425  0.0975 -0.4527 -0.0650
19293TIP3    H179370   2.985   4.947   2.372  0.8941  2.1527  2.5683
19293TIP3    H279371   2.960   4.859   2.493  1.1219 -0.1925  0.9879
19294TIP3   OH279372   5.207   4.475  11.388 -0.0050 -0.7059 -0.7571
19294TIP3    H179373   5.207   4.393  11.339 -0.6376 -0.9790 -0.3205
19294TIP3    H279374   5.233   4.450  11.477 -1.2422 -0.6307 -0.3451
19295TIP3   OH279375   4.099   6.104  10.984  0.3966 -0.2828  0.3572
19295TIP3    H179376   4.078   6.038  11.050 -1.9281 -2.2880 -2.1523
19295TIP3    H279377   4.193   6.096  10.971  0.3791 -2.2144  1.1000
19296TIP3   OH279378   0.071   3.936   0.335  0.2531 -0.2578 -0.0099
19296TIP3    H179379   0.071   4.000   0.406 -0.9674 -0.1796 -0.0637
19296TIP3    H279380   0.112   3.858   0.374 -1.1255 -0.4898  1.0566
19297TIP3   OH279381   1.042   5.891  17.102 -0.0948 -0.3331  0.4808
19297TIP3    H179382   1.066   5.845  17.021 -0.9271 -0.0817  0.0725
19297TIP3    H279383   1.080   5.838  17.172 -2.0138 -2.4039  0.1076
19298TIP3   OH279384   0.948   1.869   2.435  0.7029 -0.1458  0.0946
19298TIP3    H179385   0.887   1.901   2.501  0.6763 -0.0268  0.0129
19298TIP3    H279386   1.034   1.876   2.475  0.7200  0.2485 -0.0089
19299TIP3   OH279387   3.796   2.284  13.765  0.2825 -0.0975 -0.3538
19299TIP3    H179388   3.840   2.347  13.707 -0.6423  1.6941  0.8146
19299TIP3    H279389   3.765   2.215  13.706  0.4865  1.0117 -1.8174
19300TIP3   OH279390   0.136   6.139  15.269 -0.5583  0.5204  0.0568
19300TIP3    H179391   0.211   6.153  15.327 -0.5625  0.3422  0.1077
19300TIP3    H279392   0.145   6.206  15.201  0.5460 -0.4911 -0.8519
19301TIP3   OH279393   4.464   5.846  11.998 -0.3635  0.5496  0.2468
19301TIP3    H179394   4.541   5.807  11.959 -1.5840 -0.9539 -0.7655
19301TIP3    H279395   4.427   5.777  12.053 -1.7958  0.7293 -0.4519
19302TIP3   OH279396   1.404   1.540   0.572 -0.4853 -0.0168 -0.1557
19302TIP3    H179397   1.316   1.577   0.579 -0.4500  0.2200 -0.9183
19302TIP3    H279398   1.393   1.462   0.518 -0.2052  0.0847 -0.3598
19303TIP3   OH279399   3.726   1.738  16.037 -0.4808 -0.8087 -0.3225
19303TIP3    H179400   3.696   1.696  16.117  3.8464  0.2941  2.1547
19303TIP3    H279401   3.773   1.670  15.989  1.0609 -0.4009  0.5498
19304TIP3   OH279402   1.554   3.455  16.172 -0.2410  0.2089 -0.3469
19304TIP3    H179403   1.487   3.510  16.131 -1.6484 -1.5489 -0.5077
19304TIP3    H279404   1.628   3.515  16.187 -1.1351  1.7850 -1.8516
19305TIP3   OH279405   6.095   0.826  15.101 -0.1014  0.1939 -0.1538
19305TIP3    H179406   6.067   0.735  15.091  1.0312 -0.5861  2.7493
19305TIP3    H279407   6.014   0.874  15.118 -0.5437 -0.5416 -0.1415
19306TIP3   OH279408   0.330   2.536   2.995 -0.0309  0.0051  0.4034
19306TIP3    H179409   0.263   2.501   2.937  1.6945  0.8832 -2.2826
19306TIP3    H279410   0.367   2.611   2.948  0.2146  2.0230  3.5007
19307TIP3   OH279411   0.678   4.334  15.053 -0.0610  0.2395  0.3574
19307TIP3    H179412   0.736   4.259  15.036  0.0980  0.2472  0.8567
19307TIP3    H279413   0.689   4.390  14.976 -1.7068 -1.1933 -0.9995
19308TIP3   OH279414   6.752   1.640   3.676 -0.4098 -0.0652 -0.0596
19308TIP3    H179415   6.668   1.687   3.670  0.5223  1.6956  0.1134
19308TIP3    H279416   6.781   1.631   3.586 -0.9536 -1.0641 -0.1550
19309TIP3   OH279417   0.501   2.190  11.286  0.1191 -0.3950 -0.3096
19309TIP3    H179418   0.562   2.250  11.327 -0.2047 -0.7208  0.6747
19309TIP3    H279419   0.492   2.223  11.196  1.6917 -0.3314 -0.4718
19310TIP3   OH279420   1.208   3.604  13.431  0.3637  0.1878 -0.4187
19310TIP3    H179421   1.115   3.623  13.446  0.6237  1.6126 -0.4713
19310TIP3    H279422   1.254   3.674  13.476  1.3896  0.0660 -1.2597
19311TIP3   OH279423   2.928   4.695  15.193  0.1927  0.2560  0.2391
19311TIP3    H179424   2.900   4.749  15.266 -0.5995 -0.4909  0.5038
19311TIP3    H279425   2.996   4.746  15.150  0.5473  0.7852  1.3923
19312TIP3   OH279426   6.328   0.310  16.876 -0.0430 -0.3798 -0.6578
19312TIP3    H179427   6.295   0.222  16.891  1.0013 -0.6608  0.1162
19312TIP3    H279428   6.379   0.304  16.796 -0.2298 -0.4012 -0.7764
19313TIP3   OH279429   2.717   6.283  16.193 -0.5168 -0.0749  0.2316
19313TIP3    H179430   2.657   6.302  16.121 -0.0974  0.5337  0.0381
19313TIP3    H279431   2.800   6.321  16.166 -0.6104  1.1470  1.5025
19314TIP3   OH279432   3.260   5.246   1.357  0.0816  0.0443  0.0487
19314TIP3    H179433   3.238   5.339   1.357 -3.1394 -0.5968 -0.7875
19314TIP3    H279434   3.199   5.207   1.420 -0.6474 -1.8298 -1.7085
19315TIP3   OH279435   0.857   4.269   6.180  0.8518  0.0535  0.2877
19315TIP3    H179436   0.900   4.285   6.096 -0.7621 -0.1110 -0.6197
19315TIP3    H279437   0.764   4.265   6.159  0.2697  1.2835  2.2772
19316TIP3   OH279438   4.777   4.885   4.465 -0.2163 -0.1303  0.3499
19316TIP3    H179439   4.717   4.902   4.538  2.3922 -1.3256  2.9693
19316TIP3    H279440   4.829   4.965   4.459 -0.3623 -0.0723 -0.1845
19317TIP3   OH279441   2.410   0.566   3.876  0.6192  0.4035 -0.2342
19317TIP3    H179442   2.430   0.596   3.787  0.0762  1.5364  0.0045
19317TIP3    H279443   2.334   0.618   3.903 -0.9486 -1.8139 -0.0761
19318TIP3   OH279444   3.536   3.116  15.188  0.0330  0.1720 -0.1426
19318TIP3    H179445   3.558   3.208  15.202  2.8357 -0.5422  0.7327
19318TIP3    H279446   3.523   3.080  15.275  0.4668 -0.5739 -0.3704
19319TIP3   OH279447   5.644   1.370   3.911  0.4145 -0.5311 -0.4702
19319TIP3    H179448   5.623   1.463   3.904 -1.6917 -0.7725  1.3976
19319TIP3    H279449   5.596   1.329   3.840 -2.4026 -0.6021  1.3328
19320TIP3   OH279450   1.988   6.050   5.265  0.0928  0.2398  0.1758
19320TIP3    H179451   2.009   5.968   5.309 -0.6903 -0.3759 -0.5695
19320TIP3    H279452   2.072   6.080   5.229  0.1605 -0.9365 -0.6945
19321TIP3   OH279453   1.939   4.091   1.797 -0.8737 -0.5163 -0.9328
19321TIP3    H179454   2.019   4.143   1.810  0.2621 -1.7540 -2.6416
19321TIP3    H279455   1.919   4.057   1.885  0.2402  0.1329 -0.4013
19322TIP3   OH279456   3.397   1.982   5.215  0.4888  0.5965 -0.3170
19322TIP3    H179457   3.323   2.042   5.210 -0.8780 -0.9177  0.6739
19322TIP3    H279458   3.474   2.039   5.219 -0.6858  2.2448 -0.1850
19323TIP3   OH279459   4.198   0.080   5.902  0.1362 -0.1670 -0.1782
19323TIP3    H179460   4.182   0.112   5.813 -0.1561  0.4997  0.1096
19323TIP3    H279461   4.192  -0.015   5.895 -3.8735 -0.0641 -0.1376
19324TIP3   OH279462   6.805   3.104   6.259 -0.0788 -0.1531  0.1648
19324TIP3    H179463   6.870   3.100   6.189  0.7961 -2.2203  1.0170
19324TIP3    H279464   6.821   3.026   6.311 -0.4364  1.4821  2.9253
19325TIP3   OH279465   2.898   3.980  14.778  0.1638  0.5572 -0.0270
19325TIP3    H179466   2.948   3.970  14.859 -1.4595 -1.5722  0.8197
19325TIP3    H279467   2.807   3.966  14.804 -0.5428  1.0056 -2.0414
19326TIP3   OH279468   3.669   6.474  12.937  0.2113  0.3818  0.8179
19326TIP3    H179469   3.742   6.527  12.904  0.5091 -0.8650 -0.6739
19326TIP3    H279470   3.591   6.526  12.916  0.6178  2.1021  3.1552
19327TIP3   OH279471   2.518   5.665  15.945 -0.1089  0.2225 -0.7877
19327TIP3    H179472   2.493   5.739  16.001 -1.2762 -1.1439  0.5941
19327TIP3    H279473   2.512   5.589  16.003  2.9517 -0.7816 -1.6407
19328TIP3   OH279474   3.869   5.837  15.414 -0.2620 -0.1254 -0.1060
19328TIP3    H179475   3.883   5.924  15.377  3.3188 -0.4454  0.1316
19328TIP3    H279476   3.832   5.853  15.500  1.4397  1.2867  0.4079
19329TIP3   OH279477   3.690   3.014  11.016  0.3019  0.2795  0.1863
19329TIP3    H179478   3.709   3.088  11.073  0.5357 -0.1141  0.6234
19329TIP3    H279479   3.749   3.025  10.942 -0.8221  1.4411 -0.5754
19330TIP3   OH279480   4.086   1.364   3.661  0.1912  0.1690 -0.4426
19330TIP3    H179481   4.027   1.422   3.709 -1.7740  0.0000 -2.4630
19330TIP3    H279482   4.120   1.417   3.589 -0.3442 -0.6640 -1.3535
19331TIP3   OH279483   2.070   4.844   4.562  0.0565 -0.1602  0.5911
19331TIP3    H179484   2.112   4.768   4.523 -0.2894  0.5437 -1.2714
19331TIP3    H279485   2.142   4.894   4.601  0.8261  0.2805 -1.2483
19332TIP3   OH279486   3.887   3.411  16.893  0.7178 -0.0908 -0.3251
19332TIP3    H179487   3.979   3.421  16.870  0.5188  0.0615 -1.0680
19332TIP3    H279488   3.847   3.372  16.815  0.1045  0.0742 -0.0948
19333TIP3   OH279489   1.494   5.336  14.721 -0.5545 -0.0429 -0.2488
19333TIP3    H179490   1.511   5.318  14.629  1.3515  1.5649 -0.2805
19333TIP3    H279491   1.474   5.251  14.759  0.8169 -1.0808 -1.7241
19334TIP3   OH279492   4.395   6.193  11.746  0.6296 -0.0358 -0.2206
19334TIP3    H179493   4.352   6.110  11.769 -0.8641  0.5664 -0.7257
19334TIP3    H279494   4.344   6.226  11.673  0.6228  1.7733  0.5622
19335TIP3   OH279495   6.542   0.376  10.947 -0.1156 -0.0198  0.1244
19335TIP3    H179496   6.589   0.398  11.028 -0.7138  0.2875  0.3884
19335TIP3    H279497   6.605   0.324  10.897 -0.4721 -2.2233  1.7779
19336TIP3   OH279498   0.851   0.877   0.212  0.1591  0.5167 -0.2667
19336TIP3    H179499   0.919   0.820   0.177 -0.9164 -0.4870 -0.8001
19336TIP3    H279500   0.892   0.963   0.218  1.5195 -0.1061 -0.3867
19337TIP3   OH279501   6.032   1.095   3.635 -0.3467  0.4350 -0.1931
19337TIP3    H179502   6.063   1.007   3.617  1.7180  1.5685 -2.8459
19337TIP3    H279503   6.086   1.126   3.707 -0.5429 -0.1771  0.2223
19338TIP3   OH279504   1.011   3.777  16.171  0.3566  0.4559  0.1019
19338TIP3    H179505   0.930   3.821  16.196 -0.6960 -0.7931 -0.9616
19338TIP3    H279506   1.042   3.826  16.095  0.1516  0.4319  0.0023
19339TIP3   OH279507   1.226   4.363   2.888  0.8041  0.0495  0.3633
19339TIP3    H179508   1.295   4.297   2.875  2.8324  1.9848  0.8047
19339TIP3    H279509   1.273   4.446   2.895 -1.6574  1.5868 -0.1457
19340TIP3   OH279510   3.848   2.832   1.705  0.4719  0.0473  0.5598
19340TIP3    H179511   3.810   2.888   1.771  0.8084  0.1995  0.6281
19340TIP3    H279512   3.823   2.743   1.731 -0.6980  0.2042  0.0359
19341TIP3   OH279513   6.032   3.301  12.867  0.3626 -0.2962 -0.1505
19341TIP3    H179514   6.108   3.303  12.925 -0.1231 -2.3615  0.6245
19341TIP3    H279515   6.033   3.214  12.828 -1.7875 -0.5078  0.1483
19342TIP3   OH279516   2.381   1.893   2.859  0.5475  0.2319  0.5512
19342TIP3    H179517   2.476   1.888   2.865  0.9975  1.3480 -3.2242
19342TIP3    H279518   2.362   1.987   2.859 -0.3144  0.0858 -0.7164
19343TIP3   OH279519   2.096   0.894   2.077  0.3047 -0.2379  0.1529
19343TIP3    H179520   2.065   0.889   2.168 -0.8230  0.6247 -0.1720
19343TIP3    H279521   2.017   0.888   2.024  0.9143 -0.2661 -0.7769
19344TIP3   OH279522   0.091   3.996  12.797  0.0593 -0.4523 -0.5211
19344TIP3    H179523   0.141   4.039  12.728 -0.1005  0.7404  0.0817
19344TIP3    H279524   0.135   3.912  12.810 -0.2453 -0.9759 -2.4588
19345TIP3   OH279525   5.007   5.711  16.841  0.2740  0.4160 -0.2553
19345TIP3    H179526   5.011   5.725  16.747 -1.3806  0.5645 -0.3310
19345TIP3    H279527   5.093   5.739  16.874  0.4889  1.3615 -1.5736
19346TIP3   OH279528   5.975   2.146  15.457 -0.1028  0.6188  0.0217
19346TIP3    H179529   6.058   2.193  15.445 -0.7799  1.6637 -0.7149
19346TIP3    H279530   5.927   2.199  15.520 -0.5796  0.5027 -0.2434
19347TIP3   OH279531   3.750   1.163   2.686  0.0012 -0.1452  0.1912
19347TIP3    H179532   3.678   1.203   2.637  0.5155  0.3094 -0.2120
19347TIP3    H279533   3.719   1.162   2.777  0.7945  3.3274  0.6581
19348TIP3   OH279534   4.512   2.736  13.795  0.6784 -0.0396 -0.0337
19348TIP3    H179535   4.591   2.703  13.837 -0.6607 -0.7307  2.1223
19348TIP3    H279536   4.444   2.672  13.817 -0.7729  1.2241 -0.6455
19349TIP3   OH279537   3.037   4.559  14.857  0.0511 -0.4087  0.2829
19349TIP3    H179538   3.001   4.480  14.817  1.5907 -1.5644  1.0620
19349TIP3    H279539   3.004   4.630  14.802  1.8580 -1.8483 -2.9867
19350TIP3   OH279540   5.180   1.907   0.870  0.1056  0.5091 -0.2316
19350TIP3    H179541   5.111   1.883   0.808  0.5155  1.0322 -0.9026
19350TIP3    H279542   5.137   1.903   0.955 -0.7629  0.8277 -0.6357
19351TIP3   OH279543   2.927   2.807  15.217 -0.2748  0.2694 -0.5623
19351TIP3    H179544   2.987   2.734  15.232  0.4427  0.8939 -0.3252
19351TIP3    H279545   2.913   2.845  15.304  1.1545  1.7734 -0.9169
19352TIP3   OH279546   4.897   6.491  11.138 -0.0950  0.0096  0.4129
19352TIP3    H179547   4.943   6.519  11.217  2.1680 -0.0694 -0.8085
19352TIP3    H279548   4.908   6.396  11.136 -0.0734  0.0193 -0.0384
19353TIP3   OH279549   1.307   0.927  13.914  0.5140  0.1403  0.3117
19353TIP3    H179550   1.373   0.932  13.984 -0.8052  0.0201  1.6264
19353TIP3    H279551   1.286   1.018  13.894  0.3573  0.1718  0.6137
19354TIP3   OH279552   1.089   0.585   0.241 -0.3291 -0.0919  0.2058
19354TIP3    H179553   1.007   0.581   0.291 -0.7003  2.5680 -0.0490
19354TIP3    H279554   1.072   0.535   0.161 -1.4807 -0.0961  0.4439
19355TIP3   OH279555   5.705   1.176  15.233 -0.0543 -0.7520  0.0492
19355TIP3    H179556   5.632   1.115  15.240  1.5165 -2.5552  1.8054
19355TIP3    H279557   5.715   1.211  15.322  0.8358 -0.0734 -0.3092
19356TIP3   OH279558   4.479   1.023   1.472  0.0501 -0.0213 -0.4258
19356TIP3    H179559   4.414   0.980   1.416 -0.1848  1.3967 -1.3055
19356TIP3    H279560   4.428   1.081   1.527  0.5704  1.5137 -1.4989
19357TIP3   OH279561   5.466   2.982   3.454  0.1873  0.3717  0.7196
19357TIP3    H179562   5.432   2.938   3.376  1.2990 -1.0144  0.9960
19357TIP3    H279563   5.541   2.930   3.481  1.1648  2.0788  1.4595
19358TIP3   OH279564   3.370   0.248  13.261  1.0328 -0.3640 -0.1776
19358TIP3    H179565   3.328   0.320  13.213  1.3226 -1.4108 -2.1197
19358TIP3    H279566   3.463   0.268  13.257  0.9531  1.4890  3.3519
19359TIP3   OH279567   1.613   4.698   5.774 -0.1758  0.3266 -0.9276
19359TIP3    H179568   1.656   4.709   5.859 -3.7220 -0.8381  1.2223
19359TIP3    H279569   1.632   4.608   5.749  0.3420  0.4696 -1.0595
19360TIP3   OH279570   4.838   4.461   4.783 -0.1544  0.2119 -0.3047
19360TIP3    H179571   4.863   4.386   4.836  0.0791 -1.9549 -3.2131
19360TIP3    H279572   4.743   4.466   4.792  0.0112  0.8836  1.4340
19361TIP3   OH279573   3.855   6.437   2.078 -0.2457  0.0653 -0.5649
19361TIP3    H179574   3.784   6.499   2.094  2.0218  3.1607 -1.5212
19361TIP3    H279575   3.860   6.429   1.983  1.8802  1.5649 -0.6475
19362TIP3   OH279576   1.384   4.800   1.267 -0.2862 -0.0145  1.3861
19362TIP3    H179577   1.380   4.764   1.356  1.3751 -1.4024  0.9704
19362TIP3    H279578   1.432   4.733   1.217  1.4482  2.0131  0.1569
19363TIP3   OH279579   4.073   4.527   5.769  0.0045 -0.1947  0.2168
19363TIP3    H179580   4.035   4.497   5.852  0.7478  0.2628  0.7410
19363TIP3    H279581   4.073   4.622   5.775  2.0849 -0.1639  0.6831
19364TIP3   OH279582   5.043   2.413   5.748 -0.0103  0.2626 -0.1039
19364TIP3    H179583   5.098   2.392   5.672  0.4700  0.6999  0.1153
19364TIP3    H279584   5.100   2.401   5.824 -1.0716 -2.1722  0.3762
19365TIP3   OH279585   5.965   6.000  13.915  0.1632  0.1072  0.3012
19365TIP3    H179586   5.892   6.053  13.883 -0.6208 -1.0260  0.1609
19365TIP3    H279587   5.928   5.913  13.927  1.1258 -0.1547  1.6516
19366TIP3   OH279588   6.107   2.407  13.613  0.3921  0.5404 -0.6468
19366TIP3    H179589   6.151   2.490  13.632  0.7364 -0.0886  1.5544
19366TIP3    H279590   6.054   2.390  13.690  0.7658 -1.5701 -0.8139
19367TIP3   OH279591   1.019   4.141  13.655  0.2867 -0.4815 -0.0552
19367TIP3    H179592   1.003   4.123  13.562 -0.6750 -3.3628  0.5640
19367TIP3    H279593   1.000   4.058  13.699  2.1928  0.3607  2.5805
19368TIP3   OH279594   0.297   0.829  10.963  0.0123  0.2666 -0.3407
19368TIP3    H179595   0.338   0.911  10.990 -0.0663  0.4795 -0.8546
19368TIP3    H279596   0.371   0.774  10.935  0.2167 -0.3813  1.3489
19369TIP3   OH279597   5.802   3.928  15.980 -0.2253 -0.3432 -0.4988
19369TIP3    H179598   5.712   3.897  15.967  0.4855 -2.7671 -0.0345
19369TIP3    H279599   5.855   3.849  15.977  1.6671  0.7459  1.6020
19370TIP3   OH279600   2.571   5.781   3.023 -0.5191 -0.4027 -0.3356
19370TIP3    H179601   2.645   5.741   3.069  0.2825  2.6538  1.2836
19370TIP3    H279602   2.603   5.794   2.934  0.4982 -0.1578  0.0505
19371TIP3   OH279603   5.212   6.528  16.472  0.7420  0.0464 -0.2499
19371TIP3    H179604   5.243   6.560  16.387 -2.3905  0.4133 -1.3693
19371TIP3    H279605   5.194   6.435  16.458  1.5209 -0.2188  0.4422
19372TIP3   OH279606   1.222   2.449  15.267 -0.2080  0.4570 -0.2013
19372TIP3    H179607   1.249   2.370  15.221  1.2167  0.8904 -0.1754
19372TIP3    H279608   1.299   2.507  15.262 -0.2528  0.8073  2.0488
19373TIP3   OH279609   1.419   2.765   0.259  0.5258 -0.1910 -0.1160
19373TIP3    H179610   1.439   2.674   0.235 -0.7349 -0.5368  0.0500
19373TIP3    H279611   1.505   2.806   0.270  1.1380 -1.5480  0.5186
19374TIP3   OH279612   3.742   4.565   0.726 -0.4917  0.0413  0.8169
19374TIP3    H179613   3.714   4.528   0.810 -0.4615  0.4956  1.0332
19374TIP3    H279614   3.820   4.617   0.748 -1.8018  2.0800  0.9511
19375TIP3   OH279615   2.936   6.489   0.471 -0.1243  0.2044  0.5056
19375TIP3    H179616   3.004   6.548   0.504 -0.3681  0.8790 -0.1679
19375TIP3    H279617   2.861   6.546   0.455 -0.7332 -0.4746  0.8845
19376TIP3   OH279618   1.484   0.844   5.079  0.1363 -0.0929 -0.0494
19376TIP3    H179619   1.389   0.835   5.090  0.1072  0.0530 -0.1700
19376TIP3    H279620   1.501   0.936   5.098  0.0212  0.2959 -1.6286
19377TIP3   OH279621   5.612   4.198   4.045 -0.1198  0.3655  0.1038
19377TIP3    H179622   5.668   4.134   4.090 -0.9794 -0.0490  0.6192
19377TIP3    H279623   5.598   4.161   3.958 -0.1987  0.0916  0.2306
19378TIP3   OH279624   0.872   4.296  15.495 -0.0990  0.0959  0.4664
19378TIP3    H179625   0.840   4.251  15.573  1.2526 -1.1215  0.3626
19378TIP3    H279626   0.807   4.364  15.478  0.1094  1.1579  3.2886
19379TIP3   OH279627   3.763   2.520  12.975 -0.0358  0.1712 -0.2503
19379TIP3    H179628   3.709   2.471  12.913  2.8420 -2.4122 -0.9686
19379TIP3    H279629   3.719   2.604  12.983 -1.3009  0.2369 -4.8306
19380TIP3   OH279630   1.944   6.787   1.529  1.3025  0.0990  0.6338
19380TIP3    H179631   1.914   6.851   1.464  2.5064 -1.5806 -1.7187
19380TIP3    H279632   1.934   6.703   1.485  2.1611 -1.1255  2.6829
19381TIP3   OH279633   5.468   1.611  13.545 -0.1381  0.4094  0.0531
19381TIP3    H179634   5.506   1.524  13.548  0.4397  0.6737  2.7774
19381TIP3    H279635   5.515   1.660  13.613 -2.0749  2.1399  0.2345
19382TIP3   OH279636   3.915   3.407   3.504  0.2308  0.0663 -0.2570
19382TIP3    H179637   3.901   3.495   3.537 -2.4068 -0.7516  1.0896
19382TIP3    H279638   3.892   3.412   3.411 -0.7186  0.6449  0.0014
19383TIP3   OH279639   1.344   2.743   1.175 -0.5672 -0.2750 -0.4813
19383TIP3    H179640   1.387   2.658   1.172  0.2714  0.1729 -2.4566
19383TIP3    H279641   1.345   2.774   1.085 -1.4172  1.5667  0.0903
19384TIP3   OH279642   3.119   3.170   4.176 -0.7457  0.0621  0.1869
19384TIP3    H179643   3.207   3.173   4.140 -0.9449 -4.2205 -1.1754
19384TIP3    H279644   3.126   3.214   4.261  2.3779  0.8238 -0.3450
19385TIP3   OH279645   0.701   2.222   1.708  0.2790 -0.3883  0.2332
19385TIP3    H179646   0.765   2.191   1.644 -1.7112 -0.8432 -1.6584
19385TIP3    H279647   0.725   2.178   1.789  1.4053 -1.7658 -0.8031
19386TIP3   OH279648   1.674   2.819  16.905 -0.0852 -0.0315  0.4488
19386TIP3    H179649   1.719   2.900  16.930  1.9501 -0.3690 -1.6991
19386TIP3    H279650   1.614   2.801  16.977  0.7096  2.3971  1.8369
19387TIP3   OH279651   5.864   4.874  10.761 -0.3301  0.1338  0.1928
19387TIP3    H179652   5.952   4.909  10.752 -0.0714 -0.5320  0.0395
19387TIP3    H279653   5.877   4.784  10.793 -0.8889 -0.3562 -0.8992
19388TIP3   OH279654   0.252   5.732   2.979 -0.2402 -0.2281  0.2070
19388TIP3    H179655   0.343   5.703   2.981 -0.3277 -0.8663 -1.9684
19388TIP3    H279656   0.202   5.654   2.954 -1.2565  0.3492  0.3671
19389TIP3   OH279657   4.951   6.184   1.511 -0.3755 -0.0462  0.4683
19389TIP3    H179658   4.963   6.208   1.419  0.4520  0.7170  0.7558
19389TIP3    H279659   4.881   6.243   1.542 -0.2650  0.0882  0.4653
19390TIP3   OH279660   0.433   0.948  12.503  0.5010 -0.0535 -0.1787
19390TIP3    H179661   0.441   0.991  12.417 -3.5972 -0.1183 -0.8074
19390TIP3    H279662   0.399   1.017  12.560 -2.7540 -1.3810 -0.3070
19391TIP3   OH279663   1.965   1.362  12.033  0.2777  0.2469  0.7031
19391TIP3    H179664   2.028   1.290  12.031 -1.6441 -1.5038 -0.5039
19391TIP3    H279665   1.910   1.343  12.109 -0.8076 -0.1313 -0.1478
19392TIP3   OH279666   3.231   6.821  17.233  0.2580 -0.0086  0.1607
19392TIP3    H179667   3.296   6.755  17.258 -1.9264 -1.3854  2.7773
19392TIP3    H279668   3.236   6.887  17.302 -0.7234  0.1596  0.0806
19393TIP3   OH279669   5.305   5.123   3.169  0.4900  0.3855 -0.1484
19393TIP3    H179670   5.300   5.081   3.083 -3.0391  1.8537 -0.8483
19393TIP3    H279671   5.242   5.195   3.165  0.7063  0.9916  3.4431
19394TIP3   OH279672   6.117   3.795   1.975 -0.2767 -0.1993 -0.4219
19394TIP3    H179673   6.031   3.777   2.014  0.6693 -0.7173  1.5858
19394TIP3    H279674   6.106   3.776   1.882 -2.6576  1.0042 -0.4600
19395TIP3   OH279675   4.167   4.813   0.871 -0.4161  0.4071 -0.3097
19395TIP3    H179676   4.255   4.809   0.834 -1.0168 -2.2737 -1.6906
19395TIP3    H279677   4.110   4.822   0.794 -1.4771 -0.4050  0.3633
19396TIP3   OH279678   2.583   0.830   0.168  0.2225  0.0864  0.2657
19396TIP3    H179679   2.578   0.822   0.073  1.3338 -2.8366  0.3410
19396TIP3    H279680   2.566   0.741   0.200  1.2454  0.6995  2.7265
19397TIP3   OH279681   3.391   5.589   4.815 -0.0426 -0.2586 -0.0037
19397TIP3    H179682   3.308   5.566   4.858 -1.0787  1.6843 -0.8334
19397TIP3    H279683   3.403   5.682   4.834  1.3206 -0.2243 -0.9204
19398TIP3   OH279684   4.522   5.166  15.742 -0.6827  0.8972 -0.0692
19398TIP3    H179685   4.550   5.257  15.735 -0.4360  0.7871 -0.6305
19398TIP3    H279686   4.473   5.162  15.824  1.0019  1.0832  0.9850
19399TIP3   OH279687   2.987   3.694  13.998  0.5341  0.2371 -0.6849
19399TIP3    H179688   3.049   3.670  14.067 -0.1691  0.6587  0.1096
19399TIP3    H279689   3.042   3.728  13.927  1.2060  0.6786  0.0385
19400TIP3   OH279690   4.549   6.561   6.474 -0.0866  0.0088 -0.1322
19400TIP3    H179691   4.477   6.612   6.512  0.4255  0.2924  0.4618
19400TIP3    H279692   4.526   6.470   6.493  0.7129  0.1789  1.9068
19401TIP3   OH279693   1.523   1.565   5.529  0.0452 -0.0702 -0.0141
19401TIP3    H179694   1.428   1.571   5.536  0.1602  1.2212  0.5861
19401TIP3    H279695   1.537   1.511   5.451 -1.1688 -0.2723 -0.1157
19402TIP3   OH279696   2.303   1.497  10.523  0.8963  0.0522 -0.2067
19402TIP3    H179697   2.285   1.411  10.485 -0.7010  0.6613 -0.9063
19402TIP3    H279698   2.355   1.478  10.601 -1.5397 -1.8205  1.1278
19403TIP3   OH279699   2.085   4.637  13.615  0.3006 -0.1806  0.2173
19403TIP3    H179700   1.992   4.638  13.592  0.2147 -0.3807  0.5448
19403TIP3    H279701   2.129   4.675  13.539 -0.1029  0.4635  0.2936
19404TIP3   OH279702   1.760   3.836   0.861 -0.1834 -0.1536 -0.7619
19404TIP3    H179703   1.724   3.750   0.883 -0.1831  0.4112  1.7337
19404TIP3    H279704   1.696   3.899   0.895  0.9592  0.8367 -0.3605
19405TIP3   OH279705   2.367   4.697  16.343 -0.3812 -0.0956 -0.2281
19405TIP3    H179706   2.459   4.724  16.348 -0.6770  0.7762  1.9471
19405TIP3    H279707   2.323   4.769  16.297 -0.1132 -0.0863 -0.4709
19406TIP3   OH279708   6.443   3.512  12.519  0.2666 -0.5982  0.1965
19406TIP3    H179709   6.479   3.570  12.452 -0.1661 -1.5039 -0.8592
19406TIP3    H279710   6.519   3.464  12.553  0.3891 -0.7165 -0.2368
19407TIP3   OH279711   6.458   4.873   6.295  0.4430  0.0202 -0.0136
19407TIP3    H179712   6.451   4.780   6.319  2.8212 -0.2983 -0.3742
19407TIP3    H279713   6.490   4.916   6.374  3.4935 -0.2283 -1.0031
19408TIP3   OH279714   2.579   0.422  12.082 -0.2636  0.4230 -0.1722
19408TIP3    H179715   2.582   0.331  12.110 -0.1596  0.6048  0.4202
19408TIP3    H279716   2.616   0.471  12.155 -0.8615  0.9997 -0.2488
19409TIP3   OH279717   6.697   3.112  12.489  0.3423  0.5231  0.9471
19409TIP3    H179718   6.736   3.138  12.405  1.1191  0.9557  1.4384
19409TIP3    H279719   6.703   3.017  12.489 -1.3968  0.3504 -0.3151
19410TIP3   OH279720   1.119   5.715   5.639  0.2305  0.2499 -0.1169
19410TIP3    H179721   1.184   5.780   5.617  1.2747 -0.9724 -0.7868
19410TIP3    H279722   1.166   5.631   5.637 -1.0972 -0.5632  0.4930
19411TIP3   OH279723   0.968   2.890   1.935  0.1120  0.1943  0.1691
19411TIP3    H179724   1.011   2.972   1.962 -0.5737  0.2315  1.1728
19411TIP3    H279725   1.040   2.829   1.921  0.5594  0.5647  0.8011
19412TIP3   OH279726   3.398   4.825   4.184  0.1313  0.1080 -0.2908
19412TIP3    H179727   3.411   4.813   4.090  0.2415 -1.7653 -0.0732
19412TIP3    H279728   3.410   4.738   4.221 -2.0187  0.3723  1.2294
19413TIP3   OH279729   2.873   2.727   0.770 -0.0369 -0.0049  0.1519
19413TIP3    H179730   2.784   2.697   0.751 -0.4051  1.2086 -0.1151
19413TIP3    H279731   2.883   2.716   0.865 -2.1961  4.0930  1.0813
19414TIP3   OH279732   6.529   6.656  15.583  0.3065 -0.1871  0.3754
19414TIP3    H179733   6.486   6.573  15.564  0.8956 -0.3219 -0.3935
19414TIP3    H279734   6.486   6.688  15.663 -0.5173 -0.8016  0.1805
19415TIP3   OH279735   4.898   3.471   2.572 -0.8045 -0.3082 -0.3395
19415TIP3    H179736   4.882   3.453   2.480 -0.6677 -1.3143 -0.1784
19415TIP3    H279737   4.986   3.435   2.589 -1.8386 -2.5034  0.7736
19416TIP3   OH279738   1.340   2.199  12.339 -0.3666 -0.1027  0.3546
19416TIP3    H179739   1.296   2.197  12.423 -0.2292 -0.0217  0.4279
19416TIP3    H279740   1.277   2.162  12.277  0.0146 -1.4391  0.7236
19417TIP3   OH279741   2.261   2.762  14.632  0.3235 -0.3767  0.2695
19417TIP3    H179742   2.232   2.770  14.722 -0.3697  1.1423 -0.0607
19417TIP3    H279743   2.348   2.722  14.638 -0.3862 -1.8487  1.4740
19418TIP3   OH279744   1.746   2.647  14.574 -0.0781 -0.0731  0.1041
19418TIP3    H179745   1.818   2.710  14.587  0.6795 -0.9143  0.0779
19418TIP3    H279746   1.731   2.649  14.479 -1.6804  1.7940  0.3388
19419TIP3   OH279747   0.116   3.970   4.586 -0.5082 -0.2347  0.4512
19419TIP3    H179748   0.184   4.013   4.534 -0.1636  0.6643  1.6077
19419TIP3    H279749   0.103   3.885   4.543  1.0222 -0.2436 -0.0601
19420TIP3   OH279750   3.046   2.333  15.922  0.1612 -0.7459 -0.0666
19420TIP3    H179751   3.017   2.300  15.836  0.1527 -0.4931 -0.1609
19420TIP3    H279752   3.030   2.260  15.982  1.4116 -1.4293 -0.5119
19421TIP3   OH279753   1.537   4.383  13.630  0.2024 -0.7120 -0.7629
19421TIP3    H179754   1.535   4.410  13.538  1.3518  0.5559 -0.4592
19421TIP3    H279755   1.453   4.341  13.645 -0.8047  0.7778 -1.9132
19422TIP3   OH279756   3.287   5.191  17.167 -0.2323  0.1980 -0.2195
19422TIP3    H179757   3.270   5.098  17.147  0.3362  0.2045 -0.7591
19422TIP3    H279758   3.278   5.196  17.262  0.5806 -0.5965 -0.0866
19423TIP3   OH279759   5.989   5.116   4.888  0.0344  0.3183  0.3224
19423TIP3    H179760   6.009   5.110   4.795 -0.6871  0.4600  0.1473
19423TIP3    H279761   6.048   5.054   4.930  0.1884  0.0674 -0.2567
19424TIP3   OH279762   5.585   1.480  16.053  0.3249 -0.0714 -0.4511
19424TIP3    H179763   5.646   1.543  16.015  0.9050 -1.4109 -1.8821
19424TIP3    H279764   5.634   1.398  16.057 -1.0279 -0.9311 -0.6184
19425TIP3   OH279765   2.827   2.015  12.666 -0.0458  0.7390 -0.3646
19425TIP3    H179766   2.905   2.071  12.668  0.5919 -0.1370 -0.1731
19425TIP3    H279767   2.843   1.955  12.593 -0.9784  1.1441 -0.9199
19426TIP3   OH279768   2.209   6.033  14.815  0.2931 -0.7162  0.3591
19426TIP3    H179769   2.212   6.126  14.791 -2.6699 -0.8458 -0.9424
19426TIP3    H279770   2.156   6.030  14.894  1.5880 -1.2174  1.2370
19427TIP3   OH279771   6.131   5.336   6.220 -0.0114  0.2575  0.1553
19427TIP3    H179772   6.040   5.349   6.245 -1.3191 -0.1385 -3.7255
19427TIP3    H279773   6.165   5.425   6.206 -0.1209  0.3612  0.5252
19428TIP3   OH279774   5.866   1.893   1.208 -0.5491  0.0402 -0.5534
19428TIP3    H179775   5.868   1.963   1.273 -0.3506  0.1608 -0.6892
19428TIP3    H279776   5.957   1.881   1.182 -0.4503 -0.9995  0.2430
19429TIP3   OH279777   3.157   3.152  16.653 -0.0220 -0.1656 -0.6969
19429TIP3    H179778   3.098   3.223  16.629  1.1921  1.0497 -0.2503
19429TIP3    H279779   3.200   3.182  16.734  0.3562 -1.5094 -0.3651
19430TIP3   OH279780   0.487   4.497   1.364  0.0285  0.5726  0.0440
19430TIP3    H179781   0.537   4.462   1.290 -1.8655 -0.3903 -0.8726
19430TIP3    H279782   0.537   4.473   1.441  1.5932  0.7637 -0.8762
19431TIP3   OH279783   6.460   6.560   0.664  0.2801 -0.0157  0.2489
19431TIP3    H179784   6.542   6.574   0.617 -0.6598  0.4627 -1.3278
19431TIP3    H279785   6.402   6.628   0.632 -0.7341 -0.3255  1.3636
19432TIP3   OH279786   3.999   2.843   2.006  0.0242  0.5793  0.3615
19432TIP3    H179787   4.046   2.893   2.072  0.1748  0.0222  0.6835
19432TIP3    H279788   3.943   2.907   1.963  0.3833  1.0665  0.6088
19433TIP3   OH279789   4.950   5.071  16.625 -0.2889  0.4470  0.3289
19433TIP3    H179790   5.006   5.002  16.588  1.7448  2.5894 -0.8388
19433TIP3    H279791   4.950   5.053  16.719  0.9275 -0.6454  0.1585
19434TIP3   OH279792   3.606   2.878  16.856  0.5172 -0.0114  0.3663
19434TIP3    H179793   3.546   2.948  16.882  0.0081 -0.3629  0.1437
19434TIP3    H279794   3.647   2.850  16.938  2.1690  1.8320  0.2562
19435TIP3   OH279795   0.532   4.523   5.589 -0.2385  0.0462 -0.2890
19435TIP3    H179796   0.495   4.439   5.561  1.0199 -0.3933 -0.7395
19435TIP3    H279797   0.533   4.577   5.510  1.3607 -0.4548 -0.6530
19436TIP3   OH279798   6.339   0.840   3.600  0.0798  0.2350 -0.3031
19436TIP3    H179799   6.318   0.832   3.693  0.0718  0.1621 -0.3109
19436TIP3    H279800   6.254   0.846   3.557  0.0937  0.7671 -0.2623
19437TIP3   OH279801   3.818   4.578  13.758 -0.0107 -0.1913 -0.2460
19437TIP3    H179802   3.914   4.578  13.760  0.1424  3.4887  1.7850
19437TIP3    H279803   3.792   4.517  13.827  0.7404 -2.0601 -1.5347
19438TIP3   OH279804   2.816   2.353  11.905 -0.5732  0.2142  0.3101
19438TIP3    H179805   2.734   2.341  11.858 -0.2822  1.2501 -0.4958
19438TIP3    H279806   2.789   2.365  11.997 -1.1554 -1.5220  0.3916
19439TIP3   OH279807   2.745   6.251   3.729  0.0953 -0.3863 -0.3368
19439TIP3    H179808   2.695   6.206   3.797  0.9279  0.6126  0.9892
19439TIP3    H279809   2.785   6.181   3.679 -0.8674 -1.1602 -0.0761
19440TIP3   OH279810   2.472   0.132  11.291 -0.1775  0.3525  0.1946
19440TIP3    H179811   2.517   0.166  11.368  1.1962 -2.9712  1.0368
19440TIP3    H279812   2.535   0.140  11.220  0.7062 -1.4310  0.6968
19441TIP3   OH279813   3.143   4.581   3.350  0.3345 -0.3397  0.3254
19441TIP3    H179814   3.129   4.593   3.444 -0.8404 -2.1953  0.4324
19441TIP3    H279815   3.125   4.667   3.312 -2.0345 -0.2222  1.5307
19442TIP3   OH279816   5.976   2.471   5.360  0.3896 -0.2317  0.3313
19442TIP3    H179817   5.988   2.558   5.323  0.2235 -1.5354 -3.2886
19442TIP3    H279818   6.038   2.466   5.432  0.6489  2.7139  0.4354
19443TIP3   OH279819   3.009   6.694   4.467 -0.2726 -0.2208  0.2234
19443TIP3    H179820   3.015   6.613   4.416 -1.1435  0.1058 -0.4188
19443TIP3    H279821   2.922   6.728   4.449 -0.0667  0.6560  0.8035
19444TIP3   OH279822   3.619   6.465   3.216 -0.3364 -0.1128 -0.4603
19444TIP3    H179823   3.576   6.441   3.134 -2.4329  0.8901  0.2816
19444TIP3    H279824   3.667   6.386   3.241 -1.7288 -1.3035 -1.3733
19445TIP3   OH279825   0.319   4.825  12.511 -0.8454  0.5083 -0.4807
19445TIP3    H179826   0.388   4.863  12.456  0.0516  1.3038  1.1282
19445TIP3    H279827   0.238   4.863  12.476 -0.6553 -1.0713 -2.9282
19446TIP3   OH279828   1.833   3.306   3.677 -0.3334 -0.0136 -0.1221
19446TIP3    H179829   1.923   3.276   3.692 -0.3448 -0.0361 -0.0975
19446TIP3    H279830   1.830   3.331   3.585 -0.3381 -0.1368 -0.1561
19447TIP3   OH279831   6.436   0.582   5.208  0.3585  0.4068 -0.0975
19447TIP3    H179832   6.386   0.654   5.170 -0.1087  1.2090  1.8968
19447TIP3    H279833   6.523   0.618   5.222  0.3281  0.3674  0.2141
19448TIP3   OH279834   4.564   0.703  13.518  0.1182 -0.1485 -0.6573
19448TIP3    H179835   4.502   0.774  13.531  0.8585  0.1140  1.9132
19448TIP3    H279836   4.614   0.729  13.440  2.5933  4.0251  1.9300
19449TIP3   OH279837   3.652   0.944  14.867  0.0890  0.2425 -0.2021
19449TIP3    H179838   3.686   1.025  14.829 -0.5133  1.0078  0.8478
19449TIP3    H279839   3.590   0.911  14.803  2.2932 -0.8757 -1.9014
19450TIP3   OH279840   3.939   6.535  12.825  0.4481  0.1643  0.3968
19450TIP3    H179841   4.021   6.581  12.843  0.1178  1.0749 -0.3312
19450TIP3    H279842   3.932   6.535  12.729 -1.8124  2.7612  0.4530
19451TIP3   OH279843   0.513   2.106   2.135  0.4657  0.6310 -0.4638
19451TIP3    H179844   0.466   2.047   2.075 -1.3656  0.0205  1.4461
19451TIP3    H279845   0.448   2.172   2.160  2.2773  3.1875 -2.0182
19452TIP3   OH279846   1.022   0.536   5.077  0.5115 -0.4387 -0.3518
19452TIP3    H179847   0.945   0.483   5.056  0.1334  0.5323 -1.5574
19452TIP3    H279848   1.058   0.495   5.155 -1.9379 -0.1761  1.0332
19453TIP3   OH279849   4.776   0.959  15.324  0.2469 -0.2961  0.0856
19453TIP3    H179850   4.738   0.987  15.407 -0.2320  1.0723 -0.5728
19453TIP3    H279851   4.814   1.038  15.286 -1.1269 -0.4850 -1.8420
19454TIP3   OH279852   1.276   6.271  13.254 -0.4235 -0.3567 -0.0283
19454TIP3    H179853   1.289   6.197  13.314 -0.9173  0.8469  1.6613
19454TIP3    H279854   1.182   6.291  13.261 -0.4759 -0.1268 -1.1629
19455TIP3   OH279855   3.815   5.467  16.397 -0.2695 -0.4266 -0.0817
19455TIP3    H179856   3.785   5.384  16.360  0.4553 -0.5939 -0.3210
19455TIP3    H279857   3.853   5.442  16.482  1.0976 -0.5488 -0.6951
19456TIP3   OH279858   4.224   5.656   5.371  0.0770  0.0228 -0.4537
19456TIP3    H179859   4.277   5.594   5.419 -1.8764 -0.4727  1.1849
19456TIP3    H279860   4.195   5.720   5.436 -1.2768  0.2934 -1.2615
19457TIP3   OH279861   1.464   3.717   2.971  0.2157  0.1553  0.9097
19457TIP3    H179862   1.378   3.676   2.977 -0.7297  1.6097 -1.3396
19457TIP3    H279863   1.500   3.685   2.888  0.8965  1.2134  0.7805
19458TIP3   OH279864   2.630   4.845   2.761 -0.4945 -0.7718 -0.0181
19458TIP3    H179865   2.716   4.876   2.733 -0.4447  0.2677  1.2336
19458TIP3    H279866   2.613   4.768   2.706  0.5054 -0.0326 -1.3979
19459TIP3   OH279867   5.239   5.557   0.184  0.2162  0.1881 -0.3344
19459TIP3    H179868   5.318   5.611   0.192 -1.9149  3.4669  0.8168
19459TIP3    H279869   5.229   5.516   0.270  0.1494  0.6348 -0.1220
19460TIP3   OH279870   3.279   4.630   4.622 -0.7690  0.0715 -0.0101
19460TIP3    H179871   3.202   4.616   4.678  0.7613 -0.2365  2.1628
19460TIP3    H279872   3.346   4.661   4.683  0.4421  1.7596 -2.0862
19461TIP3   OH279873   0.239   2.297   1.529  0.4050  0.4478 -0.4900
19461TIP3    H179874   0.302   2.256   1.587 -0.3334 -0.5370 -0.3477
19461TIP3    H279875   0.185   2.352   1.586  1.3042  1.5404 -0.6590
19462TIP3   OH279876   4.889   1.574   6.329  0.1811  0.1951  0.0611
19462TIP3    H179877   4.945   1.648   6.307  1.2505 -0.8455 -0.8195
19462TIP3    H279878   4.928   1.499   6.284 -1.6366 -0.6681 -0.1750
19463TIP3   OH279879   2.792   3.611  13.640 -0.2994  0.3666  0.3325
19463TIP3    H179880   2.699   3.589  13.628 -0.5781  0.2602  2.3964
19463TIP3    H279881   2.806   3.687  13.584 -2.3436  2.0482  1.9656
19464TIP3   OH279882   5.744   6.673   6.140 -0.1011  0.0079  0.1021
19464TIP3    H179883   5.808   6.711   6.200  1.1237  0.5936 -1.5066
19464TIP3    H279884   5.738   6.581   6.166 -0.7843  0.5575  2.0817
19465TIP3   OH279885   0.554   6.217   3.240  0.2720  0.2670  0.0614
19465TIP3    H179886   0.637   6.264   3.234  1.0747 -1.2183 -1.3076
19465TIP3    H279887   0.551   6.184   3.329  0.4465  1.5422  0.5577
19466TIP3   OH279888   4.313   2.591  12.496  0.3010 -0.2980  0.0340
19466TIP3    H179889   4.406   2.605  12.477  0.6980 -3.6824 -1.1746
19466TIP3    H279890   4.299   2.498  12.480 -3.5815  0.2789 -0.9257
19467TIP3   OH279891   6.611   4.665  14.466  0.7348 -0.2616  0.3525
19467TIP3    H179892   6.571   4.602  14.526  0.2804 -0.8390 -0.5394
19467TIP3    H279893   6.687   4.619  14.431  1.6258  0.4610  1.2642
19468TIP3   OH279894   0.221   6.399  11.473  0.2652  0.4603  0.6853
19468TIP3    H179895   0.279   6.450  11.529 -1.2183  4.3433 -1.0000
19468TIP3    H279896   0.135   6.403  11.516  0.3867 -2.3900  1.4418
19469TIP3   OH279897   3.119   4.515   5.280 -0.4529 -0.3856 -0.0588
19469TIP3    H179898   3.074   4.514   5.195 -2.0731 -2.1334  0.7369
19469TIP3    H279899   3.165   4.431   5.284 -0.4869 -0.3727  0.8102
19470TIP3   OH279900   3.536   0.929  11.952  0.2657  0.0271  0.1609
19470TIP3    H179901   3.602   0.916  11.883 -1.2256 -0.1314 -1.3142
19470TIP3    H279902   3.458   0.884  11.918 -1.0442  1.4569  1.1687
19471TIP3   OH279903   5.542   1.368  16.427  0.1405 -0.1874 -0.5839
19471TIP3    H179904   5.546   1.311  16.350  1.4565  0.1425 -0.7725
19471TIP3    H279905   5.627   1.410  16.431  0.1506 -0.2962  1.1396
19472TIP3   OH279906   0.208   4.206   0.329  0.8299 -0.7628  0.4975
19472TIP3    H179907   0.171   4.131   0.283 -1.2004 -0.1808  1.0425
19472TIP3    H279908   0.237   4.265   0.260 -1.9287 -0.0254 -0.1834
19473TIP3   OH279909   2.558   5.297   0.549 -0.3880  0.3560 -0.2749
19473TIP3    H179910   2.608   5.376   0.569 -1.8178  1.3280 -0.3497
19473TIP3    H279911   2.583   5.275   0.459 -0.5565  1.2114 -0.5445
19474TIP3   OH279912   4.214   3.558   2.790  0.2227 -0.7060 -0.4574
19474TIP3    H179913   4.137   3.502   2.780 -1.1957  0.7027  1.5721
19474TIP3    H279914   4.211   3.617   2.715 -0.4006 -0.9675 -0.6466
19475TIP3   OH279915   0.427   4.691   5.841 -0.2029  0.4952  0.1032
19475TIP3    H179916   0.367   4.631   5.797  0.5513 -0.9124  0.9299
19475TIP3    H279917   0.373   4.737   5.905 -0.6822  0.2891 -0.1510
19476TIP3   OH279918   1.127   2.912  16.108  0.4523 -0.3929 -0.2864
19476TIP3    H179919   1.144   2.988  16.164 -2.9931  1.1287 -1.0374
19476TIP3    H279920   1.096   2.949  16.026  1.1359 -2.6322 -1.6508
19477TIP3   OH279921   1.701   0.751   0.478  0.0428 -0.2354  0.4869
19477TIP3    H179922   1.614   0.763   0.516 -0.5759 -0.9106 -0.6674
19477TIP3    H279923   1.730   0.839   0.455 -1.1296 -0.1425 -0.7880
19478TIP3   OH279924   4.395   4.374  10.994  0.6198 -0.2018  0.6638
19478TIP3    H179925   4.432   4.304  11.048 -0.7943 -0.8529  0.8316
19478TIP3    H279926   4.306   4.386  11.027  0.0879  0.1301 -0.8022
19479TIP3   OH279927   0.288   1.023  10.686  0.0231  0.4541 -0.1904
19479TIP3    H179928   0.375   0.988  10.702  0.3504  1.3191 -0.0042
19479TIP3    H279929   0.269   1.001  10.595  1.8663  3.1188 -1.3604
19480TIP3   OH279930   6.588   0.897  15.317 -0.4420  0.2041  0.0478
19480TIP3    H179931   6.582   0.804  15.342  1.4698  0.3140  1.1920
19480TIP3    H279932   6.551   0.944  15.392  0.3071  0.3921  0.3100
19481TIP3   OH279933   0.219   1.357   3.380 -0.2629 -0.3405  0.3710
19481TIP3    H179934   0.210   1.423   3.312  1.5818 -0.1830  0.2243
19481TIP3    H279935   0.168   1.390   3.453  0.3822  1.1182  0.1892
19482TIP3   OH279936   1.879   1.791  16.018 -0.5080  0.9187 -0.1697
19482TIP3    H179937   1.946   1.859  16.009 -1.5940  2.2343  1.0687
19482TIP3    H279938   1.796   1.838  16.009 -1.2928 -0.5527 -0.9834
19483TIP3   OH279939   0.857   5.934   0.876  0.5558  0.0076 -0.2463
19483TIP3    H179940   0.879   5.852   0.921  1.5755 -1.0582 -2.5372
19483TIP3    H279941   0.843   5.909   0.785 -0.9383  2.1436 -0.6973
19484TIP3   OH279942   0.816   4.378  11.253  0.3650 -0.6941 -0.7129
19484TIP3    H179943   0.866   4.319  11.196  1.2515 -1.2414  0.5914
19484TIP3    H279944   0.767   4.320  11.311  2.1069 -0.2488  1.3410
19485TIP3   OH279945   5.226   2.999  15.259 -0.0821 -0.4148  0.0184
19485TIP3    H179946   5.141   2.997  15.302 -0.0277 -1.2549  0.0966
19485TIP3    H279947   5.212   3.055  15.182 -0.0370  1.5610  1.3560
19486TIP3   OH279948   2.520   0.122   1.437  0.1641  0.3865 -0.2025
19486TIP3    H179949   2.506   0.168   1.354 -0.4810 -0.3370 -0.5147
19486TIP3    H279950   2.481   0.036   1.423  1.2673 -0.2306  0.3973
19487TIP3   OH279951   4.208   1.364  13.135 -0.4440 -0.0270  0.0298
19487TIP3    H179952   4.221   1.311  13.056 -1.0649 -0.5293  0.2588
19487TIP3    H279953   4.136   1.322  13.181 -2.3527  2.1634 -0.7743
19488TIP3   OH279954   4.647   1.679  11.001  0.0437 -0.2761  0.3190
19488TIP3    H179955   4.739   1.671  11.028  0.1605 -1.8382 -0.4799
19488TIP3    H279956   4.638   1.772  10.977  2.2129 -0.5823 -2.2272
19489TIP3   OH279957   4.928   2.180  14.566  0.0446 -0.2996  0.3838
19489TIP3    H179958   4.988   2.141  14.502 -0.7109 -1.1400  0.1596
19489TIP3    H279959   4.861   2.222  14.512  0.3869  0.5777  0.6318
19490TIP3   OH279960   4.780   2.509  14.967  0.3885  0.3495 -0.1318
19490TIP3    H179961   4.726   2.588  14.960 -3.0813 -1.8287 -0.4987
19490TIP3    H279962   4.849   2.521  14.901  1.0059  3.6659  0.9529
19491TIP3   OH279963   1.762   6.445  14.221 -0.1139 -0.1229  0.1992
19491TIP3    H179964   1.708   6.370  14.197 -0.3738  0.1197  0.0265
19491TIP3    H279965   1.727   6.474  14.305 -0.7155  0.4760 -0.2545
19492TIP3   OH279966   3.308   0.432   1.255 -0.6661 -0.2784  0.1903
19492TIP3    H179967   3.341   0.436   1.344 -1.4995  0.7908  0.4698
19492TIP3    H279968   3.265   0.516   1.241  0.3268 -0.0115 -1.5824
19493TIP3   OH279969   2.137   2.920  10.438  0.7290  0.1084 -0.0470
19493TIP3    H179970   2.169   2.949  10.524 -0.2172  1.8431 -0.2183
19493TIP3    H279971   2.043   2.938  10.441  0.3859 -1.4509 -0.8424
19494TIP3   OH279972   5.357   4.193  10.983 -0.1849 -0.6032 -0.1636
19494TIP3    H179973   5.446   4.227  10.988 -0.4444  0.1309 -0.3153
19494TIP3    H279974   5.367   4.103  10.951  0.4073  0.0428 -1.9595
19495TIP3   OH279975   0.321   4.289  11.371  0.7012  0.0683 -0.9176
19495TIP3    H179976   0.414   4.307  11.357  0.7164  0.9427  0.1245
19495TIP3    H279977   0.279   4.309  11.288  1.6817 -2.4247 -2.0992
19496TIP3   OH279978   1.921   2.007  17.133 -0.2310 -0.2150 -0.1110
19496TIP3    H179979   1.879   2.020  17.218 -0.7707 -1.2529 -0.1975
19496TIP3    H279980   1.854   1.964  17.080 -0.4984  1.9696 -1.6411
19497TIP3   OH279981   6.333   3.988  11.980 -0.2144 -0.1704 -0.2967
19497TIP3    H179982   6.291   4.044  12.046 -0.9630  0.0363 -0.9372
19497TIP3    H279983   6.425   4.015  11.981 -0.4859  0.7890 -0.3002
19498TIP3   OH279984   0.402   1.251   4.225  0.1794  0.0811  0.0795
19498TIP3    H179985   0.438   1.314   4.163 -2.2797  2.0002  0.4478
19498TIP3    H279986   0.415   1.166   4.183  2.1191  0.9296 -1.1966
19499TIP3   OH279987   2.501   2.824   5.444 -0.6887 -0.2738  0.2713
19499TIP3    H179988   2.405   2.831   5.442 -0.6359  0.5470  0.1157
19499TIP3    H279989   2.528   2.893   5.505 -0.2123 -0.7090  0.5572
19500TIP3   OH279990   6.054   3.572  14.049 -0.2639  0.8999  0.3056
19500TIP3    H179991   6.117   3.516  14.095  0.5264  0.1302 -1.6239
19500TIP3    H279992   5.969   3.531  14.065  0.0951  0.1801  0.3736
19501TIP3   OH279993   1.102   3.061   5.334  0.4639  0.4078  0.4977
19501TIP3    H179994   1.065   3.013   5.408  1.0332 -1.7556 -0.5377
19501TIP3    H279995   1.095   3.153   5.359 -2.7352 -0.0221  1.6425
19502TIP3   OH279996   5.480   5.190  13.970  0.1152 -0.1627  0.3628
19502TIP3    H179997   5.467   5.111  13.917 -0.8279 -1.0806  1.8946
19502TIP3    H279998   5.548   5.166  14.033  0.6040  0.6329  0.1582
19503TIP3   OH279999   4.157   4.375  13.579  0.4579  0.4014  0.2897
19503TIP3    H180000   4.113   4.358  13.495  0.6142 -0.6155  0.4040
19503TIP3    H280001   4.237   4.422  13.555 -0.2901  1.5874  0.0154
19504TIP3   OH280002   3.025   2.573   4.201 -0.0643  0.3012 -0.1790
19504TIP3    H180003   3.013   2.576   4.296  3.1492  0.0042  0.3588
19504TIP3    H280004   3.009   2.482   4.177 -0.3336  0.2567  0.1643
19505TIP3   OH280005   1.714   5.602   5.343 -0.6243  0.3392  0.4684
19505TIP3    H180006   1.683   5.595   5.252  1.3724 -0.7876 -0.1791
19505TIP3    H280007   1.713   5.696   5.361 -0.2563  0.6691 -1.0389
19506TIP3   OH280008   5.661   4.267  12.760  0.1068 -0.0639 -0.0237
19506TIP3    H180009   5.663   4.224  12.674 -0.5698  1.1636 -0.6765
19506TIP3    H280010   5.614   4.349  12.745  0.2695  0.3292  1.4582
19507TIP3   OH280011   2.798   4.203  15.596 -0.3352  0.1804  0.6009
19507TIP3    H180012   2.887   4.185  15.565 -0.4003 -0.6356  0.8669
19507TIP3    H280013   2.766   4.273  15.539  0.2645  0.0656  0.1198
19508TIP3   OH280014   4.079   3.513  12.854 -0.4389  0.5985  0.2836
19508TIP3    H180015   4.132   3.591  12.839  2.1858 -1.1140 -0.0896
19508TIP3    H280016   4.142   3.441  12.848 -2.7199 -1.5385  0.7286
19509TIP3   OH280017   5.818   0.402  12.206  0.0282  0.8886  0.4715
19509TIP3    H180018   5.832   0.313  12.175 -0.7580  1.0379 -0.3291
19509TIP3    H280019   5.875   0.410  12.283 -0.1293 -0.4006  0.7382
19510TIP3   OH280020   5.012   4.444  13.463  0.0566 -0.1162  0.3847
19510TIP3    H180021   5.082   4.472  13.403 -0.4652 -0.3029 -0.3224
19510TIP3    H280022   5.053   4.379  13.520  0.5777  0.1160  0.2764
19511TIP3   OH280023   3.872   4.633  12.342 -0.6473 -0.3855 -0.1420
19511TIP3    H180024   3.778   4.634  12.361 -0.4635  0.0317  0.7902
19511TIP3    H280025   3.884   4.555  12.288 -1.4376 -0.7686  0.2112
19512TIP3   OH280026   3.484   5.791  11.574  0.3551  0.0607  0.3070
19512TIP3    H180027   3.498   5.699  11.549  1.8422  0.3458  0.0080
19512TIP3    H280028   3.461   5.835  11.492 -0.0438  0.0096  0.3927
19513TIP3   OH280029   5.318   4.204  11.637  0.1597 -0.0814 -0.1844
19513TIP3    H180030   5.383   4.262  11.599  0.4424 -1.0818 -1.2776
19513TIP3    H280031   5.253   4.263  11.676  0.7731  0.9472 -0.6831
19514TIP3   OH280032   6.739   4.012  16.392 -0.2418  0.2478 -0.6208
19514TIP3    H180033   6.803   4.083  16.397 -0.1523  0.2451 -1.6044
19514TIP3    H280034   6.712   4.011  16.300  1.4956 -2.5012 -1.1941
19515TIP3   OH280035   2.555   2.338   4.005  0.0396 -0.1682 -0.7277
19515TIP3    H180036   2.648   2.360   4.012  0.0728 -0.3041 -0.7279
19515TIP3    H280037   2.540   2.277   4.077 -0.5892  1.6079  0.6950
19516TIP3   OH280038   2.175   6.432  11.315  0.1902  0.0489 -0.3729
19516TIP3    H180039   2.186   6.513  11.364 -3.2591  2.2803 -2.8791
19516TIP3    H280040   2.112   6.381  11.365 -0.6431  0.7397 -0.6984
19517TIP3   OH280041   0.735   0.971   3.160 -0.1721 -0.3423  0.3427
19517TIP3    H180042   0.714   0.878   3.160 -0.9801 -0.2587 -2.6989
19517TIP3    H280043   0.651   1.015   3.149  0.3176  0.6763  0.5402
19518TIP3   OH280044   3.408   6.261   5.884  0.0455 -0.0829 -0.0063
19518TIP3    H180045   3.500   6.235   5.884 -0.0124 -0.3442  1.3199
19518TIP3    H280046   3.407   6.343   5.834  1.4064  1.2004  1.9082
19519TIP3   OH280047   0.021   0.742  12.343 -0.0949 -0.4571  0.3631
19519TIP3    H180048  -0.066   0.773  12.370 -0.4052 -0.5072 -0.5399
19519TIP3    H280049   0.082   0.787  12.401 -0.7657 -0.9951  1.5184
19520TIP3   OH280050   5.400   0.553  16.579 -0.1968  0.1524  0.7706
19520TIP3    H180051   5.338   0.579  16.511  1.3666 -1.9904 -1.6877
19520TIP3    H280052   5.478   0.606  16.563 -0.0023  0.0282  1.2794
19521TIP3   OH280053   5.074   3.622  11.112  0.4644 -0.0373  0.5901
19521TIP3    H180054   5.119   3.695  11.069  1.9262 -1.7196 -0.9366
19521TIP3    H280055   5.144   3.575  11.158 -0.4691 -0.4249  1.6620
19522TIP3   OH280056   6.275   5.699   0.686 -0.1207  0.2926  0.3354
19522TIP3    H180057   6.197   5.702   0.742  0.3673  0.9974  0.9827
19522TIP3    H280058   6.345   5.737   0.739  0.5388  0.2134 -0.4582
19523TIP3   OH280059   2.190   5.531   0.454  0.0904  0.3404  0.4114
19523TIP3    H180060   2.266   5.583   0.426  2.2754 -1.9291  1.7141
19523TIP3    H280061   2.210   5.506   0.544 -0.2231 -3.5973 -0.4322
19524TIP3   OH280062   1.459   2.549   6.108  0.0860 -0.2614 -0.5929
19524TIP3    H180063   1.544   2.580   6.077  1.0213  0.3326  2.3063
19524TIP3    H280064   1.471   2.454   6.117  0.7304 -0.1001  0.4687
19525TIP3   OH280065   1.478   3.577   6.800  0.2153  0.1266  0.4153
19525TIP3    H180066   1.474   3.589   6.705  0.8491 -0.3238  0.3294
19525TIP3    H280067   1.395   3.536   6.822  0.6519 -1.1034 -0.1481
19526TIP3   OH280068   3.463   4.121   0.963  0.5439  0.4013 -0.3862
19526TIP3    H180069   3.372   4.108   0.938  0.5835  1.4074 -1.1273
19526TIP3    H280070   3.484   4.209   0.931  2.6582 -0.9267 -3.0198
19527TIP3   OH280071   4.967   4.641   5.579 -0.8077 -0.1558  0.4218
19527TIP3    H180072   4.881   4.682   5.590 -1.7861 -2.2761  1.4086
19527TIP3    H280073   4.953   4.579   5.506  0.5641  1.0472 -0.9285
19528TIP3   OH280074   1.790   5.678   3.534  0.3514  1.1006 -0.5260
19528TIP3    H180075   1.795   5.764   3.492  1.2873  1.9294  1.1929
19528TIP3    H280076   1.874   5.636   3.513  0.0103  0.7018 -1.1250
19529TIP3   OH280077   1.340   0.282   3.171 -0.0694  0.1206  0.3647
19529TIP3    H180078   1.397   0.219   3.216 -0.0214 -1.7363 -2.0540
19529TIP3    H280079   1.400   0.344   3.130 -0.0497  0.8653  1.4735
19530TIP3   OH280080   3.450   5.402  16.467 -0.0792 -0.1084  0.0729
19530TIP3    H180081   3.471   5.321  16.422  0.1724  0.7601 -1.4424
19530TIP3    H280082   3.534   5.431  16.504  0.0022 -0.1191 -0.1026
19531TIP3   OH280083   1.673   0.887  12.426 -0.3430  0.4191  0.1072
19531TIP3    H180084   1.720   0.940  12.491  0.2312 -0.3885  0.3702
19531TIP3    H280085   1.650   0.949  12.357  1.3517  0.8130 -0.1618
19532TIP3   OH280086   2.582   1.318   3.218  0.0374  0.1207 -0.1956
19532TIP3    H180087   2.578   1.363   3.302  2.1636  0.8427 -0.4234
19532TIP3    H280088   2.575   1.388   3.153  0.0952 -0.2541 -0.6102
19533TIP3   OH280089   5.622   4.242   0.386 -0.1064 -0.1864  0.4881
19533TIP3    H180090   5.600   4.149   0.374  0.1747 -0.2794  0.6858
19533TIP3    H280091   5.692   4.242   0.452 -2.7911  0.4134  3.5601
19534TIP3   OH280092   6.433   4.371   4.849 -0.1864  0.1877  0.0394
19534TIP3    H180093   6.430   4.408   4.761 -0.8603 -2.2883 -1.0879
19534TIP3    H280094   6.520   4.392   4.881 -0.5213  2.6628 -0.4475
19535TIP3   OH280095   0.666   6.601   0.847  0.1500 -0.0893  0.2537
19535TIP3    H180096   0.752   6.612   0.806  2.2356 -0.1905  4.1391
19535TIP3    H280097   0.630   6.689   0.851  0.6150  0.1337 -0.3250
19536TIP3   OH280098   5.367   4.401   4.187 -0.1547  0.0268 -0.1751
19536TIP3    H180099   5.343   4.454   4.111 -0.0170  0.5564  0.1512
19536TIP3    H280100   5.286   4.395   4.238 -0.2385 -0.3003 -0.3449
19537TIP3   OH280101   6.711   1.583   0.470  0.0777  0.7461  0.3424
19537TIP3    H180102   6.629   1.609   0.511 -0.8058 -1.5631  0.2221
19537TIP3    H280103   6.768   1.558   0.543 -0.0185  0.5648  0.3569
19538TIP3   OH280104   3.399   6.706   3.467  0.3518  0.8247  0.1607
19538TIP3    H180105   3.494   6.691   3.469  0.5778  1.7251 -1.3386
19538TIP3    H280106   3.390   6.801   3.478 -0.3707  0.7378  0.3584
19539TIP3   OH280107   4.212   4.130  14.686  0.1384 -0.4120  0.5130
19539TIP3    H180108   4.147   4.134  14.756  1.1610 -0.3386  1.4969
19539TIP3    H280109   4.164   4.151  14.607 -1.4693 -2.4183  0.8819
19540TIP3   OH280110   4.129   4.401  14.586 -0.1488 -0.4699  0.2986
19540TIP3    H180111   4.203   4.457  14.563  0.6191 -1.1301  1.1402
19540TIP3    H280112   4.145   4.375  14.676 -1.9314  0.1911  0.8525
19541TIP3   OH280113   1.475   5.644   3.580 -0.1939  0.4393  0.5015
19541TIP3    H180114   1.542   5.589   3.620 -0.6809 -0.6955 -0.1943
19541TIP3    H280115   1.403   5.584   3.561  0.1723  0.8007 -2.4391
19542TIP3   OH280116   5.713   3.279  11.049 -0.3468  1.2116  0.2372
19542TIP3    H180117   5.701   3.213  10.980  0.1486  1.1363  0.2171
19542TIP3    H280118   5.630   3.326  11.052 -1.1534 -0.2255  1.1153
19543TIP3   OH280119   2.417   6.492  16.235 -0.5463  0.1927  0.0566
19543TIP3    H180120   2.337   6.465  16.279 -1.0850 -0.2288 -1.1310
19543TIP3    H280121   2.433   6.423  16.170  0.7008  0.3450  0.1690
19544TIP3   OH280122   0.770   3.086   4.540  0.3680  0.1645  0.3440
19544TIP3    H180123   0.696   3.058   4.486 -0.4796  3.3855 -0.3603
19544TIP3    H280124   0.734   3.093   4.628  0.0916  0.7147  0.1924
19545TIP3   OH280125   2.556   1.370  13.191 -0.1483  0.2124  0.0035
19545TIP3    H180126   2.523   1.280  13.200  0.3628 -0.2525 -2.2077
19545TIP3    H280127   2.600   1.371  13.106  1.5420  2.0612  0.8285
19546TIP3   OH280128   2.801   1.425   3.886  0.3299  0.4246 -0.0611
19546TIP3    H180129   2.779   1.518   3.882 -0.1674  0.3453  0.6521
19546TIP3    H280130   2.869   1.419   3.954 -1.3189 -0.0155  1.6181
19547TIP3   OH280131   5.006   1.675   1.614  0.2531 -0.2432 -0.5976
19547TIP3    H180132   4.949   1.599   1.629  0.7354 -0.5267 -0.1779
19547TIP3    H280133   5.031   1.705   1.701 -1.4844  1.6161 -0.6835
19548TIP3   OH280134   0.382   5.919  15.856 -0.2385  0.5505  0.0816
19548TIP3    H180135   0.407   5.846  15.799  0.3196 -1.0802  2.2620
19548TIP3    H280136   0.312   5.964  15.808  0.9507 -0.0355 -2.3251
19549TIP3   OH280137   5.476   4.625  15.549  0.3529  0.0191 -0.2817
19549TIP3    H180138   5.402   4.663  15.596  0.3910 -1.2734  0.9001
19549TIP3    H280139   5.526   4.700  15.517 -1.8862  0.9434 -1.8437
19550TIP3   OH280140   3.053   1.546  16.758 -0.1089  0.3160 -0.7654
19550TIP3    H180141   2.969   1.539  16.804 -0.4396 -0.3424 -1.4519
19550TIP3    H280142   3.052   1.635  16.722 -0.2562  0.5070 -0.3077
19551TIP3   OH280143   0.390   2.852  15.180  0.0933 -0.0872 -0.2335
19551TIP3    H180144   0.338   2.812  15.250  0.0658 -0.3047 -0.3765
19551TIP3    H280145   0.372   2.946  15.187 -1.3349 -0.2563 -1.0826
19552TIP3   OH280146   2.778   2.128   3.128  0.4522  0.3114  0.3746
19552TIP3    H180147   2.775   2.033   3.131 -0.0806  0.3171  0.1378
19552TIP3    H280148   2.761   2.156   3.218 -0.9404  0.2037  0.1711
19553TIP3   OH280149   0.389   0.923  15.490 -0.0144  0.3058 -0.0907
19553TIP3    H180150   0.465   0.909  15.547 -0.4444  2.0234  0.9749
19553TIP3    H280151   0.428   0.940  15.404  0.6476 -2.0884 -0.3387
19554TIP3   OH280152   6.792   4.879   5.876  0.4542 -0.6734 -0.0653
19554TIP3    H180153   6.772   4.920   5.960  0.6232  0.7980 -0.7146
19554TIP3    H280154   6.852   4.807   5.899  1.2609  0.2827  0.9870
19555TIP3   OH280155   2.028   1.566   5.276 -0.0494  0.6791 -0.1308
19555TIP3    H180156   2.010   1.579   5.183  0.3107 -1.1815 -0.5092
19555TIP3    H280157   1.990   1.642   5.319 -0.4490  1.4488 -1.7742
19556TIP3   OH280158   3.478   4.900   4.902 -0.7999 -0.0552 -0.8907
19556TIP3    H180159   3.507   4.880   4.813 -1.2982 -0.7507 -0.9012
19556TIP3    H280160   3.391   4.937   4.891 -0.2139  1.4277 -0.8078
19557TIP3   OH280161   2.056   6.003   3.095 -0.3101  0.3627 -0.1042
19557TIP3    H180162   2.051   5.912   3.066 -0.7269  0.2242  0.3788
19557TIP3    H280163   2.095   5.998   3.183 -1.9497  0.4601  0.6767
19558TIP3   OH280164   2.022   6.041  11.581 -0.1213 -0.0457 -0.1150
19558TIP3    H180165   1.988   5.987  11.652  0.3184 -0.1749  0.0006
19558TIP3    H280166   2.115   6.051  11.601  0.7152 -2.6221 -2.2696
19559TIP3   OH280167   0.879   3.819  11.290 -0.3512 -0.0142  0.1771
19559TIP3    H180168   0.872   3.845  11.198 -0.7387  1.6037  0.6306
19559TIP3    H280169   0.912   3.729  11.287  0.7258  0.3991 -1.5050
19560TIP3   OH280170   4.114   3.639   1.601  0.1950  0.0434 -0.3593
19560TIP3    H180171   4.147   3.555   1.632  1.6411  0.9611  0.7361
19560TIP3    H280172   4.095   3.625   1.509 -0.5274 -1.7301  0.0086
19561TIP3   OH280173   5.203   6.509   2.381  0.7399 -0.1496 -0.0900
19561TIP3    H180174   5.250   6.554   2.451  2.0730 -0.1474 -0.9471
19561TIP3    H280175   5.188   6.421   2.414 -1.9828  0.8158  1.6536
19562TIP3   OH280176   6.316   2.104   2.196 -0.2887  0.4957 -0.2614
19562TIP3    H180177   6.226   2.136   2.197 -0.2473  1.1740 -3.5958
19562TIP3    H280178   6.319   2.035   2.261 -2.9240  1.1390  0.6516
19563TIP3   OH280179   2.012   5.154  17.032 -0.6252 -0.2005 -0.1071
19563TIP3    H180180   2.029   5.235  17.080 -0.3994 -0.4546  0.2447
19563TIP3    H280181   2.097   5.131  16.995 -0.6729 -0.3189 -0.1407
19564TIP3   OH280182   5.931   1.714  14.650 -0.1858 -0.1304  0.0768
19564TIP3    H180183   5.894   1.731  14.564  1.0123 -1.1494 -0.6756
19564TIP3    H280184   5.870   1.651  14.690 -2.0024  2.0559  0.9617
19565TIP3   OH280185   3.354   2.281  10.808 -0.2224  0.6194 -0.2663
19565TIP3    H180186   3.404   2.237  10.739  0.5276  3.0854 -1.3856
19565TIP3    H280187   3.284   2.219  10.829  0.4883 -0.9005 -2.0777
19566TIP3   OH280188   4.896   4.631   3.694 -0.8255  0.1808  0.3149
19566TIP3    H180189   4.842   4.569   3.744 -0.9933  1.5152  1.8959
19566TIP3    H280190   4.843   4.653   3.618 -1.0831 -1.0269  0.1210
19567TIP3   OH280191   3.064   2.024  10.115 -0.4795 -0.0181  0.8004
19567TIP3    H180192   3.052   2.048  10.023  0.4653  0.5722  0.8205
19567TIP3    H280193   2.976   2.028  10.153 -0.9248 -0.5549 -0.1343
19568TIP3   OH280194   1.719   3.632   3.667 -0.3988 -0.1050 -0.5774
19568TIP3    H180195   1.700   3.606   3.757 -0.6093  2.0147  0.0238
19568TIP3    H280196   1.812   3.613   3.656  0.0228  1.1188  0.6438
19569TIP3   OH280197   1.814   0.276   2.510  0.6118 -0.6351  0.0438
19569TIP3    H180198   1.735   0.281   2.456  0.3787  1.9476  0.5053
19569TIP3    H280199   1.782   0.272   2.600  1.0126 -1.1841  0.1669
19570TIP3   OH280200   2.438   1.831  15.308 -0.9153  0.1732  0.4478
19570TIP3    H180201   2.448   1.926  15.312 -1.8883  0.4337 -1.8579
19570TIP3    H280202   2.518   1.797  15.349  0.2498  1.9981 -0.1808
19571TIP3   OH280203   4.293   0.062  11.128  0.4406 -0.6251 -0.4866
19571TIP3    H180204   4.294   0.069  11.033  1.1048  0.1578 -0.4367
19571TIP3    H280205   4.364   0.001  11.149  1.3675  0.4184 -0.4398
19572TIP3   OH280206   6.522   1.508  11.807 -0.2006 -0.7526 -0.1653
19572TIP3    H180207   6.451   1.523  11.745 -0.2285  0.4110  0.1408
19572TIP3    H280208   6.566   1.592  11.816  1.1332 -1.4050 -0.2221
19573TIP3   OH280209   3.673   2.912   0.932  0.1231 -0.1749 -0.0302
19573TIP3    H180210   3.673   2.843   0.865 -0.9490 -0.5799  0.3630
19573TIP3    H280211   3.656   2.865   1.014  0.8291  0.3890  0.4522
19574TIP3   OH280212   5.613   1.577   4.581 -0.0410 -0.0475  0.6637
19574TIP3    H180213   5.535   1.523   4.595  0.2288 -0.8074 -0.5847
19574TIP3    H280214   5.609   1.600   4.488  1.6722 -0.8572  0.3496
19575TIP3   OH280215   3.416   6.048  12.426 -0.2403  0.5021  0.0006
19575TIP3    H180216   3.428   6.082  12.515 -1.1020  0.4018  0.1685
19575TIP3    H280217   3.354   5.976  12.437  3.2754 -2.8576  0.0442
19576TIP3   OH280218   0.363   0.928  16.479 -0.0806  0.0345  0.1374
19576TIP3    H180219   0.333   0.888  16.397 -0.7564 -0.7944  0.7775
19576TIP3    H280220   0.304   1.002  16.492 -1.0475 -0.8196  0.7192
19577TIP3   OH280221   5.935   3.648  15.957  0.1494  0.4971  0.5534
19577TIP3    H180222   6.027   3.619  15.956  0.2909  0.9489 -0.1135
19577TIP3    H280223   5.887   3.576  15.918  0.6141  1.4672 -1.9669
19578TIP3   OH280224   2.955   5.475   4.852 -0.5267 -0.4481  0.6974
19578TIP3    H180225   2.882   5.464   4.791  0.1360 -0.4917 -0.1000
19578TIP3    H280226   2.924   5.436   4.934 -2.3081  1.6219  1.1125
19579TIP3   OH280227   0.695   5.997   0.459  0.5783 -0.1411  0.0512
19579TIP3    H180228   0.733   5.912   0.434  0.6964 -0.0668 -0.0215
19579TIP3    H280229   0.695   6.048   0.378  1.0484  0.1356  0.2226
19580TIP3   OH280230   1.099   5.229   1.401 -0.2210  0.4542 -0.4512
19580TIP3    H180231   1.013   5.231   1.443  0.9443  0.6627  2.1232
19580TIP3    H280232   1.140   5.149   1.435  1.8530  2.1072  1.2612
19581TIP3   OH280233   2.701   0.666  12.607 -0.2278 -0.1132  0.0035
19581TIP3    H180234   2.637   0.608  12.648 -0.6714 -0.2654 -0.8796
19581TIP3    H280235   2.785   0.640  12.643 -0.8237  1.4536  2.7993
19582TIP3   OH280236   4.803   5.901  16.186  0.3602  0.2321 -0.3485
19582TIP3    H180237   4.872   5.862  16.133  0.9820  1.2975 -0.3672
19582TIP3    H280238   4.776   5.979  16.137  1.6630  1.8169  1.2959
19583TIP3   OH280239   5.798   6.358  15.697  0.1795  0.9434 -0.4799
19583TIP3    H180240   5.772   6.334  15.609  0.9946 -0.7507 -0.2997
19583TIP3    H280241   5.894   6.354  15.696  0.2422 -2.9109  1.3513
19584TIP3   OH280242   2.194   3.254  13.908 -0.2807 -0.0971 -0.0331
19584TIP3    H180243   2.113   3.203  13.904 -0.0047 -0.4564 -1.5634
19584TIP3    H280244   2.244   3.212  13.978 -0.3629 -1.5182 -0.7891
19585TIP3   OH280245   3.449   4.008  11.070  0.6367 -0.1706 -0.0836
19585TIP3    H180246   3.536   4.002  11.030  1.0661 -0.9019  0.9080
19585TIP3    H280247   3.467   4.023  11.163 -0.3133  4.4622 -0.4397
19586TIP3   OH280248   5.708   3.340  12.525  0.0763 -0.1506 -0.3472
19586TIP3    H180249   5.796   3.331  12.561 -0.2643 -1.7506  0.1949
19586TIP3    H280250   5.719   3.395  12.448  0.9827  2.6489  1.6143
19587TIP3   OH280251   4.045   6.356  16.535 -0.3470 -0.0789 -0.2634
19587TIP3    H180252   4.051   6.451  16.533  1.4968 -0.1557 -0.1226
19587TIP3    H280253   4.086   6.331  16.618 -0.2141 -1.0251 -0.6009
19588TIP3   OH280254   2.822   2.287   3.852 -0.5578  0.3374 -0.7440
19588TIP3    H180255   2.819   2.321   3.763 -2.4834  0.7642 -0.5605
19588TIP3    H280256   2.838   2.193   3.841 -0.3340  0.4593 -1.5230
19589TIP3   OH280257   0.155   2.118  16.140  0.4289 -0.3914  0.0006
19589TIP3    H180258   0.146   2.207  16.104  0.2397 -0.8739 -1.2035
19589TIP3    H280259   0.134   2.128  16.233  0.3882  0.8211 -0.1138
19590TIP3   OH280260   3.184   3.888   0.432 -1.0301  0.2556  0.2053
19590TIP3    H180261   3.192   3.969   0.483 -1.6760  1.2049 -1.1396
19590TIP3    H280262   3.221   3.910   0.346 -1.0990 -0.9162 -0.1427
19591TIP3   OH280263   6.510   2.983  12.883 -0.3859  0.1976  0.0957
19591TIP3    H180264   6.584   2.924  12.894  0.8479  1.4182 -1.1265
19591TIP3    H280265   6.464   2.949  12.807  0.2153  0.6528 -0.4907
19592TIP3   OH280266   1.984   3.503   3.367  0.8724 -0.0271  0.1903
19592TIP3    H180267   1.946   3.529   3.283 -0.0227  0.2402  0.6635
19592TIP3    H280268   1.987   3.407   3.364  0.5351 -0.0319 -0.0188
19593TIP3   OH280269   2.063   6.319  16.619 -0.2652 -0.1436  0.1828
19593TIP3    H180270   2.106   6.279  16.694 -2.3264  0.2326  1.6493
19593TIP3    H280271   1.992   6.259  16.597 -0.7492  0.6137 -0.3739
19594TIP3   OH280272   6.334   1.593  11.428 -0.2121 -0.5434 -0.4850
19594TIP3    H180273   6.423   1.627  11.430 -1.0509  1.9355 -1.6130
19594TIP3    H280274   6.303   1.602  11.519 -0.1724  1.1675 -0.6088
19595TIP3   OH280275   5.861   1.643  11.092 -0.6701  0.6555  0.2607
19595TIP3    H180276   5.826   1.708  11.030 -0.8307  0.7235  0.4195
19595TIP3    H280277   5.864   1.562  11.042 -2.0874  0.3964  0.5431
19596TIP3   OH280278   3.966   4.077   1.700  0.1868 -0.0065  0.1724
19596TIP3    H180279   4.012   4.151   1.738 -0.0580  1.0941 -1.5386
19596TIP3    H280280   3.899   4.055   1.765  0.9419  0.5711  1.1798
19597TIP3   OH280281   3.078   5.344   2.916  0.5815  0.3903 -0.1435
19597TIP3    H180282   3.050   5.260   2.951  0.6861 -0.0282 -1.0228
19597TIP3    H280283   3.004   5.403   2.931  0.9044  0.4416  1.4330
19598TIP3   OH280284   3.545   1.092   1.598  0.5928 -0.1234 -0.1832
19598TIP3    H180285   3.536   1.104   1.693 -0.2836  0.6063 -0.3498
19598TIP3    H280286   3.531   0.998   1.585 -0.1082 -0.1060  0.3383
19599TIP3   OH280287   0.021   1.469   2.523 -0.3385 -0.3991  0.2364
19599TIP3    H180288   0.070   1.395   2.487  0.1345 -0.2383  0.5452
19599TIP3    H280289  -0.071   1.449   2.502  0.0430  0.9822 -3.4958
19600TIP3   OH280290   3.377   0.953  14.099  0.4120 -0.2299  0.2923
19600TIP3    H180291   3.430   0.968  14.021  1.4342 -0.3888  0.9368
19600TIP3    H280292   3.424   0.997  14.169 -1.2538  1.1636  0.5884
19601TIP3   OH280293   5.000   0.265   1.959  0.7824 -0.0156  0.2169
19601TIP3    H180294   5.034   0.340   2.008  3.1220 -1.0940  0.3379
19601TIP3    H280295   4.991   0.196   2.024  3.2991 -1.2634 -0.6458
19602TIP3   OH280296   5.462   4.467   0.402 -0.1853  0.4960  0.2037
19602TIP3    H180297   5.526   4.536   0.418  0.7660 -0.6100  1.3732
19602TIP3    H280298   5.514   4.391   0.376 -1.2959  0.5181 -2.4607
19603TIP3   OH280299   5.827   3.360  11.823 -0.1533  0.1403 -0.0102
19603TIP3    H180300   5.833   3.455  11.808  1.6182  0.0405 -0.1088
19603TIP3    H280301   5.911   3.337  11.863 -1.1651 -1.1530  1.4856
19604TIP3   OH280302   4.592   0.792   3.543  0.2093 -0.4185  0.2142
19604TIP3    H180303   4.632   0.853   3.605 -1.5362  0.0464  0.9379
19604TIP3    H280304   4.565   0.846   3.469 -0.9438 -0.3454  0.6645
19605TIP3   OH280305   2.495   1.811  13.920 -0.0433  0.0815 -0.2903
19605TIP3    H180306   2.415   1.774  13.884 -0.2685 -0.4519  0.7047
19605TIP3    H280307   2.469   1.897  13.954 -0.6315 -0.7553  1.5288
19606TIP3   OH280308   0.386   5.988   0.974  0.2349  0.0024 -0.5780
19606TIP3    H180309   0.429   5.912   0.934 -2.2172 -0.7609 -1.9154
19606TIP3    H280310   0.407   6.061   0.915  0.0402 -0.2696 -0.9850
19607TIP3   OH280311   5.479   2.182   0.688 -0.0176  0.2551  0.4571
19607TIP3    H180312   5.505   2.243   0.620 -0.1711 -1.4266 -1.2081
19607TIP3    H280313   5.555   2.175   0.746  1.1726 -0.3531 -1.1324
19608TIP3   OH280314   6.605   6.390  17.025  0.6135 -0.1881 -0.3666
19608TIP3    H180315   6.689   6.379  16.981  0.1649  1.5430 -1.7551
19608TIP3    H280316   6.542   6.404  16.955 -0.5332  0.3931  0.7336
19609TIP3   OH280317   2.540   1.166  13.823  0.2106  0.3272  0.9597
19609TIP3    H180318   2.446   1.147  13.819  0.4416 -1.0103  1.5733
19609TIP3    H280319   2.555   1.224  13.748 -0.9960  0.1200  0.5271
19610TIP3   OH280320   6.146   0.890   2.740 -0.5035  0.6249  0.3198
19610TIP3    H180321   6.076   0.841   2.697  0.5314  0.3779 -1.1719
19610TIP3    H280322   6.101   0.960   2.787 -1.7277  0.9487 -1.2296
19611TIP3   OH280323   2.831   2.378   1.962 -0.1341 -0.6326 -0.3642
19611TIP3    H180324   2.811   2.455   2.015 -3.6917 -1.7282  0.2162
19611TIP3    H280325   2.911   2.343   2.000  1.6638  2.7334 -0.7307
19612TIP3   OH280326   1.104   3.089   3.466 -0.2237 -0.3097  0.2272
19612TIP3    H180327   1.130   3.008   3.509 -1.0265 -0.8062 -0.1941
19612TIP3    H280328   1.039   3.062   3.401  0.4791  0.5001 -0.8559
19613TIP3   OH280329   0.548   1.888   0.889  0.3028 -0.5272 -0.0963
19613TIP3    H180330   0.607   1.896   0.963 -2.3002  2.1102  1.9237
19613TIP3    H280331   0.467   1.851   0.925 -1.1662  1.1457 -1.4288
19614TIP3   OH280332   1.870   1.268   0.461  0.4106  0.2725 -0.1244
19614TIP3    H180333   1.794   1.276   0.518  1.2747  1.0011  0.9589
19614TIP3    H280334   1.851   1.328   0.388 -0.9141 -1.0235 -0.9023
19615TIP3   OH280335   1.834   5.650   4.510  0.4718 -0.6305  0.7981
19615TIP3    H180336   1.805   5.737   4.485  2.1575  0.4565  2.3707
19615TIP3    H280337   1.907   5.631   4.452  1.3119 -0.1513  1.6673
19616TIP3   OH280338   5.185   1.057  12.809  0.1987  0.3105 -0.0098
19616TIP3    H180339   5.109   1.059  12.751  0.4808  1.9752 -0.3823
19616TIP3    H280340   5.243   1.124  12.774  1.4968 -0.3978  0.7364
19617TIP3   OH280341   5.307   2.437   2.596  0.0992 -0.0564 -0.2470
19617TIP3    H180342   5.290   2.464   2.686  1.2410 -0.3164  0.0623
19617TIP3    H280343   5.230   2.468   2.547 -0.4305  0.2865  0.7643
19618TIP3   OH280344   6.165   3.077  17.003 -0.1830  0.4721  0.1487
19618TIP3    H180345   6.145   3.073  17.097  0.5915 -1.1305  0.2716
19618TIP3    H280346   6.212   3.160  16.992  1.5736 -0.2526  1.5962
19619TIP3   OH280347   1.084   5.584   0.781  0.7711 -0.2449  0.4703
19619TIP3    H180348   1.018   5.526   0.743  0.2021  0.6449  0.0560
19619TIP3    H280349   1.125   5.532   0.850  0.2374 -1.1099  0.1572
19620TIP3   OH280350   4.250   2.044   0.736  0.2336 -0.7500  0.2277
19620TIP3    H180351   4.226   2.010   0.823 -0.9581 -0.0089  0.2091
19620TIP3    H280352   4.167   2.054   0.690  0.6227  1.1398 -0.1424
19621TIP3   OH280353   2.323   1.448   6.519 -0.1873 -0.2286 -0.0684
19621TIP3    H180354   2.412   1.481   6.533 -0.2105  0.1004 -0.6763
19621TIP3    H280355   2.266   1.515   6.557 -0.2463  0.6167 -1.5596
19622TIP3   OH280356   3.402   3.138  14.491 -0.6577  0.0750 -0.3645
19622TIP3    H180357   3.492   3.165  14.511 -0.6218  1.5387 -2.2165
19622TIP3    H280358   3.353   3.159  14.571  0.1304  2.0931 -0.3444
19623TIP3   OH280359   1.913   2.984  12.024  0.2064 -0.3930 -0.3228
19623TIP3    H180360   1.818   2.997  12.031  0.2117 -0.3201 -0.3788
19623TIP3    H280361   1.932   2.910  12.082  0.2196  0.0559  0.2615
19624TIP3   OH280362   3.495   5.771  16.544 -0.3660  0.0582  0.3951
19624TIP3    H180363   3.519   5.715  16.619 -0.6530  0.8298  1.0785
19624TIP3    H280364   3.400   5.776  16.547 -0.4327 -0.4818 -0.4613
19625TIP3   OH280365   1.419   6.778  16.093 -0.4930 -0.0671  0.0651
19625TIP3    H180366   1.408   6.775  15.998 -1.2984 -1.1687  0.1724
19625TIP3    H280367   1.332   6.799  16.127 -0.2446  0.1557  0.5708
19626TIP3   OH280368   0.881   6.771   4.361  0.1354  0.4722  0.6911
19626TIP3    H180369   0.795   6.786   4.322 -0.5323 -0.1962  1.8352
19626TIP3    H280370   0.901   6.852   4.408 -0.2018  0.3700  1.0134
19627TIP3   OH280371   1.462   4.432  14.072  0.5715 -0.3446 -0.2236
19627TIP3    H180372   1.483   4.516  14.030 -0.0878 -0.4685 -0.8126
19627TIP3    H280373   1.383   4.451  14.123  0.9114 -0.3981  0.3264
19628TIP3   OH280374   4.804   4.525  16.159  0.0298  0.2759 -0.5751
19628TIP3    H180375   4.834   4.606  16.116  0.6640 -0.2729 -1.1767
19628TIP3    H280376   4.835   4.533  16.249  1.8933 -0.2035 -1.1384
19629TIP3   OH280377   0.459   6.466  16.353 -0.7118  0.0314 -0.1041
19629TIP3    H180378   0.528   6.532  16.362 -1.9243  1.7409 -2.2700
19629TIP3    H280379   0.486   6.411  16.280 -0.5725 -0.7814  0.5415
19630TIP3   OH280380   6.216   6.068   3.513 -0.4712 -0.1463 -0.0520
19630TIP3    H180381   6.199   5.974   3.528  0.1834 -0.1960  0.3846
19630TIP3    H280382   6.288   6.089   3.572 -1.4530  0.9414  0.7983
19631TIP3   OH280383   5.672   0.582   0.587 -0.0112  0.2263  0.4825
19631TIP3    H180384   5.645   0.662   0.543 -2.6118 -1.2906 -0.8935
19631TIP3    H280385   5.646   0.594   0.678  0.8088  1.3984  0.5859
19632TIP3   OH280386   2.619   6.129  12.667 -0.0186  0.1304 -0.3935
19632TIP3    H180387   2.697   6.140  12.613 -0.0220  1.8903 -0.0755
19632TIP3    H280388   2.552   6.181  12.623 -0.7722 -0.6102 -0.1522
19633TIP3   OH280389   6.050   2.820   4.219  0.2659  0.3993 -0.0479
19633TIP3    H180390   6.024   2.885   4.153 -1.9857 -0.5118 -0.1711
19633TIP3    H280391   6.025   2.860   4.303 -0.0138  0.1936 -0.0317
19634TIP3   OH280392   3.071   3.323   5.012  0.4733  0.4173 -0.1051
19634TIP3    H180393   3.094   3.291   5.099  1.6114 -0.1348 -0.5844
19634TIP3    H280394   2.982   3.292   4.997  0.1631  0.7763  0.9811
19635TIP3   OH280395   2.010   3.010  13.078 -0.1528 -0.6072 -0.3102
19635TIP3    H180396   1.998   2.963  12.996 -1.0998 -0.2541 -0.3888
19635TIP3    H280397   1.948   2.971  13.138 -2.0165  1.4084 -0.7812
19636TIP3   OH280398   1.938   2.837  14.614 -0.4009 -0.0716 -0.5390
19636TIP3    H180399   1.919   2.924  14.579 -1.5586  0.0089  0.2301
19636TIP3    H280400   2.033   2.834  14.621 -0.2586  0.5519 -2.0099
19637TIP3   OH280401   5.257   2.876   3.825 -0.2738 -0.4029  0.2146
19637TIP3    H180402   5.346   2.844   3.838 -0.6979 -0.8113  2.4935
19637TIP3    H280403   5.208   2.799   3.797 -0.2975 -0.6598  0.9334
19638TIP3   OH280404   0.762   2.064  14.592  0.2403  0.3833  0.6954
19638TIP3    H180405   0.840   2.036  14.544  0.0839  1.5189 -0.2541
19638TIP3    H280406   0.784   2.150  14.628 -0.6903  0.8847  0.1115
19639TIP3   OH280407   6.751   1.831   3.065 -0.6847 -0.0939 -0.6522
19639TIP3    H180408   6.828   1.778   3.044 -1.0623 -1.1519  0.4928
19639TIP3    H280409   6.785   1.902   3.119 -0.5022 -0.6125 -0.0682
19640TIP3   OH280410   1.436   5.154   0.838  0.5714 -0.0223 -0.1702
19640TIP3    H180411   1.527   5.135   0.862  0.0355 -1.5763  0.7960
19640TIP3    H280412   1.389   5.072   0.854 -0.8886  0.5509 -1.2948
19641TIP3   OH280413   5.484   4.918   2.655 -0.0697  0.3512  0.4032
19641TIP3    H180414   5.542   4.937   2.729  0.6653 -1.2745  0.2851
19641TIP3    H280415   5.396   4.932   2.689  0.3101  1.1080  1.1188
19642TIP3   OH280416   4.739   0.617   1.133  0.3846  0.4536 -0.1008
19642TIP3    H180417   4.679   0.689   1.121  1.8103  1.4971 -1.3464
19642TIP3    H280418   4.821   0.646   1.092  1.1431 -1.6812 -0.2535
19643TIP3   OH280419   4.983   6.056   4.459 -0.4634  0.0842  0.0953
19643TIP3    H180420   5.056   6.046   4.521  0.7656  0.1644 -1.2921
19643TIP3    H280421   5.016   6.117   4.393 -2.4618  1.5722  0.3939
19644TIP3   OH280422   1.819   1.916  13.561 -0.4774  0.4157  0.3431
19644TIP3    H180423   1.905   1.897  13.600 -0.7714 -1.5177  0.1413
19644TIP3    H280424   1.839   1.969  13.484  0.5674 -0.0682  0.2592
19645TIP3   OH280425   5.515   5.180   4.681 -0.1398  0.6000 -0.3711
19645TIP3    H180426   5.509   5.137   4.595 -0.2004 -1.6467  0.7044
19645TIP3    H280427   5.459   5.128   4.738 -0.3631  2.2580  0.9960
19646TIP3   OH280428   5.121   0.350  12.794  0.5643 -0.5432 -0.3023
19646TIP3    H180429   5.135   0.427  12.739  0.9918 -0.5876 -0.2571
19646TIP3    H280430   5.122   0.277  12.733 -2.9632 -0.3204 -0.8332
19647TIP3   OH280431   4.008   2.306   4.289  0.3576  0.5668  0.0687
19647TIP3    H180432   4.059   2.378   4.325 -1.1760  2.1784 -0.8317
19647TIP3    H280433   4.000   2.326   4.196 -0.6253 -0.4326 -0.0831
19648TIP3   OH280434   0.072   1.025  12.735  0.2184  0.0192 -0.0936
19648TIP3    H180435   0.111   1.015  12.648 -0.4719 -0.4849 -0.3621
19648TIP3    H280436   0.068   1.120  12.749 -1.1414  0.1853 -1.3237
19649TIP3   OH280437   1.659   1.953  16.074 -0.3092  0.3402 -0.1740
19649TIP3    H180438   1.580   1.934  16.126 -0.3728  2.3627  0.5732
19649TIP3    H280439   1.691   2.036  16.109  2.3309 -0.5330 -0.3090
19650TIP3   OH280440   0.597   6.692  11.732 -0.3309  0.3022 -0.4942
19650TIP3    H180441   0.671   6.633  11.748 -1.8153 -1.8733 -1.1247
19650TIP3    H280442   0.635   6.779  11.736  1.7486 -0.5708  1.9194
19651TIP3   OH280443   4.141   5.614   4.352 -0.4423  0.7388  0.2482
19651TIP3    H180444   4.097   5.603   4.268  1.5325  0.9930 -0.8680
19651TIP3    H280445   4.219   5.558   4.346  1.3101  2.9823  0.7123
19652TIP3   OH280446   3.631   3.316  13.707  0.4775 -0.3513 -0.7623
19652TIP3    H180447   3.595   3.246  13.652 -1.0999 -0.1484 -0.0361
19652TIP3    H280448   3.587   3.395  13.677  0.2057 -0.1095  0.2541
19653TIP3   OH280449   2.749   1.697   3.949  0.0876 -0.7274  0.0715
19653TIP3    H180450   2.774   1.789   3.957  1.7677 -0.9391 -1.7259
19653TIP3    H280451   2.771   1.658   4.033  3.3320 -0.2498 -0.4262
19654TIP3   OH280452   6.341   1.403   4.434  0.5321  0.2661  0.1781
19654TIP3    H180453   6.285   1.480   4.441  0.2802  0.1306 -0.2801
19654TIP3    H280454   6.280   1.330   4.427  0.7595  0.1691 -0.8985
19655TIP3   OH280455   4.554   0.278   2.771  0.0524 -0.5867  0.2193
19655TIP3    H180456   4.563   0.215   2.842  2.2162 -0.8444 -0.1910
19655TIP3    H280457   4.488   0.340   2.801  0.6722 -0.8803  2.3391
19656TIP3   OH280458   3.678   6.649   5.134 -0.6510 -0.0158 -0.2082
19656TIP3    H180459   3.594   6.680   5.101 -1.6567 -1.8820  0.4075
19656TIP3    H280460   3.715   6.724   5.180 -2.5346  0.5357  0.5212
19657TIP3   OH280461   6.601   3.829   3.769 -0.2662 -0.7013 -0.2950
19657TIP3    H180462   6.673   3.883   3.800 -0.9182 -0.2277  0.4533
19657TIP3    H280463   6.640   3.744   3.752  0.2710 -0.8069  1.2445
19658TIP3   OH280464   1.847   2.389   4.864  0.1538  0.8776  0.1257
19658TIP3    H180465   1.808   2.306   4.835  1.8697 -0.7312  2.1151
19658TIP3    H280466   1.905   2.415   4.792  0.3276 -0.1755 -0.1282
19659TIP3   OH280467   3.880   0.528   4.305  0.0590  0.1734 -0.1972
19659TIP3    H180468   3.910   0.598   4.247  0.5535  1.7865  1.8659
19659TIP3    H280469   3.800   0.563   4.344 -0.8552 -1.3147 -0.6541
19660TIP3   OH280470   0.517   3.871   4.029  0.3931  0.8616 -0.6020
19660TIP3    H180471   0.566   3.849   3.950 -0.6603 -3.2682 -0.2913
19660TIP3    H280472   0.574   3.843   4.101 -0.3090  0.8449 -0.0486
19661TIP3   OH280473   5.758   4.250  11.249  0.5012  0.3417 -0.1619
19661TIP3    H180474   5.772   4.343  11.268  1.6977  0.1770 -0.1447
19661TIP3    H280475   5.722   4.214  11.330 -2.7134  1.2803 -1.0044
19662TIP3   OH280476   3.428   1.343   1.455  0.5776  0.6067  0.1752
19662TIP3    H180477   3.349   1.306   1.415  1.2810 -2.2324  1.1290
19662TIP3    H280478   3.398   1.384   1.535 -0.0635  0.4690  0.0095
19663TIP3   OH280479   0.133   4.965   4.250 -0.7834 -0.6414 -1.0497
19663TIP3    H180480   0.115   4.876   4.220 -0.4166 -1.1001  0.0291
19663TIP3    H280481   0.156   5.013   4.170 -1.9333 -1.2567 -1.7742
19664TIP3   OH280482   1.548   5.327   3.538 -0.8060 -0.3653 -0.1497
19664TIP3    H180483   1.452   5.325   3.538 -0.9128  1.1712 -2.0773
19664TIP3    H280484   1.574   5.240   3.507 -1.5779 -0.7181  0.1692
19665TIP3   OH280485   5.409   6.770  14.677 -0.0802  0.2617  0.0960
19665TIP3    H180486   5.425   6.787  14.770 -5.4863 -0.1635  1.4385
19665TIP3    H280487   5.419   6.675  14.669 -1.4631  0.0314  0.8085
19666TIP3   OH280488   4.326   4.812  12.617  0.0971  0.0183 -0.7159
19666TIP3    H180489   4.277   4.732  12.635 -0.4754  0.9109  2.1990
19666TIP3    H280490   4.258   4.877  12.597  0.3408  0.4305 -0.2183
19667TIP3   OH280491   4.882   1.479   0.923 -0.5215 -0.0854  0.0481
19667TIP3    H180492   4.894   1.415   0.993  0.3116  0.1429  0.1323
19667TIP3    H280493   4.859   1.560   0.967  1.9460  0.5794  0.2793
19668TIP3   OH280494   4.420   6.639  13.878 -0.3889 -0.2138  0.1871
19668TIP3    H180495   4.356   6.613  13.812 -1.6717  1.5536  0.6450
19668TIP3    H280496   4.424   6.734  13.872  0.2973 -0.0889  1.8849
19669TIP3   OH280497   2.479   5.905  15.464 -0.4833 -0.1161 -0.1598
19669TIP3    H180498   2.563   5.888  15.420  1.2734  0.6642  2.5987
19669TIP3    H280499   2.445   5.818  15.485 -0.9447 -0.4708 -2.1884
19670TIP3   OH280500   0.157   5.676   2.238  0.0295  0.5737  0.0263
19670TIP3    H180501   0.225   5.743   2.223  0.3990  0.2059  0.0308
19670TIP3    H280502   0.205   5.602   2.276  0.0832 -0.6215 -2.1952
19671TIP3   OH280503   6.079   0.424   0.121  0.3245 -0.5195  0.1876
19671TIP3    H180504   5.986   0.432   0.144  0.5125 -0.0490  0.8370
19671TIP3    H280505   6.085   0.342   0.072 -0.3007 -0.9749  0.8519
19672TIP3   OH280506   4.313   2.287  17.246  0.5342  0.1109  0.0166
19672TIP3    H180507   4.234   2.240  17.273  0.9668 -0.6433  0.0052
19672TIP3    H280508   4.313   2.367  17.299 -1.2577  1.0985 -1.3801
19673TIP3   OH280509   3.338   5.385   5.978  0.4027  0.4386  0.6604
19673TIP3    H180510   3.398   5.314   6.002 -0.6308 -0.5405  0.4333
19673TIP3    H280511   3.318   5.428   6.061 -0.3439 -0.6669  1.0787
19674TIP3   OH280512   1.934   2.407  10.478  0.2562  0.1287 -0.3192
19674TIP3    H180513   1.865   2.359  10.432  0.1347  1.2012 -1.3072
19674TIP3    H280514   1.915   2.499  10.460  0.1439  0.6147  2.0000
19675TIP3   OH280515   3.760   6.010   3.683  0.1263  0.3302  0.6055
19675TIP3    H180516   3.752   6.105   3.675 -1.1722  0.1489 -0.9703
19675TIP3    H280517   3.678   5.977   3.646  1.6277 -1.4468 -1.4015
19676TIP3   OH280518   2.895   6.324   4.158  0.3093  0.4200  0.4581
19676TIP3    H180519   2.925   6.311   4.068 -0.0801  0.8297  0.2617
19676TIP3    H280520   2.821   6.385   4.149 -1.2628 -1.3406  0.7996
19677TIP3   OH280521   2.343   2.446   0.519  0.2756  0.0674  0.1991
19677TIP3    H180522   2.416   2.504   0.495  0.7248 -1.0703 -1.2907
19677TIP3    H280523   2.273   2.470   0.459  0.9635 -1.8911 -1.4970
19678TIP3   OH280524   4.225   4.903   2.712  0.2619  0.1205 -0.0721
19678TIP3    H180525   4.148   4.849   2.728 -0.5373  0.7336 -1.6753
19678TIP3    H280526   4.275   4.897   2.794 -2.8063  1.9783  2.1642
19679TIP3   OH280527   2.927   0.322  14.813  0.4241  0.6613  0.0628
19679TIP3    H180528   2.834   0.312  14.793  0.8447 -0.4699 -1.4614
19679TIP3    H280529   2.953   0.400  14.764  0.3033  0.9829  0.4953
19680TIP3   OH280530   3.321   3.628  12.287 -0.1502  0.0570 -0.6301
19680TIP3    H180531   3.407   3.589  12.270 -1.0842 -1.6531 -1.7256
19680TIP3    H280532   3.337   3.723  12.284  1.2416 -0.1414 -3.5173
19681TIP3   OH280533   2.054   2.833  16.221  0.6918  0.1561 -0.0307
19681TIP3    H180534   2.142   2.804  16.196  1.2470  0.0015  1.8710
19681TIP3    H280535   2.044   2.803  16.312 -0.9140  1.0978  0.1508
19682TIP3   OH280536   2.741   1.620   0.915 -0.0043  0.0307  0.0020
19682TIP3    H180537   2.673   1.656   0.857  2.0283  0.8472 -2.0049
19682TIP3    H280538   2.727   1.526   0.912 -0.9050  0.1678 -0.5432
19683TIP3   OH280539   6.374   0.649  14.644  0.4114  0.0362 -0.9400
19683TIP3    H180540   6.439   0.606  14.701 -0.3230 -0.4838 -0.4702
19683TIP3    H280541   6.352   0.730  14.689  0.7418  0.2261 -1.1131
19684TIP3   OH280542   6.225   5.644   1.113  0.0287 -0.2333  0.5082
19684TIP3    H180543   6.151   5.699   1.086  1.1595  1.0943 -0.0540
19684TIP3    H280544   6.260   5.688   1.190  1.3880  0.2830 -0.3691
19685TIP3   OH280545   0.304   5.568  13.232 -0.2437  0.0474 -0.3557
19685TIP3    H180546   0.222   5.549  13.187 -1.6278  2.8374  0.7224
19685TIP3    H280547   0.341   5.643  13.184 -0.2394  1.1470  1.2706
19686TIP3   OH280548   5.665   2.514  12.861  0.1240  0.4822 -0.7046
19686TIP3    H180549   5.731   2.572  12.824 -0.4349  1.7981  0.2681
19686TIP3    H280550   5.591   2.520  12.802  0.6814 -0.6739 -1.5714
19687TIP3   OH280551   5.329   1.682  11.720  0.1317 -0.1423  0.5617
19687TIP3    H180552   5.334   1.654  11.811  0.0305 -1.4824  0.1677
19687TIP3    H280553   5.261   1.750  11.720 -0.2450 -0.5067  1.3921
19688TIP3   OH280554   6.619   2.857  14.229 -0.0514 -0.1536 -0.4187
19688TIP3    H180555   6.653   2.939  14.265 -2.2823 -0.3274  2.4370
19688TIP3    H280556   6.697   2.805  14.210  1.3976  2.2203 -1.4442
19689TIP3   OH280557   4.060   1.221  11.045 -0.1604 -0.2079  0.4505
19689TIP3    H180558   4.048   1.127  11.061 -0.1725  0.0927  2.5757
19689TIP3    H280559   4.058   1.230  10.950  0.4803 -2.4423  0.1677
19690TIP3   OH280560   3.119   1.425  11.700  0.1095  0.3282  0.4477
19690TIP3    H180561   3.190   1.470  11.746 -0.7919  1.1869  1.0618
19690TIP3    H280562   3.090   1.488  11.634  1.3625 -0.8815 -1.3358
19691TIP3   OH280563   2.036   6.667   1.273  0.0373 -0.2373 -0.1132
19691TIP3    H180564   2.118   6.669   1.323 -0.4944  1.4871  0.8151
19691TIP3    H280565   2.060   6.700   1.187  0.5671 -1.0887 -0.2994
19692TIP3   OH280566   6.180   3.006  12.462  0.4427 -0.6509 -0.4790
19692TIP3    H180567   6.271   3.012  12.492 -0.3542  0.0332  2.0416
19692TIP3    H280568   6.144   3.094  12.477 -1.1827 -1.4514  0.5445
19693TIP3   OH280569   4.817   5.052  13.018 -0.5379  0.6967 -0.0343
19693TIP3    H180570   4.729   5.016  13.004  0.4250 -1.6118 -0.6158
19693TIP3    H280571   4.846   5.079  12.931  0.2704 -0.9515 -0.3051
19694TIP3   OH280572   5.985   2.545   3.453 -0.0870 -0.0437 -0.4148
19694TIP3    H180573   5.997   2.636   3.426  0.0615  0.6002  1.6641
19694TIP3    H280574   5.890   2.532   3.453 -0.3285  1.0896  2.0253
19695TIP3   OH280575   0.415   4.427   4.618  0.0988 -0.1338  0.2914
19695TIP3    H180576   0.322   4.406   4.626 -0.8899  1.9453 -3.2560
19695TIP3    H280577   0.423   4.514   4.656  1.0265 -0.8908  1.9503
19696TIP3   OH280578   5.098   3.749  16.947 -0.1426  0.2821  0.2068
19696TIP3    H180579   5.003   3.735  16.948 -0.0140 -1.3289 -2.0809
19696TIP3    H280580   5.130   3.702  17.024 -1.0451 -0.7843 -0.0445
19697TIP3   OH280581   2.577   0.620   1.858 -0.0533  0.4378  0.5500
19697TIP3    H180582   2.672   0.631   1.868 -0.1748  1.2384  0.9248
19697TIP3    H280583   2.553   0.556   1.924  0.6530 -2.1842 -1.5628
19698TIP3   OH280584   0.842   1.478  16.838 -0.0591 -0.0621  0.5741
19698TIP3    H180585   0.773   1.535  16.804 -1.0833 -0.8189  1.2955
19698TIP3    H280586   0.796   1.419  16.898  1.1088 -1.0618  0.5197
19699TIP3   OH280587   0.101   3.991   1.492  0.5301 -0.0330  0.2600
19699TIP3    H180588   0.113   3.969   1.584  1.4943  1.0365  0.4111
19699TIP3    H280589   0.006   4.006   1.482  0.4779  0.2831  1.1836
19700TIP3   OH280590   1.165   3.730   3.890  0.3024 -0.1389  0.5872
19700TIP3    H180591   1.095   3.670   3.917  0.4773 -0.0609  1.2333
19700TIP3    H280592   1.156   3.736   3.795 -1.1281  0.5724  0.7547
19701TIP3   OH280593   4.166   1.586  15.791 -0.2228 -0.0109  0.0278
19701TIP3    H180594   4.098   1.605  15.854  1.7546 -1.1254  2.6839
19701TIP3    H280595   4.243   1.632  15.824  0.7197  0.0754 -2.0908
19702TIP3   OH280596   3.746   2.754   5.651  0.1533  0.3157 -0.1083
19702TIP3    H180597   3.830   2.754   5.696 -0.8345 -0.8158  1.9007
19702TIP3    H280598   3.685   2.793   5.714 -0.8957  0.8998 -1.4216
19703TIP3   OH280599   2.914   2.638  11.378 -0.0145 -0.1009  0.1404
19703TIP3    H180600   2.905   2.577  11.304  2.5861 -0.1587 -0.2416
19703TIP3    H280601   2.922   2.581  11.455 -2.1660 -0.0562  0.4357
19704TIP3   OH280602   3.466   3.878  12.355 -0.2236  0.1336  0.3447
19704TIP3    H180603   3.490   3.964  12.388  0.3514 -0.1342  0.6306
19704TIP3    H280604   3.518   3.816  12.406 -0.9007 -0.4128  0.3989
19705TIP3   OH280605   4.555   2.213   6.160  0.4669 -0.6619 -0.0366
19705TIP3    H180606   4.628   2.152   6.148  0.1698 -0.8827 -0.7116
19705TIP3    H280607   4.476   2.159   6.153  0.1806 -0.1078 -1.3107
19706TIP3   OH280608   0.528   4.455  11.523  0.4959 -0.2670  0.1809
19706TIP3    H180609   0.545   4.517  11.453 -0.0381 -1.2894 -0.8829
19706TIP3    H280610   0.561   4.371  11.491 -0.3798 -0.8936  0.8559
19707TIP3   OH280611   5.715   6.395   3.086  0.4265  0.3895  0.2641
19707TIP3    H180612   5.731   6.398   2.992 -0.1657  0.8255  0.1709
19707TIP3    H280613   5.797   6.425   3.125  0.9628 -0.5953 -0.0729
19708TIP3   OH280614   4.077   2.171  15.579 -0.4448 -0.7510 -0.0326
19708TIP3    H180615   4.123   2.100  15.535  0.8686 -0.7682  1.2753
19708TIP3    H280616   4.124   2.182  15.662 -0.9526  1.2944  0.0279
19709TIP3   OH280617   6.022   6.201  12.533  0.6117  0.3402  0.5452
19709TIP3    H180618   6.041   6.188  12.626  1.6875  1.7306  0.5493
19709TIP3    H280619   5.927   6.207  12.529  0.6122  1.7453  1.7874
19710TIP3   OH280620   1.220   0.402   5.985 -0.6292 -0.4347  0.2309
19710TIP3    H180621   1.258   0.466   6.044  0.5158 -0.9061  0.0224
19710TIP3    H280622   1.280   0.399   5.910 -0.1247 -2.4094  0.6498
19711TIP3   OH280623   0.867   5.682   3.420 -0.2015  0.4341  0.0428
19711TIP3    H180624   0.880   5.639   3.505  0.8607 -0.0030 -0.3223
19711TIP3    H280625   0.866   5.775   3.441  1.7345  0.4183  0.3751
19712TIP3   OH280626   2.174   2.429   3.953 -0.2750  0.2906  0.0935
19712TIP3    H180627   2.244   2.452   4.014 -0.5856  1.1268  0.1566
19712TIP3    H280628   2.097   2.419   4.008 -0.0439 -1.5297  0.1344
19713TIP3   OH280629   0.780   3.770   3.206  0.2584  0.0451 -0.2111
19713TIP3    H180630   0.844   3.811   3.148 -2.9482  4.0771 -1.3665
19713TIP3    H280631   0.736   3.705   3.152  0.7423  0.1001 -0.6760
19714TIP3   OH280632   6.299   1.336   4.081 -0.0215 -0.0385 -0.1326
19714TIP3    H180633   6.259   1.311   3.998 -0.9373 -1.0760  0.5917
19714TIP3    H280634   6.228   1.377   4.131  0.4195  0.2148  0.3031
19715TIP3   OH280635   0.754   0.409   5.034 -0.1560  0.0681  0.5530
19715TIP3    H180636   0.777   0.320   5.060  1.2149  0.4120  0.5614
19715TIP3    H280637   0.720   0.450   5.114 -0.6319 -0.3763  0.5873
19716TIP3   OH280638   3.063   0.749  11.743 -0.5042  0.2947 -0.7035
19716TIP3    H180639   2.984   0.801  11.726 -0.6144  0.5616  0.5253
19716TIP3    H280640   3.112   0.753  11.661 -1.5290  0.5353 -1.3344
19717TIP3   OH280641   3.868   5.334  16.687  0.6825 -0.5207  0.5467
19717TIP3    H180642   3.861   5.336  16.782  2.0366  0.7469  0.6599
19717TIP3    H280643   3.961   5.348  16.670  0.3571 -0.0579 -0.9770
19718TIP3   OH280644   5.297   3.936  11.703  0.8512 -0.2280 -0.0650
19718TIP3    H180645   5.311   4.031  11.702  0.1253 -0.1193 -1.2146
19718TIP3    H280646   5.203   3.926  11.718  0.5196 -0.6923 -2.1947
19719TIP3   OH280647   0.870   0.781  13.072 -0.2039 -0.0473  0.4323
19719TIP3    H180648   0.910   0.702  13.108 -0.1833  0.1646  0.8903
19719TIP3    H280649   0.887   0.848  13.139  1.0577  0.6985 -0.5770
19720TIP3   OH280650   6.687   0.304  13.038 -0.4573 -0.1108 -0.0251
19720TIP3    H180651   6.766   0.357  13.034 -0.5725  0.1961  1.4000
19720TIP3    H280652   6.670   0.292  13.131 -3.0062  1.2349 -0.2170
19721TIP3   OH280653   2.186   5.043   3.584 -0.1612  0.2785  0.0816
19721TIP3    H180654   2.097   5.031   3.551 -0.1568  0.7462 -0.1171
19721TIP3    H280655   2.243   5.014   3.512 -0.1502 -0.4886  0.3943
19722TIP3   OH280656   5.392   3.179  15.427  0.0273  0.3387  0.0173
19722TIP3    H180657   5.482   3.151  15.407  0.3033 -0.3365  1.9770
19722TIP3    H280658   5.337   3.123  15.371  0.7395 -1.7183  1.2372
19723TIP3   OH280659   5.027   5.140   0.941 -0.2012  0.2794 -0.2547
19723TIP3    H180660   5.104   5.108   0.894 -0.2930  0.7530 -0.7254
19723TIP3    H280661   5.005   5.223   0.899 -0.1404  0.8351  0.7742
19724TIP3   OH280662   5.740   5.086   2.486  0.0181 -0.3117 -0.1843
19724TIP3    H180663   5.645   5.075   2.480  0.0952 -0.2286 -1.9076
19724TIP3    H280664   5.756   5.174   2.451  0.6200  0.2881  1.4721
19725TIP3   OH280665   2.316   2.539   3.730  0.0091  0.5996 -0.6079
19725TIP3    H180666   2.298   2.581   3.814  0.7158  1.2968 -0.8017
19725TIP3    H280667   2.345   2.451   3.754 -0.4548  0.5607 -0.1574
19726TIP3   OH280668   6.084   1.138  15.751  0.2116  0.6084  0.1090
19726TIP3    H180669   6.102   1.069  15.814  0.8772  0.9096  0.2591
19726TIP3    H280670   6.081   1.093  15.666 -0.7552  0.1933  0.3485
19727TIP3   OH280671   6.784   6.517  13.048 -0.2544  0.0834  0.3833
19727TIP3    H180672   6.700   6.515  13.002 -0.0124  0.8965 -0.1211
19727TIP3    H280673   6.815   6.427  13.044 -0.2160  0.1420 -1.1257
19728TIP3   OH280674   3.221   2.812  12.882  0.1454 -0.9014  0.3071
19728TIP3    H180675   3.223   2.729  12.929 -1.2935 -0.4494  1.2328
19728TIP3    H280676   3.187   2.875  12.946  0.1273  0.1743 -0.7250
19729TIP3   OH280677   4.412   3.750  15.815  0.3265 -0.1208  0.5671
19729TIP3    H180678   4.323   3.726  15.791  0.6698 -0.5748 -0.2833
19729TIP3    H280679   4.462   3.740  15.735  1.6849 -2.4910  1.6153
19730TIP3   OH280680   1.170   3.137  16.346  0.3216  0.2662  0.1538
19730TIP3    H180681   1.238   3.196  16.315  2.2133 -1.7403  0.2176
19730TIP3    H280682   1.216   3.074  16.402 -1.9698  0.1232  2.0528
19731TIP3   OH280683   4.465   2.615  16.514  0.6589 -0.0822  0.7558
19731TIP3    H180684   4.375   2.598  16.542  0.0807 -0.4872 -1.1611
19731TIP3    H280685   4.491   2.692  16.564 -0.9957  0.4363  0.9069
19732TIP3   OH280686   2.188   1.944  10.851 -0.2854 -0.2841  0.3603
19732TIP3    H180687   2.099   1.944  10.815 -0.1254 -0.9195 -0.0478
19732TIP3    H280688   2.239   1.993  10.786 -0.4300  0.5289  0.8482
19733TIP3   OH280689   4.455   5.277  12.484 -0.4638 -0.2314  0.8456
19733TIP3    H180690   4.499   5.223  12.550 -2.3361 -3.4476 -0.3327
19733TIP3    H280691   4.481   5.239  12.400 -1.5055  1.0145 -0.0793
19734TIP3   OH280692   0.311   4.576  15.912  0.4650  0.0112 -0.0115
19734TIP3    H180693   0.355   4.647  15.960 -1.3019  0.6369  0.7784
19734TIP3    H280694   0.218   4.594  15.924 -0.0250 -1.2837 -1.5830
19735TIP3   OH280695   5.208   4.414  14.708  0.1008  0.1191 -0.0487
19735TIP3    H180696   5.302   4.410  14.693 -0.1394 -0.2851 -1.6286
19735TIP3    H280697   5.187   4.330  14.750  0.3192 -0.1998 -0.5604
19736TIP3   OH280698   0.825   4.617  15.650 -0.3577  0.5166 -0.6644
19736TIP3    H180699   0.799   4.683  15.714  0.7008 -0.6936  1.0960
19736TIP3    H280700   0.876   4.553  15.700 -0.6247 -1.2086 -2.4648
19737TIP3   OH280701   5.226   2.938   1.500  0.1807  0.0803  0.0350
19737TIP3    H180702   5.242   2.995   1.425 -1.3498 -0.8133 -1.0451
19737TIP3    H280703   5.250   2.851   1.469  0.7527 -0.1317  1.0419
19738TIP3   OH280704   2.552   1.088   2.011  0.7289 -0.7462 -0.1528
19738TIP3    H180705   2.630   1.057   2.057  0.0245 -0.9153  0.9368
19738TIP3    H280706   2.549   1.182   2.030 -0.2494 -1.0283  1.2182
19739TIP3   OH280707   5.517   2.670  14.228 -0.2789  0.2169 -0.1111
19739TIP3    H180708   5.443   2.732  14.231 -0.9088 -0.5537  1.1439
19739TIP3    H280709   5.477   2.588  14.201  0.7621  0.5689 -3.0181
19740TIP3   OH280710   2.628   1.253  11.093  0.0051 -0.1570  0.1394
19740TIP3    H180711   2.556   1.244  11.030  1.3282  1.0980 -1.6555
19740TIP3    H280712   2.664   1.165  11.100  0.0080 -0.2853 -1.1418
19741TIP3   OH280713   4.091   2.636  16.893  0.0210  0.1625  0.4219
19741TIP3    H180714   4.029   2.687  16.840  0.7599 -0.2613 -0.8916
19741TIP3    H280715   4.065   2.545  16.879 -0.1106  0.0573  1.2580
19742TIP3   OH280716   2.672   3.640   1.277 -0.0880 -0.4313 -0.5817
19742TIP3    H180717   2.599   3.701   1.272  0.8853  1.0903  1.8226
19742TIP3    H280718   2.636   3.562   1.320 -0.5231 -0.0490 -0.2422
19743TIP3   OH280719   5.958   5.184   5.214 -0.1304  0.1522  0.4063
19743TIP3    H180720   6.019   5.116   5.244 -0.4838 -0.1408  0.4586
19743TIP3    H280721   6.004   5.226   5.141 -0.2513 -0.6899 -0.1720
19744TIP3   OH280722   0.034   5.547   5.595 -0.1493  0.2659  0.8986
19744TIP3    H180723   0.030   5.623   5.538  0.2852  0.2004  0.7769
19744TIP3    H280724   0.127   5.529   5.605 -0.1028  1.4069  3.1630
19745TIP3   OH280725   2.076   3.980  15.870 -0.0757 -0.6835 -0.5988
19745TIP3    H180726   2.080   4.032  15.950  2.6536 -1.2836 -0.2532
19745TIP3    H280727   2.048   3.894  15.899 -3.4664  0.1478 -1.0142
19746TIP3   OH280728   5.215   5.941   1.543 -0.3457  0.0737 -0.0509
19746TIP3    H180729   5.182   6.030   1.555  1.4643  0.6682  1.0786
19746TIP3    H280730   5.199   5.898   1.627  2.2323  0.6335  0.8413
19747TIP3   OH280731   6.773   1.840  14.935 -0.4673 -0.4546  0.0464
19747TIP3    H180732   6.738   1.911  14.989  1.3146  2.9934 -2.8168
19747TIP3    H280733   6.846   1.805  14.985 -0.3679  0.9331  0.9357
19748TIP3   OH280734   3.463   4.684  15.865  0.2645  0.0535 -0.2335
19748TIP3    H180735   3.547   4.640  15.877 -0.2387 -0.5067  1.5933
19748TIP3    H280736   3.403   4.615  15.835 -0.5706 -0.7239  2.8118
19749TIP3   OH280737   0.950   6.250  15.503 -0.1071 -0.6272 -0.2372
19749TIP3    H180738   0.947   6.207  15.589  0.4438  0.5704  0.4034
19749TIP3    H280739   1.036   6.227  15.468  0.5588  0.6465  0.5008
19750TIP3   OH280740   4.197   6.022   5.201  0.0466  0.5335 -0.5025
19750TIP3    H180741   4.102   6.020   5.215  0.1918  0.5240  0.5834
19750TIP3    H280742   4.218   6.115   5.199  0.2576  0.5760  1.3099
19751TIP3   OH280743   3.150   4.663  15.513  0.4284  0.0591  0.0567
19751TIP3    H180744   3.110   4.619  15.438  1.8884  1.4849 -1.6898
19751TIP3    H280745   3.077   4.706  15.557 -0.4390 -0.4670 -0.8175
19752TIP3   OH280746   5.510   5.663   4.241  1.1552 -0.4913 -0.4241
19752TIP3    H180747   5.577   5.719   4.282  0.5829  0.5165 -0.8239
19752TIP3    H280748   5.543   5.648   4.152  1.0033 -0.2505 -0.5221
19753TIP3   OH280749   6.348   6.425  14.544 -0.1282 -0.5379 -0.2355
19753TIP3    H180750   6.279   6.442  14.479 -0.4353  1.1719  0.4847
19753TIP3    H280751   6.408   6.499  14.535  2.2020 -2.4415 -1.4894
19754TIP3   OH280752   6.050   1.170   2.348  0.3021  0.1700 -0.6265
19754TIP3    H180753   6.090   1.249   2.312  0.9481  0.6089  0.9936
19754TIP3    H280754   6.032   1.191   2.439 -2.4731 -0.4518 -0.9364
19755TIP3   OH280755   5.342   3.523  17.079 -0.9436 -0.0835  0.1404
19755TIP3    H180756   5.275   3.508  17.145 -2.5957  1.4370 -1.1077
19755TIP3    H280757   5.382   3.606  17.104  0.2436 -0.7894  0.6586
19756TIP3   OH280758   4.019   0.518   1.317  0.2981 -0.5530 -0.2008
19756TIP3    H180759   3.932   0.480   1.310  0.6370 -1.3326 -0.3412
19756TIP3    H280760   4.055   0.479   1.397  0.5280 -0.2711 -0.1677
19757TIP3   OH280761   4.386   1.294   0.039 -0.0172  0.4746  0.1845
19757TIP3    H180762   4.455   1.235   0.070  0.6672  0.2023 -1.7171
19757TIP3    H280763   4.331   1.309   0.116  2.0271  0.5461  1.7268
19758TIP3   OH280764   4.005   0.499   0.564  0.5272  0.4661  0.0867
19758TIP3    H180765   4.065   0.556   0.516 -0.2530  2.4483  1.3236
19758TIP3    H280766   3.964   0.557   0.628 -0.4648 -1.4845  1.3034
19759TIP3   OH280767   2.963   4.734  16.969 -0.1808 -0.7929 -0.3130
19759TIP3    H180768   2.896   4.750  16.903 -0.7404 -1.9433 -0.0530
19759TIP3    H280769   3.040   4.707  16.920  0.0269  0.2772 -0.5990
19760TIP3   OH280770   6.616   3.600   5.987  0.2559 -0.5679 -0.2045
19760TIP3    H180771   6.690   3.660   5.996 -1.8190  2.4199 -1.2709
19760TIP3    H280772   6.632   3.554   5.905  0.8842  0.1885 -0.5252
19761TIP3   OH280773   1.849   1.144  16.752 -0.6786  0.1169 -0.2125
19761TIP3    H180774   1.943   1.163  16.742 -0.8988  0.1622 -2.6583
19761TIP3    H280775   1.845   1.087  16.829  1.4646 -0.5974 -0.5514
19762TIP3   OH280776   0.848   0.651  14.648 -0.0316 -0.4720  0.2529
19762TIP3    H180777   0.896   0.608  14.576  2.2830  0.9057  0.8855
19762TIP3    H280778   0.768   0.683  14.607  1.2894  0.4142 -1.8206
19763TIP3   OH280779   3.002   5.419  14.566 -0.2484  1.0504 -0.7892
19763TIP3    H180780   2.956   5.503  14.561  1.3631  1.9421 -1.3074
19763TIP3    H280781   3.089   5.437  14.531  0.6459 -0.4823  0.4821
19764TIP3   OH280782   2.782   4.626  16.742  0.1757  0.0929  0.2787
19764TIP3    H180783   2.705   4.680  16.724  0.4231  0.4856  0.3832
19764TIP3    H280784   2.753   4.536  16.724 -0.1961  0.2711 -0.0348
19765TIP3   OH280785   3.916   5.154   4.446  0.6730  1.1912 -0.0897
19765TIP3    H180786   3.985   5.198   4.397  1.7194 -0.6026 -0.3009
19765TIP3    H280787   3.913   5.199   4.530 -0.1571  3.3753 -1.2211
19766TIP3   OH280788   5.520   0.446  12.803  0.3427  0.1782 -0.2397
19766TIP3    H180789   5.552   0.496  12.878 -1.1879 -0.4452  0.8846
19766TIP3    H280790   5.505   0.512  12.735 -0.7706  1.1668  0.9013
19767TIP3   OH280791   4.253   1.035  11.504  0.3104 -0.2030 -0.0907
19767TIP3    H180792   4.344   1.059  11.524  0.0634  1.2585 -0.6142
19767TIP3    H280793   4.214   1.115  11.468 -1.5754 -0.3606  1.4033
19768TIP3   OH280794   5.970   3.398  12.629  0.5032  0.2902  0.2293
19768TIP3    H180795   6.049   3.363  12.587  1.3354 -0.7953  2.5410
19768TIP3    H280796   5.968   3.357  12.715 -2.2921  0.7654  0.4942
19769TIP3   OH280797   1.369   4.027  13.270  0.0605 -0.4224  0.6276
19769TIP3    H180798   1.452   3.981  13.262 -0.7417 -1.5857 -2.2142
19769TIP3    H280799   1.303   3.962  13.246 -1.4129  1.2840 -0.1534
19770TIP3   OH280800   6.018   3.049  15.843 -0.2120 -0.2903 -0.1912
19770TIP3    H180801   6.076   3.077  15.914 -0.5734  1.1959 -0.4546
19770TIP3    H280802   5.950   2.997  15.886  1.1599 -1.9330  0.1463
19771TIP3   OH280803   2.132   6.188   0.496 -0.4920 -0.5534 -0.6548
19771TIP3    H180804   2.051   6.239   0.487 -2.1158 -2.6462  1.2017
19771TIP3    H280805   2.164   6.208   0.584 -0.6578 -1.9967 -0.2455
19772TIP3   OH280806   1.920   3.939  14.234 -0.3008  0.2339 -0.1578
19772TIP3    H180807   1.935   3.962  14.326 -1.1235  0.0053  0.0423
19772TIP3    H280808   1.999   3.892  14.207  0.2169  0.8596  0.2425
19773TIP3   OH280809   4.700   1.023   2.467  0.0167  0.0970  0.8809
19773TIP3    H180810   4.663   0.941   2.435  0.6899  0.2689 -0.4422
19773TIP3    H280811   4.795   1.011   2.460  0.1334  0.7554  1.2722
19774TIP3   OH280812   6.347   1.511   2.836  0.4209 -0.1369  0.1945
19774TIP3    H180813   6.386   1.435   2.879 -1.2061 -1.9898 -1.4143
19774TIP3    H280814   6.347   1.489   2.743  0.3993  2.1004 -0.4005
19775TIP3   OH280815   0.885   3.988   2.620 -0.2364 -0.3067  0.5663
19775TIP3    H180816   0.872   3.930   2.695  0.1136  0.4996  1.2621
19775TIP3    H280817   0.980   3.997   2.613 -0.2567 -0.7083 -0.2316
19776TIP3   OH280818   0.215   4.886   4.783  0.0546  0.1027  0.0450
19776TIP3    H180819   0.245   4.932   4.704 -0.5454 -1.0683 -0.9047
19776TIP3    H280820   0.272   4.810   4.789  0.6797  0.6489  1.2819
19777TIP3   OH280821   5.521   1.029  13.469  0.1965  0.0644 -0.1737
19777TIP3    H180822   5.587   1.084  13.424  1.2869 -1.4248 -0.4851
19777TIP3    H280823   5.563   1.005  13.552  0.1056 -0.9839 -0.4197
19778TIP3   OH280824   4.296   5.650   4.066 -0.7114 -0.4065  0.1009
19778TIP3    H180825   4.358   5.593   4.021 -0.2541  0.6299 -0.6315
19778TIP3    H280826   4.232   5.590   4.105 -1.3456 -1.3815 -2.2322
19779TIP3   OH280827   1.208   5.037  10.673 -0.1083 -0.0162 -0.6830
19779TIP3    H180828   1.253   4.953  10.686 -0.0070  0.3531  1.8375
19779TIP3    H280829   1.127   5.013  10.629 -0.2657 -1.5365  0.3335
19780TIP3   OH280830   6.352   3.272  13.237 -0.6015  0.5865 -0.7097
19780TIP3    H180831   6.388   3.356  13.209  1.2356  0.3887  0.9075
19780TIP3    H280832   6.305   3.291  13.318  0.3964 -0.0385  0.0282
19781TIP3   OH280833   3.849   3.124   3.654  0.6068 -0.0923  0.1904
19781TIP3    H180834   3.817   3.166   3.574  1.5436 -0.4777 -0.4096
19781TIP3    H280835   3.941   3.105   3.635  0.8848 -0.0318  1.4372
19782TIP3   OH280836   6.801   5.961  15.545  0.2120  0.1183 -0.2434
19782TIP3    H180837   6.713   5.945  15.579  0.3323 -1.2891 -0.5352
19782TIP3    H280838   6.814   5.894  15.478  1.6139  0.0904  0.0100
19783TIP3   OH280839   0.134   2.928  11.325  0.3587  0.2413  0.5080
19783TIP3    H180840   0.106   2.912  11.415 -0.1511 -0.8902  0.1688
19783TIP3    H280841   0.058   2.968  11.283 -0.7903 -2.5602 -0.3354
19784TIP3   OH280842   6.497   3.209   4.687  0.1775  0.5210  0.4388
19784TIP3    H180843   6.479   3.240   4.776  1.6636  1.9426  0.2995
19784TIP3    H280844   6.569   3.148   4.696 -0.2645 -0.0298  0.2945
19785TIP3   OH280845   3.470   3.788  14.529 -0.4905  0.1785 -0.4803
19785TIP3    H180846   3.468   3.789  14.434 -1.3414 -1.1286 -0.5047
19785TIP3    H280847   3.404   3.723  14.554  0.1707  0.0207  0.9836
19786TIP3   OH280848   4.401   5.001  15.549 -0.2272  0.1979 -0.0048
19786TIP3    H180849   4.415   5.082  15.597  2.1123 -1.7100  2.8991
19786TIP3    H280850   4.339   4.952  15.602 -2.2795  0.2889 -2.1554
19787TIP3   OH280851   3.538   6.322   1.736 -0.3206 -0.1383  0.7753
19787TIP3    H180852   3.497   6.402   1.704 -0.0944  0.4513  1.9239
19787TIP3    H280853   3.476   6.287   1.800 -0.3479 -0.8143  0.3937
19788TIP3   OH280854   6.351   1.783  15.333 -0.2830  0.0878 -0.3797
19788TIP3    H180855   6.438   1.764  15.298  0.0903  0.5122  0.2855
19788TIP3    H280856   6.342   1.726  15.409 -0.1254  0.8141  0.2037
19789TIP3   OH280857   3.610   5.511  12.431  0.0517 -0.2509  0.3524
19789TIP3    H180858   3.690   5.561  12.447  0.4924 -0.8250  0.0086
19789TIP3    H280859   3.600   5.455  12.508  0.7049 -1.1014 -0.1561
19790TIP3   OH280860   0.497   1.648  11.755  0.6638 -0.1555  0.3714
19790TIP3    H180861   0.482   1.581  11.689  2.5068 -0.2354  0.0094
19790TIP3    H280862   0.432   1.628  11.823 -1.2035 -0.1282 -1.3061
19791TIP3   OH280863   6.359   1.428  16.153  0.1761  0.1437 -0.0938
19791TIP3    H180864   6.350   1.370  16.077 -0.8849 -1.1170  0.9596
19791TIP3    H280865   6.407   1.376  16.217  0.8599  1.1194  0.2108
19792TIP3   OH280866   2.990   5.279  14.309  0.0196  0.0945  0.4412
19792TIP3    H180867   2.969   5.332  14.386  0.7156 -0.1549  0.8105
19792TIP3    H280868   3.032   5.201  14.344 -0.4537 -0.4271 -0.1437
19793TIP3   OH280869   6.261   1.656  14.268 -0.3978 -0.6666  0.2152
19793TIP3    H180870   6.330   1.706  14.225  0.1965 -1.8154 -0.2126
19793TIP3    H280871   6.282   1.663  14.362  2.4905 -3.8675  0.0284
19794TIP3   OH280872   3.786   5.305   5.293 -0.9359  0.3738 -0.4033
19794TIP3    H180873   3.844   5.355   5.237 -0.0168 -0.6836 -0.4353
19794TIP3    H280874   3.759   5.366   5.362 -0.6361  1.1678 -0.9830
19795TIP3   OH280875   3.243   3.272  12.536  0.0874 -1.0008  0.0433
19795TIP3    H180876   3.165   3.313  12.500  1.0958 -0.6626 -1.9487
19795TIP3    H280877   3.225   3.261  12.629 -1.1880  1.6897  0.1849
19796TIP3   OH280878   1.524   1.696  13.739 -0.1876 -0.2722 -0.2935
19796TIP3    H180879   1.559   1.654  13.817  2.7114 -0.0775 -1.3417
19796TIP3    H280880   1.534   1.790  13.755 -0.6060 -0.1985 -0.4560
19797TIP3   OH280881   4.794   2.403  16.034 -0.2420  0.1544  0.0085
19797TIP3    H180882   4.700   2.397  16.016 -0.4028  0.7772  0.6009
19797TIP3    H280883   4.806   2.359  16.118 -0.2142  1.1557  0.5484
19798TIP3   OH280884   3.068   4.609   1.657 -0.3212  0.3504 -0.0837
19798TIP3    H180885   3.107   4.687   1.695  0.4038  0.2804 -0.6460
19798TIP3    H280886   3.111   4.536   1.702 -0.4513  0.2750 -0.0807
19799TIP3   OH280887   5.745   2.132   2.806  0.0492  0.9919 -0.1554
19799TIP3    H180888   5.778   2.117   2.895  2.0523  0.1339 -0.9959
19799TIP3    H280889   5.701   2.051   2.783  1.5998  0.2812 -0.7712
19800TIP3   OH280890   1.387   2.074   4.219 -0.2589 -0.1335  0.8243
19800TIP3    H180891   1.336   2.151   4.243 -0.5840  0.2864 -1.0129
19800TIP3    H280892   1.459   2.109   4.165  0.7316 -0.9356  1.5824
19801TIP3   OH280893   3.842   3.070  11.546 -0.0918  0.1248 -0.4223
19801TIP3    H180894   3.761   3.097  11.588  1.4311  2.2291  1.3407
19801TIP3    H280895   3.828   2.977  11.526 -2.5550  0.1826  0.6634
19802TIP3   OH280896   0.743   0.931   4.455  0.6529 -0.1567 -0.3608
19802TIP3    H180897   0.671   0.994   4.459  1.3321  0.5884  1.9174
19802TIP3    H280898   0.760   0.920   4.362 -1.9473  0.1423 -0.9327
19803TIP3   OH280899   5.311   2.705  14.919 -0.0016  0.0724  0.3069
19803TIP3    H180900   5.317   2.782  14.977  2.6971  0.7354 -0.7233
19803TIP3    H280901   5.276   2.636  14.976 -1.5933  1.7606  1.5233
19804TIP3   OH280902   3.958   5.184   2.128 -0.1704  0.1640  0.2289
19804TIP3    H180903   3.988   5.268   2.163  1.2342  0.2266 -1.0604
19804TIP3    H280904   4.029   5.123   2.146 -0.4180 -0.3273 -0.4174
19805TIP3   OH280905   1.732   5.952  13.039 -0.0987  0.0845 -0.5616
19805TIP3    H180906   1.780   6.021  12.991  0.7833  0.6650  1.0910
19805TIP3    H280907   1.781   5.872  13.019  1.3744  0.5976  0.7339
19806TIP3   OH280908   1.756   1.688  11.637 -0.2126 -0.0372  0.4219
19806TIP3    H180909   1.798   1.634  11.704 -1.1637  0.1401  1.1961
19806TIP3    H280910   1.826   1.710  11.576  0.2117 -2.1255  0.0809
19807TIP3   OH280911   1.347   2.552  16.903 -0.2337 -0.1427 -0.0996
19807TIP3    H180912   1.269   2.524  16.855  0.5020 -0.5622 -1.0973
19807TIP3    H280913   1.416   2.491  16.874  0.8645  1.2712 -0.5902
19808TIP3   OH280914   3.870   3.785  12.589 -0.5939 -0.3641  0.4500
19808TIP3    H180915   3.961   3.758  12.579 -1.4988 -3.4378 -0.7464
19808TIP3    H280916   3.857   3.850  12.520  0.9856  1.2753  1.5939
19809TIP3   OH280917   2.144   1.359  13.711  0.1868 -0.1834  0.5402
19809TIP3    H180918   2.213   1.308  13.668  0.7147 -0.1121  1.2735
19809TIP3    H280919   2.164   1.351  13.804 -0.6762  0.0233  0.7515
19810TIP3   OH280920   3.385   5.832  14.139  0.8831 -0.3688 -0.2071
19810TIP3    H180921   3.352   5.884  14.213 -0.4583  0.5918 -1.4383
19810TIP3    H280922   3.465   5.877  14.113  0.9648 -0.2752  0.1959
19811TIP3   OH280923   3.850   5.333  15.697  0.2105 -0.6870 -0.0974
19811TIP3    H180924   3.937   5.296  15.712  0.9991  1.4548  1.0092
19811TIP3    H280925   3.816   5.350  15.785 -1.1420 -1.0302 -0.5322
19812TIP3   OH280926   5.416   2.001   1.015 -0.2927 -0.1028  0.2622
19812TIP3    H180927   5.342   2.060   1.025 -0.5837 -0.4819  0.3854
19812TIP3    H280928   5.411   1.970   0.924 -0.9570 -1.0053  0.5981
19813TIP3   OH280929   1.237   5.453   1.594 -0.5470 -0.0509  0.6877
19813TIP3    H180930   1.173   5.523   1.578  0.3008  0.9561  1.5847
19813TIP3    H280931   1.193   5.394   1.654 -0.9245  0.2156  0.6793
19814TIP3   OH280932   2.031   0.498  14.810  0.1658 -0.1905 -0.4062
19814TIP3    H180933   1.959   0.555  14.837  0.8956 -0.9171  3.6135
19814TIP3    H280934   2.099   0.559  14.779 -0.8771  0.7221 -0.9511
19815TIP3   OH280935   3.204   2.601  13.043  0.3446  0.6372 -0.5037
19815TIP3    H180936   3.160   2.541  12.983  1.3887  1.2173 -1.8960
19815TIP3    H280937   3.282   2.554  13.073  0.0194  0.4870  0.1231
19816TIP3   OH280938   6.400   6.261   5.602 -0.2245  0.2477 -0.0414
19816TIP3    H180939   6.343   6.199   5.556 -2.8245  0.9207  2.0461
19816TIP3    H280940   6.456   6.297   5.533 -2.2678 -0.5273 -2.2461
19817TIP3   OH280941   5.750   0.594   3.788  0.5100 -0.1558  0.4199
19817TIP3    H180942   5.680   0.630   3.843 -1.7910 -3.4749 -0.0171
19817TIP3    H280943   5.704   0.544   3.720  3.2579 -2.8101  0.2846
19818TIP3   OH280944   3.750   6.626  15.392 -0.1495  0.7812  0.1193
19818TIP3    H180945   3.763   6.718  15.368  0.8111  1.0445  1.5675
19818TIP3    H280946   3.692   6.629  15.468 -1.6183  0.0549 -0.9104
19819TIP3   OH280947   5.720   4.856   6.303  0.5874 -0.1875  0.2723
19819TIP3    H180948   5.749   4.926   6.361 -0.1207  1.9205 -1.7200
19819TIP3    H280949   5.735   4.890   6.215 -2.8359 -1.1179 -0.8359
19820TIP3   OH280950   3.257   4.387   1.371 -0.4912 -0.4381 -0.3345
19820TIP3    H180951   3.313   4.380   1.448 -1.2633 -0.0894  0.2777
19820TIP3    H280952   3.196   4.314   1.379 -0.9541 -0.0560 -0.2802
19821TIP3   OH280953   1.101   5.123  12.973 -0.0240 -0.3734 -0.4300
19821TIP3    H180954   1.131   5.099  13.061  1.6089 -1.7557 -1.3131
19821TIP3    H280955   1.177   5.164  12.932 -0.6411 -0.1056 -1.3430
19822TIP3   OH280956   4.787   3.854  11.671 -0.4258  0.3691  0.4311
19822TIP3    H180957   4.722   3.903  11.722 -0.5764  2.2922 -1.4684
19822TIP3    H280958   4.735   3.801  11.611 -0.2265  0.2692  0.3464
19823TIP3   OH280959   6.719   2.287  13.005  0.2557  0.1690  0.3249
19823TIP3    H180960   6.681   2.306  12.919 -0.3677  0.8750  0.7364
19823TIP3    H280961   6.793   2.229  12.987  1.2985  1.8089 -0.8662
19824TIP3   OH280962   2.723   0.025  16.197  0.3706 -0.4806  0.1999
19824TIP3    H180963   2.812   0.046  16.227 -0.5656  0.7986  2.3248
19824TIP3    H280964   2.718  -0.071  16.202  1.6133 -0.5665  0.0773
19825TIP3   OH280965   2.608   2.619  11.956 -0.0544  0.4600 -0.0831
19825TIP3    H180966   2.542   2.575  11.902 -0.7205  0.1978  0.9306
19825TIP3    H280967   2.662   2.668  11.893 -0.0076 -0.8793 -1.1082
19826TIP3   OH280968   4.583   6.352   3.782 -0.0480  0.3423 -0.0928
19826TIP3    H180969   4.676   6.373   3.775  0.3585 -1.6756 -1.4264
19826TIP3    H280970   4.581   6.265   3.821 -1.2647 -0.3382 -1.5744
19827TIP3   OH280971   2.969   5.877  11.775  0.1757 -0.2995  0.0925
19827TIP3    H180972   3.058   5.862  11.744  1.0528  1.5845  1.4562
19827TIP3    H280973   2.928   5.931  11.707  0.4142 -0.3193 -0.0678
19828TIP3   OH280974   0.941   4.145  11.079 -0.0590  0.5974 -0.0150
19828TIP3    H180975   1.018   4.147  11.022  0.9637 -2.4928  1.0577
19828TIP3    H280976   0.875   4.099  11.028  1.0579 -2.7444  1.3018
19829TIP3   OH280977   0.252   1.710  14.680 -0.4448  0.1752  0.3896
19829TIP3    H180978   0.197   1.647  14.726  0.7066 -0.6238  0.7199
19829TIP3    H280979   0.309   1.747  14.747 -1.0704  1.5787  0.1947
19830TIP3   OH280980   3.854   4.099  15.705 -0.0588 -0.4007  0.1657
19830TIP3    H180981   3.914   4.100  15.779  0.0629  0.8967  0.0673
19830TIP3    H280982   3.820   4.188  15.699 -3.1199 -1.3940  1.0818
19831TIP3   OH280983   1.862   6.677   6.203  0.0509  0.2455 -0.1416
19831TIP3    H180984   1.802   6.718   6.265 -0.9770 -0.8245 -0.4007
19831TIP3    H280985   1.944   6.724   6.215 -0.3227  0.5307  1.5196
19832TIP3   OH280986   2.203   6.661   3.319  0.0323 -0.0005  0.0699
19832TIP3    H180987   2.160   6.738   3.358  0.2795 -0.2040  0.7693
19832TIP3    H280988   2.147   6.588   3.343  0.0661 -0.0980 -0.1551
19833TIP3   OH280989   3.213   3.059  11.283 -0.5186  0.1023 -0.0615
19833TIP3    H180990   3.301   3.095  11.296 -0.6009  1.0217 -1.7335
19833TIP3    H280991   3.158   3.107  11.344 -0.0849  0.5301  0.0053
19834TIP3   OH280992   4.828   5.166   0.127  0.2141  0.3039  0.4239
19834TIP3    H180993   4.918   5.190   0.104 -0.0588  1.1427  0.2224
19834TIP3    H280994   4.830   5.151   0.221  0.6117  0.0890  0.3851
19835TIP3   OH280995   0.793   2.200   0.835  0.6346 -0.1920 -0.2095
19835TIP3    H180996   0.798   2.291   0.805 -0.5503 -0.3781 -1.0650
19835TIP3    H280997   0.699   2.180   0.832  0.9090 -1.5191 -0.2665
19836TIP3   OH280998   2.002   0.191  16.114  0.3620  0.3501  0.4055
19836TIP3    H180999   1.959   0.123  16.063  0.9364 -1.0772  1.7424
19836TIP3    H281000   1.996   0.270  16.059 -0.0522 -0.8283 -1.3185
19837TIP3   OH281001   6.127   6.733   6.522 -0.4586  0.6105  0.3541
19837TIP3    H181002   6.168   6.655   6.561 -1.1206 -0.3060 -0.7328
19837TIP3    H281003   6.084   6.776   6.596  1.0510  0.7194  1.2229
19838TIP3   OH281004   4.476   3.436   0.655  0.4022 -0.2667 -0.4160
19838TIP3    H181005   4.442   3.512   0.607 -1.9534 -1.4957 -0.8689
19838TIP3    H281006   4.427   3.436   0.737  1.1643 -0.7038  0.0471
19839TIP3   OH281007   2.713   0.647   2.937  0.6762  0.4319  0.2678
19839TIP3    H181008   2.660   0.604   2.869  2.0649 -0.5874 -0.2235
19839TIP3    H281009   2.802   0.612   2.924  1.1303  0.7523  2.1595
19840TIP3   OH281010   6.220   0.236   1.445  0.1364  0.3496 -0.5113
19840TIP3    H181011   6.287   0.303   1.436  2.2081 -1.4359  0.7000
19840TIP3    H281012   6.241   0.191   1.527 -0.8171 -2.0942 -1.5098
19841TIP3   OH281013   2.836   2.752   3.658 -0.2754 -0.6139  0.5308
19841TIP3    H181014   2.769   2.816   3.683  1.4771  1.0507  1.1912
19841TIP3    H281015   2.917   2.786   3.695  1.2575 -1.7119 -1.5821
19842TIP3   OH281016   5.630   5.768  10.960  0.0967  0.0214 -0.4142
19842TIP3    H181017   5.610   5.850  10.914  1.5115  0.4192 -0.3467
19842TIP3    H281018   5.637   5.793  11.052 -0.1369 -0.3032 -0.3050
19843TIP3   OH281019   5.229   1.787  16.136  0.7307 -0.2347 -0.1362
19843TIP3    H181020   5.285   1.717  16.104 -0.0976 -1.0490  0.1768
19843TIP3    H281021   5.188   1.752  16.215  0.1084  0.5089 -0.1130
19844TIP3   OH281022   5.525   4.531  17.026 -0.3576 -0.3298  0.5925
19844TIP3    H181023   5.605   4.522  16.974  0.0514  0.8114  0.9869
19844TIP3    H281024   5.502   4.623  17.019 -1.4392 -0.5752  0.7948
19845TIP3   OH281025   1.632   4.664   1.126  0.5295 -0.2257  0.1772
19845TIP3    H181026   1.606   4.621   1.207 -1.8809  0.5038 -0.1026
19845TIP3    H281027   1.645   4.593   1.064 -3.4767 -0.8013 -0.3205
19846TIP3   OH281028   0.340   0.965   2.049  0.4577  0.1161  0.1985
19846TIP3    H181029   0.424   0.985   2.010 -0.8986  1.1967 -2.4048
19846TIP3    H281030   0.276   0.985   1.981 -1.9256 -0.6624  2.0509
19847TIP3   OH281031   4.393   4.566  12.339 -0.7003  0.0700  0.0410
19847TIP3    H181032   4.419   4.483  12.298 -1.2612 -0.6190  1.0348
19847TIP3    H281033   4.328   4.541  12.404 -0.8769  1.3066  0.3604
19848TIP3   OH281034   0.508   5.487  13.981 -0.4521 -0.6423 -0.1579
19848TIP3    H181035   0.480   5.494  13.889  0.3227  1.1224 -0.3158
19848TIP3    H281036   0.567   5.562  13.993 -1.2246 -0.3279  2.0339
19849TIP3   OH281037   0.674   4.394   0.048  0.9650  0.3238 -0.4555
19849TIP3    H181038   0.677   4.480   0.007 -1.8172  0.3997 -0.6963
19849TIP3    H281039   0.646   4.335  -0.022  0.4764 -0.3331  0.2755
19850TIP3   OH281040   4.224   6.726  14.814  0.4767  0.0703  0.0811
19850TIP3    H181041   4.136   6.735  14.777  0.0956 -0.8217  0.7180
19850TIP3    H281042   4.276   6.794  14.771 -0.5460  0.6704 -0.2325
19851TIP3   OH281043   2.953   4.442  15.733 -0.4293 -0.0367  0.1795
19851TIP3    H181044   2.968   4.410  15.643  4.4051  0.5972  0.4740
19851TIP3    H281045   2.943   4.362  15.785  0.4204 -0.5942 -0.4886
19852TIP3   OH281046   5.861   5.514   3.736 -0.2071 -0.1624  0.0567
19852TIP3    H181047   5.950   5.520   3.700  0.2963 -0.7303  1.1550
19852TIP3    H281048   5.861   5.576   3.808 -0.6768 -0.2467  0.1280
19853TIP3   OH281049   0.806   6.531   3.990  0.2707 -0.0841  0.0200
19853TIP3    H181050   0.795   6.463   4.056 -0.0201  1.1075  1.2380
19853TIP3    H281051   0.719   6.541   3.952  0.3612 -0.5277 -0.3153
19854TIP3   OH281052   5.897   2.227   5.849 -0.2575 -0.1707 -0.8251
19854TIP3    H181053   5.848   2.252   5.770 -0.1888  0.4137 -0.6916
19854TIP3    H281054   5.862   2.285   5.917 -0.6286 -0.9786 -0.3232
19855TIP3   OH281055   0.027   0.217  15.188 -1.3723 -0.4354 -0.2673
19855TIP3    H181056  -0.044   0.254  15.136 -0.5856  2.6512  0.6351
19855TIP3    H281057  -0.002   0.226  15.279 -0.3607 -0.2128  0.0576
19856TIP3   OH281058   2.682   3.224  13.825 -0.0632  0.4728 -0.3248
19856TIP3    H181059   2.617   3.253  13.890  2.1904 -0.4600  2.5621
19856TIP3    H281060   2.629   3.193  13.752 -2.8520  0.8854  1.3364
19857TIP3   OH281061   5.088   4.446   3.549  0.0638  0.0322 -0.1240
19857TIP3    H181062   5.029   4.501   3.600  0.2452  1.0835 -1.0091
19857TIP3    H281063   5.163   4.502   3.530  2.0958 -1.6888  2.2047
19858TIP3   OH281064   0.298   6.755   0.178  0.0165  0.0306 -0.1444
19858TIP3    H181065   0.280   6.849   0.180 -2.3713 -0.3695  1.2608
19858TIP3    H281066   0.312   6.731   0.269  0.7445 -0.9717 -0.5006
19859TIP3   OH281067   5.094   4.600  14.572 -0.4903  0.2824 -0.0401
19859TIP3    H181068   5.161   4.668  14.576  0.7190 -0.7851 -1.1851
19859TIP3    H281069   5.135   4.524  14.614 -0.4499 -0.7744 -1.9167
19860TIP3   OH281070   5.919   2.045  16.797  0.5978 -0.4332  0.0551
19860TIP3    H181071   5.884   2.126  16.835  0.6496  0.2908 -1.3400
19860TIP3    H281072   5.972   2.007  16.866  1.1567  1.1134  0.5282
19861TIP3   OH281073   6.742   0.399   0.112  0.6351 -0.3443  0.1866
19861TIP3    H181074   6.658   0.438   0.135  0.3942 -0.2804 -0.7483
19861TIP3    H281075   6.735   0.382   0.018  1.8321  0.0818  0.0042
19862TIP3   OH281076   3.639   1.982   0.620 -0.0418 -0.0264 -0.2355
19862TIP3    H181077   3.649   2.066   0.664  0.3885  0.8626 -1.9796
19862TIP3    H281078   3.601   1.925   0.687  0.4068  1.3150  1.2223
19863TIP3   OH281079   4.874   4.196   4.224 -0.3384  0.0034 -0.0664
19863TIP3    H181080   4.811   4.247   4.275 -0.0402  0.3945 -0.0835
19863TIP3    H281081   4.821   4.144   4.164 -0.7495 -1.1601  1.2583
19864TIP3   OH281082   4.330   5.217   4.039  0.4392  0.1144 -0.0129
19864TIP3    H181083   4.298   5.239   4.126  2.5497  1.3385  0.5209
19864TIP3    H281084   4.422   5.243   4.039  0.5636 -0.0104 -2.5549
19865TIP3   OH281085   3.171   4.398  17.007 -0.3108 -0.0820  0.0483
19865TIP3    H181086   3.152   4.472  17.064 -0.2111 -0.7628  0.9866
19865TIP3    H281087   3.244   4.353  17.050  0.3887 -0.0890 -1.1100
19866TIP3   OH281088   6.376   6.084   3.028  0.5453  0.2204 -0.4357
19866TIP3    H181089   6.311   6.121   2.969  0.6720 -0.3346 -0.9378
19866TIP3    H281090   6.327   6.021   3.081  0.8145 -0.8388 -1.4065
19867TIP3   OH281091   1.664   5.861  15.937  0.0637  0.2341  0.1447
19867TIP3    H181092   1.667   5.878  15.843  1.2365  1.2445  0.3318
19867TIP3    H281093   1.630   5.942  15.975 -1.2835 -0.4887  0.5447
19868TIP3   OH281094   0.629   3.536   2.764 -0.3717  0.0781  0.0443
19868TIP3    H181095   0.536   3.524   2.781 -0.3167 -1.8179 -0.8116
19868TIP3    H281096   0.635   3.548   2.669  0.2760  0.1019  0.0829
19869TIP3   OH281097   0.703   0.422  14.083 -0.0883 -0.6193  0.0095
19869TIP3    H181098   0.670   0.334  14.097  1.0103 -0.9294  0.7499
19869TIP3    H281099   0.728   0.424  13.991  1.4770 -1.6587  0.3780
19870TIP3   OH281100   2.502   3.339  14.032  0.1944  0.2392 -0.1063
19870TIP3    H181101   2.415   3.349  13.994  0.5478  0.5381 -0.8490
19870TIP3    H281102   2.493   3.266  14.093 -0.1082 -1.0485 -1.6151
19871TIP3   OH281103   0.378   1.507  12.387  0.0102  0.1022  0.1441
19871TIP3    H181104   0.457   1.457  12.363 -1.0611 -0.7301 -1.8480
19871TIP3    H281105   0.401   1.548  12.471  2.4511 -0.3385 -0.2183
19872TIP3   OH281106   6.750   4.571  11.942 -0.5426 -0.2240 -0.2963
19872TIP3    H181107   6.837   4.548  11.907 -1.0813 -1.3827 -0.9422
19872TIP3    H281108   6.722   4.492  11.988 -0.9470  0.4086  0.5680
19873TIP3   OH281109   6.598   3.922  13.114 -0.1976  0.5486 -0.2253
19873TIP3    H181110   6.584   4.010  13.080 -0.4638  0.4006 -0.5012
19873TIP3    H281111   6.527   3.870  13.076 -0.0762  0.2285 -0.0164
19874TIP3   OH281112   6.707   5.717  11.392 -0.7674  0.4647  0.3503
19874TIP3    H181113   6.779   5.669  11.351  0.9417  1.4734  2.0272
19874TIP3    H281114   6.699   5.678  11.479 -2.0070  0.6324  0.3196
19875TIP3   OH281115   6.128   1.756   1.938  0.5261  0.3220  0.1131
19875TIP3    H181116   6.159   1.842   1.911  3.1432 -0.3256  0.7296
19875TIP3    H281117   6.088   1.770   2.023 -1.0274  1.2138 -0.7273
19876TIP3   OH281118   5.620   5.486  14.939 -0.1434  0.1314  0.3647
19876TIP3    H181119   5.645   5.519  15.025 -0.6767 -1.7785  1.3186
19876TIP3    H281120   5.703   5.467  14.895  0.1305  0.7684  0.6045
19877TIP3   OH281121   5.597   2.434   3.718  0.0140  0.2015 -0.4439
19877TIP3    H181122   5.662   2.364   3.728 -0.4719 -0.1855  0.0717
19877TIP3    H281123   5.516   2.389   3.698 -0.0863  0.6922 -1.1922
19878TIP3   OH281124   1.687   3.955   4.084  0.0741 -0.9364 -0.0811
19878TIP3    H181125   1.705   3.935   3.992  0.0324 -0.6758 -0.1469
19878TIP3    H281126   1.762   4.008   4.112 -0.5489  0.1115 -0.3410
19879TIP3   OH281127   3.878   1.083  16.575  0.1173 -0.1910 -0.2780
19879TIP3    H181128   3.922   1.045  16.651  0.3440 -1.2736 -0.9192
19879TIP3    H281129   3.878   1.177  16.591  1.5634 -0.2717  0.3135
19880TIP3   OH281130   3.213   4.182  15.684 -0.3351  0.2569 -0.4620
19880TIP3    H181131   3.290   4.229  15.717  0.2071 -1.5524  1.0526
19880TIP3    H281132   3.164   4.248  15.635  1.6843  1.7099 -0.6683
19881TIP3   OH281133   6.284   1.453  13.306 -0.1762  0.4882 -0.5450
19881TIP3    H181134   6.271   1.530  13.362  1.0637 -0.5325  1.2196
19881TIP3    H281135   6.204   1.402  13.317 -0.7634  1.1985 -1.2874
19882TIP3   OH281136   4.000   5.641  13.753 -0.1216 -0.0661  0.2118
19882TIP3    H181137   3.947   5.575  13.799  0.4873 -0.5520  0.2387
19882TIP3    H281138   3.975   5.724  13.794 -1.7431 -0.1160 -0.5942
19883TIP3   OH281139   3.643   0.639   4.455 -0.1421 -0.2822  0.1674
19883TIP3    H181140   3.605   0.551   4.456 -0.2537 -0.2599 -0.9682
19883TIP3    H281141   3.575   0.695   4.491 -0.1262 -0.6258  0.7557
19884TIP3   OH281142   6.054   0.745   5.533 -0.1607 -0.7673  0.6169
19884TIP3    H181143   6.108   0.712   5.604 -1.6379 -1.8078  1.2866
19884TIP3    H281144   6.083   0.836   5.521  0.7135 -0.8545  1.9263
19885TIP3   OH281145   2.247   5.066   2.853 -0.2151 -0.0184 -0.3079
19885TIP3    H181146   2.205   5.120   2.920  0.4096  0.1537 -0.0460
19885TIP3    H281147   2.178   5.008   2.822 -0.8162  0.7083 -0.3631
19886TIP3   OH281148   5.921   3.864   4.705  0.2055 -0.1433  0.0501
19886TIP3    H181149   5.868   3.786   4.689  0.0788  0.3845 -2.5649
19886TIP3    H281150   5.955   3.888   4.618  1.0106  2.1752  0.9301
19887TIP3   OH281151   0.372   5.833   4.743  0.4573 -0.8092 -0.2715
19887TIP3    H181152   0.303   5.875   4.693 -0.4330 -1.6838  0.1965
19887TIP3    H281153   0.428   5.905   4.772  0.4778 -0.2132 -1.7226
19888TIP3   OH281154   6.715   3.006  17.205 -0.4047  0.1688 -0.3478
19888TIP3    H181155   6.658   3.082  17.198 -1.0055 -0.1563  0.7925
19888TIP3    H281156   6.657   2.930  17.199  0.0827 -0.1948 -0.6185
19889TIP3   OH281157   5.517   0.257  16.159 -0.8189 -0.2703 -0.1402
19889TIP3    H181158   5.536   0.246  16.252  0.8631 -1.1077 -0.5240
19889TIP3    H281159   5.500   0.168  16.127  1.2027 -0.3844 -1.0780
19890TIP3   OH281160   5.675   1.062  17.094 -0.2454  0.0636  0.3114
19890TIP3    H181161   5.647   1.035  17.006 -1.4230  0.2502  0.6093
19890TIP3    H281162   5.603   1.116  17.127  0.5359  0.6584  1.0899
19891TIP3   OH281163   5.170   2.163   2.515  0.5996 -0.1272 -0.6911
19891TIP3    H181164   5.242   2.226   2.510  0.0402  0.5443 -0.4380
19891TIP3    H281165   5.173   2.130   2.605  0.9372 -0.5197 -0.8448
19892TIP3   OH281166   3.484   6.056  11.489 -0.0098 -0.7615 -0.1720
19892TIP3    H181167   3.564   6.097  11.458 -0.5232 -0.3151 -0.9319
19892TIP3    H281168   3.436   6.033  11.410 -1.1587  0.0394  0.2674
19893TIP3   OH281169   4.770   0.359   1.612 -0.1377 -0.0865  0.1931
19893TIP3    H181170   4.695   0.417   1.626 -1.4554 -1.4547 -0.8188
19893TIP3    H281171   4.754   0.320   1.526  0.4063 -2.3041  1.0377
19894TIP3   OH281172   4.537   2.487  15.439  0.0321  0.3834  0.6184
19894TIP3    H181173   4.569   2.560  15.386  0.1921  0.4301  0.7772
19894TIP3    H281174   4.551   2.516  15.530 -0.4474  0.3975  0.6886
19895TIP3   OH281175   3.933   2.004   0.880 -0.2357 -0.3794 -0.5976
19895TIP3    H181176   4.011   2.006   0.936  0.4331 -0.1601 -1.5226
19895TIP3    H281177   3.863   2.039   0.936  0.3289 -0.5421  0.2315
19896TIP3   OH281178   3.330   4.156   3.665 -0.4295 -0.5213 -0.1727
19896TIP3    H181179   3.350   4.247   3.686  0.2021 -0.7012  0.0196
19896TIP3    H281180   3.369   4.106   3.737 -0.0051 -1.0037 -0.7294
19897TIP3   OH281181   4.394   1.774  15.938  0.0191  0.0285  0.0580
19897TIP3    H181182   4.408   1.724  16.018 -0.4314  0.8985  0.6996
19897TIP3    H281183   4.482   1.801  15.910  0.3042 -1.3404 -0.4745
19898TIP3   OH281184   4.270   6.482   5.682 -0.4858  0.0185  0.0418
19898TIP3    H181185   4.323   6.415   5.638 -0.2591  0.1576  0.1047
19898TIP3    H281186   4.305   6.565   5.652 -2.2897  0.1545 -1.9080
19899TIP3   OH281187   1.773   0.226  11.560  0.2233  0.0494  0.4582
19899TIP3    H181188   1.686   0.211  11.524 -0.2505 -0.2384  1.6729
19899TIP3    H281189   1.824   0.150  11.531 -0.0201  0.0346  0.0581
19900TIP3   OH281190   0.159   1.462  14.485 -0.0307 -0.2476  0.3797
19900TIP3    H181191   0.099   1.530  14.454  0.3717 -0.0534  0.0281
19900TIP3    H281192   0.217   1.446  14.411 -0.9152 -1.8910 -0.0191
19901TIP3   OH281193   2.011   4.223  14.073  0.0846  0.2196  0.3598
19901TIP3    H181194   2.025   4.282  13.998 -2.0919  0.6792  0.2479
19901TIP3    H281195   1.934   4.259  14.117  0.4041 -0.9516  1.9375
19902TIP3   OH281196   2.880   5.142   1.393  0.6900 -0.0060  0.0206
19902TIP3    H181197   2.923   5.103   1.316  1.1582  1.4119 -0.4828
19902TIP3    H281198   2.939   5.123   1.466  0.5270 -0.8763 -0.0636
19903TIP3   OH281199   4.122   1.943   5.909 -0.1397 -0.0167 -0.4230
19903TIP3    H181200   4.187   1.885   5.870 -0.2788  0.3546 -1.2407
19903TIP3    H281201   4.147   2.030   5.880  0.6437  0.4920  1.6050
19904TIP3   OH281202   2.962   0.537  13.655 -0.5609 -0.3483 -0.3464
19904TIP3    H181203   2.931   0.559  13.568 -0.0782 -0.2763 -0.5019
19904TIP3    H281204   2.889   0.488  13.695 -1.1130  0.3536 -0.4748
19905TIP3   OH281205   1.718   0.941   0.718  1.0662 -0.1434  0.1975
19905TIP3    H181206   1.734   0.920   0.810 -0.3596  2.7092  1.1938
19905TIP3    H281207   1.631   0.905   0.700  0.5621  0.8805  0.5413
19906TIP3   OH281208   1.278   0.356   2.069 -0.2618  0.7314 -0.1994
19906TIP3    H181209   1.322   0.418   2.127  1.9609  1.3712 -2.4406
19906TIP3    H281210   1.328   0.275   2.077 -0.1197  0.7380 -1.0256
19907TIP3   OH281211   3.496   5.121  16.456 -0.0973 -0.1273 -0.3183
19907TIP3    H181212   3.443   5.044  16.436 -0.1098 -0.1752 -0.1052
19907TIP3    H281213   3.511   5.116  16.551 -0.3055  0.2636 -0.2627
19908TIP3   OH281214   1.195   3.498   3.591 -0.0307 -0.4827  0.1836
19908TIP3    H181215   1.284   3.490   3.557 -0.4118 -1.0271 -0.7279
19908TIP3    H281216   1.178   3.415   3.634 -0.8476 -1.2694 -1.5514
19909TIP3   OH281217   0.320   0.416   3.100 -0.1173 -1.0293  0.0366
19909TIP3    H181218   0.249   0.365   3.060 -1.9335  0.7320  0.8443
19909TIP3    H281219   0.347   0.364   3.176  0.5418 -2.4279 -1.1032
19910TIP3   OH281220   1.610   1.735  10.918 -0.1652 -0.6335 -0.2085
19910TIP3    H181221   1.692   1.709  10.960  2.1218  1.4691 -2.9732
19910TIP3    H281222   1.592   1.823  10.953 -0.7383 -0.6941 -0.3364
19911TIP3   OH281223   6.537   4.378  12.886  0.0097 -0.1490  0.0839
19911TIP3    H181224   6.565   4.290  12.861 -0.9611 -0.7698  1.1034
19911TIP3    H281225   6.498   4.367  12.973 -1.2560  1.0536 -0.3007
19912TIP3   OH281226   1.711   0.280   0.411  0.6137 -0.3188 -0.3274
19912TIP3    H181227   1.758   0.313   0.334  1.8836 -0.5229  0.3258
19912TIP3    H281228   1.712   0.353   0.473 -0.9685  0.0650 -0.7015
19913TIP3   OH281229   1.894   4.433   5.821 -0.1849  0.3507  0.0718
19913TIP3    H181230   1.952   4.402   5.891  0.1398  0.2609 -0.2395
19913TIP3    H281231   1.818   4.468   5.868 -0.4124 -0.5930  0.4490
19914TIP3   OH281232   4.310   1.071  15.580 -0.5615  0.5948  0.2739
19914TIP3    H181233   4.302   1.113  15.494  0.8577  1.5925  0.5800
19914TIP3    H281234   4.300   1.142  15.643 -2.8566 -0.3109  1.0506
19915TIP3   OH281235   3.024   2.913  15.690 -0.2071 -0.0154 -0.7486
19915TIP3    H181236   2.997   2.837  15.743  1.6993 -1.2544 -1.4352
19915TIP3    H281237   3.081   2.963  15.749  1.7270 -1.2723 -1.4495
19916TIP3   OH281238   3.366   0.881   0.854 -0.0458 -0.3952 -0.3629
19916TIP3    H181239   3.404   0.957   0.810  1.7913 -0.3632  1.1458
19916TIP3    H281240   3.272   0.899   0.856  0.1694  1.0211 -1.5192
19917TIP3   OH281241   2.850   4.169   4.644 -0.4013 -0.1251  0.0876
19917TIP3    H181242   2.908   4.094   4.632  1.1508  0.4530  2.9652
19917TIP3    H281243   2.883   4.212   4.723 -2.0876  2.8104 -0.6588
19918TIP3   OH281244   1.328   0.029   2.928  0.1142  0.7007  0.0731
19918TIP3    H181245   1.261   0.028   2.995  1.0865 -0.3418  1.0720
19918TIP3    H281246   1.360   0.119   2.927 -1.9198  1.4733 -1.1157
19919TIP3   OH281247   1.684   2.083   5.858 -0.1583  0.8822  0.2868
19919TIP3    H181248   1.633   2.002   5.865  0.6920  0.4582  2.1973
19919TIP3    H281249   1.767   2.056   5.820 -0.8709  1.3787 -1.7297
19920TIP3   OH281250   6.763   1.277   4.205  0.2128  0.3706  0.4099
19920TIP3    H181251   6.676   1.237   4.198  0.3750 -0.0911  0.9845
19920TIP3    H281252   6.750   1.352   4.263 -0.4759  2.3128 -2.0897
19921TIP3   OH281253   2.183   1.197  11.620  0.4170 -0.1830 -0.2558
19921TIP3    H181254   2.237   1.121  11.644 -0.3536 -0.5667  0.3261
19921TIP3    H281255   2.097   1.159  11.603  0.2750  0.4457 -0.9859
19922TIP3   OH281256   2.203   2.422  16.007  0.1016  0.5341 -0.3397
19922TIP3    H181257   2.179   2.486  15.941  1.6715  1.2253 -0.2864
19922TIP3    H281258   2.279   2.376  15.970  0.6664  0.5660  0.7393
19923TIP3   OH281259   6.372   3.070  15.936 -0.3272  0.2836  0.0429
19923TIP3    H181260   6.393   3.008  15.866  0.3216 -0.7044  1.0696
19923TIP3    H281261   6.444   3.060  15.998 -0.8545  1.1843  0.8156
19924TIP3   OH281262   1.180   2.592   0.869 -0.3096  0.5451 -0.6606
19924TIP3    H181263   1.256   2.650   0.866 -0.9858  1.4576 -0.3101
19924TIP3    H281264   1.126   2.627   0.939 -0.1934 -1.1879  0.3642
19925TIP3   OH281265   3.454   0.863  14.702  0.0610  0.8949  0.0547
19925TIP3    H181266   3.376   0.843  14.650 -0.7422  0.1501  1.4992
19925TIP3    H281267   3.516   0.794  14.679 -0.6050  0.0639  0.6925
19926TIP3   OH281268   1.234   0.848   3.091  0.3178 -0.5367 -0.2302
19926TIP3    H181269   1.158   0.906   3.080 -0.5907 -1.5098  0.6430
19926TIP3    H281270   1.295   0.876   3.022 -1.1392 -0.2078 -1.4662
19927TIP3   OH281271   3.742   0.447   1.375  0.3374  0.6299 -0.0483
19927TIP3    H181272   3.678   0.512   1.346 -1.5658 -0.7035  0.9467
19927TIP3    H281273   3.778   0.483   1.456 -0.0148  0.8660  0.0039
19928TIP3   OH281274   0.397   2.765   4.474  0.1299 -0.3702 -0.6952
19928TIP3    H181275   0.318   2.731   4.432 -1.2604  1.3991  0.3512
19928TIP3    H281276   0.439   2.818   4.406  1.5046 -2.7252 -1.8439
19929TIP3   OH281277   1.865   6.706  13.543  0.0017 -0.2008  0.0037
19929TIP3    H181278   1.866   6.647  13.467 -0.5405 -0.5490  0.2614
19929TIP3    H281279   1.773   6.709  13.569 -0.1467  1.5490 -0.6075
19930TIP3   OH281280   2.680   5.160  15.468  0.7029  1.0389 -0.0477
19930TIP3    H181281   2.718   5.246  15.485  3.4704  0.0203 -0.5297
19930TIP3    H281282   2.662   5.159  15.374 -0.7575  1.5875  0.2124
19931TIP3   OH281283   0.661   6.681  12.971 -0.4405  0.4703  0.4717
19931TIP3    H181284   0.724   6.623  12.929 -0.1987  1.7734 -1.0667
19931TIP3    H281285   0.703   6.767  12.971 -2.5866  1.6629 -1.6915
19932TIP3   OH281286   2.222   1.936   2.645  0.4163 -0.3759 -0.4083
19932TIP3    H181287   2.163   1.973   2.710 -0.3303 -0.8032 -0.8281
19932TIP3    H281288   2.310   1.953   2.680  0.0437 -0.0593  0.4057
19933TIP3   OH281289   5.231   3.179  15.925  0.1865  0.1359  0.3055
19933TIP3    H181290   5.140   3.200  15.907  0.5200  0.4532 -1.1167
19933TIP3    H281291   5.271   3.168  15.839  1.1175 -1.7189  0.9160
19934TIP3   OH281292   5.164   3.267  14.919  0.1480  0.5553  0.2091
19934TIP3    H181293   5.171   3.363  14.922 -0.3905  0.5800  0.7330
19934TIP3    H281294   5.234   3.240  14.859  0.5438  1.2524  0.3442
19935TIP3   OH281295   3.962   6.001   2.723 -0.2288  0.1008  0.0568
19935TIP3    H181296   3.938   6.019   2.633 -1.9802  0.9511  0.6419
19935TIP3    H281297   3.892   6.041   2.775  0.7885 -0.2640  1.7938
19936TIP3   OH281298   5.404   0.319   5.485 -0.9470 -0.2721  0.5555
19936TIP3    H181299   5.455   0.239   5.473 -1.3930 -0.4417 -0.2957
19936TIP3    H281300   5.319   0.288   5.515 -1.0159 -0.0973  0.5363
19937TIP3   OH281301   5.073   1.123  15.579 -0.4133  0.3727 -0.0458
19937TIP3    H181302   5.121   1.084  15.506  0.0811  1.2526 -0.2003
19937TIP3    H281303   5.108   1.080  15.656 -1.6361 -1.2991 -0.3529
19938TIP3   OH281304   2.303   3.725   4.350 -0.0673  0.0946  0.3411
19938TIP3    H181305   2.388   3.681   4.356 -1.6001 -2.9877  2.5927
19938TIP3    H281306   2.256   3.677   4.282  0.1362  2.3250 -1.5059
19939TIP3   OH281307   0.736   1.512  16.168 -0.4135 -0.2057 -0.4383
19939TIP3    H181308   0.745   1.597  16.124  0.6888  0.1542  0.4299
19939TIP3    H281309   0.822   1.497  16.207 -1.4342 -0.3461  1.8599
19940TIP3   OH281310   4.269   2.730  14.819  0.1342 -0.0736 -0.4262
19940TIP3    H181311   4.212   2.724  14.743  0.3867  1.1270 -0.7417
19940TIP3    H281312   4.282   2.640  14.847  0.1066 -0.5405 -1.8515
19941TIP3   OH281313   6.102   6.779   4.725  0.2883  0.5025 -0.0796
19941TIP3    H181314   6.074   6.712   4.787  0.9165  0.3447  0.0349
19941TIP3    H281315   6.130   6.730   4.648  1.9138  0.5483  0.4535
19942TIP3   OH281316   2.011   2.337   1.769 -0.5197  0.3422 -0.2666
19942TIP3    H181317   2.098   2.335   1.728 -1.1598  2.8061 -2.0073
19942TIP3    H281318   1.974   2.251   1.751  1.6035 -0.8755  0.7725
19943TIP3   OH281319   0.770   1.438   4.373 -0.1452 -0.0008 -0.4268
19943TIP3    H181320   0.860   1.449   4.402 -0.3882  0.6709  0.0933
19943TIP3    H281321   0.740   1.526   4.351 -0.5242 -0.2760 -1.0694
19944TIP3   OH281322   6.222   6.136  13.217 -0.7502 -0.3585 -0.0135
19944TIP3    H181323   6.276   6.188  13.158 -1.1860 -0.5213 -0.5589
19944TIP3    H281324   6.151   6.194  13.244 -1.1354 -0.6002 -0.4799
19945TIP3   OH281325   1.141   4.596  16.476  0.7936 -0.1843 -0.7279
19945TIP3    H181326   1.099   4.627  16.556  0.8363 -2.6152  0.3400
19945TIP3    H281327   1.103   4.649  16.406  0.2331  1.5274  0.8209
19946TIP3   OH281328   0.213   3.166   5.686  0.1737 -0.1981  0.2888
19946TIP3    H181329   0.266   3.207   5.754  2.3883 -1.1579 -0.7463
19946TIP3    H281330   0.204   3.075   5.715 -1.4368  0.0635  0.7056
19947TIP3   OH281331   3.887   4.922  15.771 -0.4686 -0.1120  0.5037
19947TIP3    H181332   3.884   4.849  15.833 -1.0125  0.2659  0.9395
19947TIP3    H281333   3.823   4.984  15.805  1.0201  1.2352  0.9654
19948TIP3   OH281334   1.430   0.938   3.779  0.2931  0.5346  0.1033
19948TIP3    H181335   1.524   0.924   3.790  0.3897 -1.0026 -1.9900
19948TIP3    H281336   1.410   1.013   3.835  2.3704 -0.3017  2.1181
19949TIP3   OH281337   0.992   0.219  15.661  0.3874 -0.2654  0.8272
19949TIP3    H181338   1.056   0.220  15.590 -0.6157  0.4883 -0.0960
19949TIP3    H281339   0.952   0.133  15.657 -2.6654  1.0627 -2.3788
19950TIP3   OH281340   4.676   1.775   1.551 -0.0887  0.0778 -0.1583
19950TIP3    H181341   4.661   1.780   1.645  0.0662  0.2444 -0.1413
19950TIP3    H281342   4.618   1.705   1.521  0.0806 -0.1780  0.1047
19951TIP3   OH281343   3.488   0.047   0.851 -0.0828  0.1862 -0.0050
19951TIP3    H181344   3.423  -0.018   0.824  2.9666 -2.6981 -1.2023
19951TIP3    H281345   3.495   0.107   0.777 -0.4501 -0.2867 -0.4279
19952TIP3   OH281346   5.558   3.820  14.901 -0.4885 -0.2593  0.4308
19952TIP3    H181347   5.574   3.742  14.848 -1.4423  0.4754 -0.9978
19952TIP3    H281348   5.482   3.862  14.860  0.4864  1.8460  0.6509
19953TIP3   OH281349   4.265   5.303  16.228  0.1674  0.1155  0.2532
19953TIP3    H181350   4.260   5.272  16.137  0.9741 -2.5066  1.0160
19953TIP3    H281351   4.324   5.379  16.224  0.4508 -0.1553 -1.3697
19954TIP3   OH281352   0.509   2.915   1.034  0.0557 -0.5713  0.2595
19954TIP3    H181353   0.466   2.830   1.037  1.1493 -1.1394  2.4011
19954TIP3    H281354   0.508   2.940   0.942  0.5194 -3.3419 -0.5927
19955TIP3   OH281355   1.049   1.002  11.968 -0.1357 -0.2849 -0.2239
19955TIP3    H181356   1.093   1.071  11.919 -1.1510  0.4787 -0.0926
19955TIP3    H281357   0.985   0.966  11.906 -0.2192 -0.5121 -0.0093
19956TIP3   OH281358   5.914   6.112   1.037 -0.2636  0.7442  0.2993
19956TIP3    H181359   5.953   6.101   1.124  0.1550 -1.2239 -0.1051
19956TIP3    H281360   5.920   6.206   1.021 -0.0233  1.1070  2.2457
19957TIP3   OH281361   0.870   4.955  15.977 -0.2280 -0.3951 -0.1312
19957TIP3    H181362   0.880   4.946  16.072 -0.5080  2.8601  0.3167
19957TIP3    H281363   0.776   4.947  15.961 -0.2128 -0.6374 -0.1049
19958TIP3   OH281364   4.712   2.517   4.257  0.4003 -0.5078  0.5148
19958TIP3    H181365   4.773   2.532   4.185  0.9331 -0.3447  0.9950
19958TIP3    H281366   4.763   2.537   4.336  0.3107 -2.1874  1.0301
19959TIP3   OH281367   3.873   3.366  13.590 -0.3030 -0.2909 -0.4313
19959TIP3    H181368   3.799   3.336  13.642  0.3423 -2.4908 -0.6638
19959TIP3    H281369   3.945   3.307  13.614  1.2731  1.5115 -0.5114
19960TIP3   OH281370   2.268   4.188  13.877  0.0497 -0.8104 -0.0085
19960TIP3    H181371   2.200   4.120  13.884 -0.8732  0.1303  0.4266
19960TIP3    H281372   2.219   4.269  13.862  0.8298  0.3779  3.1087
19961TIP3   OH281373   6.510   5.967   2.768 -0.5764  0.3221 -0.4888
19961TIP3    H181374   6.473   6.032   2.829 -0.2812  0.1293 -0.0994
19961TIP3    H281375   6.542   5.897   2.825 -1.5804 -0.5254 -0.9427
19962TIP3   OH281376   2.246   0.514  17.129 -0.2335 -0.2800  0.3167
19962TIP3    H181377   2.198   0.433  17.112 -1.9515  0.3070  2.1087
19962TIP3    H281378   2.186   0.584  17.103  0.2649  0.4481  1.0671
19963TIP3   OH281379   6.637   0.139   2.148 -0.8167 -0.4600  0.0950
19963TIP3    H181380   6.731   0.127   2.135 -0.2340  0.0736  3.1363
19963TIP3    H281381   6.601   0.051   2.146 -0.0443 -0.7839  0.1516
19964TIP3   OH281382   6.554   0.742  10.868  0.5934  0.8126 -0.4819
19964TIP3    H181383   6.473   0.702  10.834  1.0634 -0.0622 -0.5984
19964TIP3    H281384   6.558   0.713  10.959  1.6006 -0.5255 -0.9139
19965TIP3   OH281385   6.623   3.315   2.440  0.6598 -0.3742  0.0620
19965TIP3    H181386   6.612   3.254   2.368 -2.5996  0.3585 -0.1943
19965TIP3    H281387   6.626   3.260   2.518 -1.1861 -0.9802 -0.2451
19966TIP3   OH281388   5.907   2.155  12.509  0.4331 -0.0101 -0.1215
19966TIP3    H181389   5.917   2.207  12.589  0.8491  0.8366 -0.7108
19966TIP3    H281390   5.939   2.212  12.439 -0.8854 -0.3436 -1.0384
19967TIP3   OH281391   0.588   3.419   0.353  0.8577 -0.0385  0.5535
19967TIP3    H181392   0.554   3.361   0.421  1.9277  0.6965  1.7440
19967TIP3    H281393   0.649   3.477   0.398  1.4276  0.6262 -0.9933
19968TIP3   OH281394   2.940   5.785  14.770 -0.1258  0.1549  0.3342
19968TIP3    H181395   3.033   5.765  14.761 -0.1433 -0.2101  0.8930
19968TIP3    H281396   2.937   5.866  14.819 -0.1113 -0.2079  0.9406
19969TIP3   OH281397   0.299   1.611   2.592 -0.0997 -0.6514 -0.7252
19969TIP3    H181398   0.270   1.570   2.510  2.0527  0.3088 -2.0468
19969TIP3    H281399   0.245   1.690   2.599 -1.3720 -1.5092 -0.3380
19970TIP3   OH281400   4.493   3.317  15.502  0.6189  0.4735  0.1186
19970TIP3    H181401   4.482   3.223  15.492  0.7726  0.6737 -3.1451
19970TIP3    H281402   4.566   3.339  15.445 -0.4158  2.7414 -0.4543
19971TIP3   OH281403   1.065   1.865  10.651 -0.5244  0.3463  0.3832
19971TIP3    H181404   1.086   1.779  10.688 -1.7047  0.3430  1.0811
19971TIP3    H281405   1.099   1.928  10.714  2.7027  0.5527 -1.3205
19972TIP3   OH281406   2.168   6.687  13.318 -0.2510 -0.4057 -0.2247
19972TIP3    H181407   2.167   6.760  13.380  1.0965 -2.0481  1.8586
19972TIP3    H281408   2.099   6.629  13.348  1.1470 -1.7582  0.5010
19973TIP3   OH281409   1.847   5.406   4.021 -0.8120 -0.4399  0.0366
19973TIP3    H181410   1.758   5.373   4.036 -1.1567  0.0216 -0.8932
19973TIP3    H281411   1.869   5.376   3.932  0.1596 -0.9673  0.4384
19974TIP3   OH281412   0.058   2.924   1.440  0.2277 -0.6945 -0.3969
19974TIP3    H181413  -0.003   2.945   1.369 -1.4573  1.9224  1.6651
19974TIP3    H281414   0.005   2.873   1.502  1.4183 -2.1219 -0.4988
19975TIP3   OH281415   0.786   5.591   4.434  0.1123 -0.5003 -0.1218
19975TIP3    H181416   0.694   5.618   4.429  0.4357  0.4686 -1.2076
19975TIP3    H281417   0.826   5.652   4.496 -0.1690 -1.5885  1.1903
19976TIP3   OH281418   4.914   1.866  12.465 -0.0306  0.0265  0.4272
19976TIP3    H181419   4.897   1.788  12.519  0.8406 -1.1330 -0.9214
19976TIP3    H281420   5.005   1.889  12.485  0.0692  0.0212 -0.0270
19977TIP3   OH281421   5.182   0.265  11.091 -0.1057  0.0493  0.1015
19977TIP3    H181422   5.114   0.296  11.031 -0.4334 -3.2247 -1.4228
19977TIP3    H281423   5.247   0.335  11.091 -0.9409  0.9654 -2.7270
19978TIP3   OH281424   3.768   5.654  16.080  0.7399 -0.6048  0.2210
19978TIP3    H181425   3.766   5.742  16.043 -0.6186 -1.5378 -2.2188
19978TIP3    H281426   3.704   5.656  16.151  1.2755  0.5454  0.6937
19979TIP3   OH281427   0.541   2.881   3.965  0.8393  0.2043 -0.4027
19979TIP3    H181428   0.487   2.842   3.896  1.5317 -0.5816 -0.5165
19979TIP3    H281429   0.506   2.845   4.046  1.5073 -0.7384 -0.5095
19980TIP3   OH281430   6.023   2.987  12.925  0.5531 -0.2621 -0.0468
19980TIP3    H181431   6.006   3.002  12.832  1.8212  0.7127 -0.1425
19980TIP3    H281432   6.076   2.907  12.927  1.2355  0.1854 -0.2295
19981TIP3   OH281433   1.500   4.580  13.833  0.1358  0.4585  0.1913
19981TIP3    H181434   1.592   4.591  13.810  0.0207  0.0426 -0.4980
19981TIP3    H281435   1.473   4.499  13.789  0.1262 -0.9148  2.5624
19982TIP3   OH281436   3.948   0.308   2.374  0.0310  0.2731 -0.0187
19982TIP3    H181437   3.939   0.216   2.347  0.1433  0.3981 -0.4890
19982TIP3    H281438   3.983   0.352   2.297  2.0149  0.3229  0.8385
19983TIP3   OH281439   1.914   6.152   0.878 -0.2051 -0.0514 -0.2943
19983TIP3    H181440   1.865   6.079   0.916 -1.5835  0.6453 -0.6875
19983TIP3    H281441   2.006   6.127   0.890 -0.6197 -2.3366 -1.3454
19984TIP3   OH281442   3.394   6.141  11.892 -0.2056  0.2868  0.4539
19984TIP3    H181443   3.407   6.076  11.823 -0.5093 -1.7216  2.1773
19984TIP3    H281444   3.456   6.116  11.960 -0.7944  1.4207  1.4361
19985TIP3   OH281445   0.221   1.911   1.248 -0.8206 -0.3557  0.0315
19985TIP3    H181446   0.187   1.981   1.304 -1.3047  0.2477 -0.9858
19985TIP3    H281447   0.194   1.831   1.292  0.3949  0.0315  1.6305
19986TIP3   OH281448   5.667   2.299  16.658 -0.3939  0.1679  0.6594
19986TIP3    H181449   5.674   2.207  16.685  2.5565 -0.0513 -0.4357
19986TIP3    H281450   5.657   2.348  16.739 -0.5278 -1.0216  1.3809
19987TIP3   OH281451   1.426   3.454  16.432  0.1640  0.7939  0.2563
19987TIP3    H181452   1.470   3.447  16.347  0.8513  0.8348  0.5998
19987TIP3    H281453   1.497   3.462  16.495 -0.3495  1.0855  0.8103
19988TIP3   OH281454   2.553   5.033   5.584 -0.6250 -0.4214 -0.1369
19988TIP3    H181455   2.475   5.084   5.606 -1.1085 -1.4937  0.7440
19988TIP3    H281456   2.548   4.957   5.641  0.5139 -1.0407 -0.8345
19989TIP3   OH281457   6.802   1.737  15.326 -0.3675  0.6242  0.1652
19989TIP3    H181458   6.796   1.659  15.270 -0.6175  2.2399 -2.2465
19989TIP3    H281459   6.896   1.757  15.330 -0.3529  0.5301  0.2758
19990TIP3   OH281460   3.191   4.207   0.112 -0.1380 -0.1872 -0.0397
19990TIP3    H181461   3.101   4.176   0.111 -0.4555  0.6341  1.2032
19990TIP3    H281462   3.237   4.146   0.170 -0.9143  1.8702  2.9864
19991TIP3   OH281463   5.354   1.142   0.968 -0.0343  0.2981  0.0091
19991TIP3    H181464   5.426   1.115   0.912  1.0822  0.8402  1.1317
19991TIP3    H281465   5.344   1.236   0.952  0.6506  0.5755  1.0447
19992TIP3   OH281466   3.734   0.285   3.668  0.6420 -0.3172 -0.2581
19992TIP3    H181467   3.719   0.354   3.603  0.8862 -0.0798 -0.0632
19992TIP3    H281468   3.790   0.222   3.623 -0.0381 -0.6653 -0.6235
19993TIP3   OH281469   3.150   5.579  15.903 -0.1618  0.5911 -0.0939
19993TIP3    H181470   3.104   5.580  15.819 -3.1941  2.0701  1.4067
19993TIP3    H281471   3.161   5.672  15.925 -0.4886  0.2587  1.6296
19994TIP3   OH281472   4.078   1.457  12.354 -0.1519  0.0128 -0.0002
19994TIP3    H181473   4.084   1.515  12.431 -0.6976 -0.4968  0.4310
19994TIP3    H281474   4.154   1.399  12.362 -0.6419 -0.5595  0.5924
19995TIP3   OH281475   4.826   2.874   2.679 -0.2377  0.2043  0.0932
19995TIP3    H181476   4.808   2.912   2.593 -2.4604  3.2728  1.7568
19995TIP3    H281477   4.774   2.793   2.680  1.3861 -0.9869 -2.0451
19996TIP3   OH281478   1.600   1.560  15.438 -0.3406 -0.2768  0.1991
19996TIP3    H181479   1.662   1.616  15.392  1.1119 -1.8408  0.1139
19996TIP3    H281480   1.548   1.519  15.370 -0.9229  0.4165  0.2197
19997TIP3   OH281481   6.685   1.196  12.198 -0.1910  0.0386 -0.2782
19997TIP3    H181482   6.629   1.141  12.143  0.2495  0.6161 -1.3205
19997TIP3    H281483   6.749   1.234  12.138  1.5221 -0.8247  0.9300
19998TIP3   OH281484   0.392   6.560  11.613  0.5067  0.5671  0.7843
19998TIP3    H181485   0.346   6.642  11.593 -0.2683  0.6094  2.5722
19998TIP3    H281486   0.462   6.586  11.672  0.0935 -0.0755  1.5687
19999TIP3   OH281487   4.953   4.213  11.801  0.0943 -0.3800  0.3996
19999TIP3    H181488   5.002   4.271  11.860  3.3330  0.4472 -2.6781
19999TIP3    H281489   5.001   4.130  11.804  0.3645 -0.3046 -0.9638
20000TIP3   OH281490   4.409   0.530  14.548 -0.1866 -0.1758  0.1057
20000TIP3    H181491   4.328   0.481  14.560  1.0366 -1.6654  3.6185
20000TIP3    H281492   4.452   0.487  14.474 -0.5720 -2.5121  1.1450
20001TIP3   OH281493   2.583   3.175  11.417 -0.1259 -0.4691  0.4841
20001TIP3    H181494   2.515   3.109  11.430  0.7818 -1.3087  1.1228
20001TIP3    H281495   2.563   3.243  11.480 -0.7400 -0.4086  0.2261
20002TIP3   OH281496   3.793   3.881   5.955  0.4749  0.2418 -0.0901
20002TIP3    H181497   3.739   3.837   5.889  0.1782  2.0027 -1.0747
20002TIP3    H281498   3.738   3.951   5.988  1.2116  0.3764  0.8863
20003TIP3   OH281499   3.008   1.886  17.120 -0.3786  0.1734  0.1845
20003TIP3    H181500   3.087   1.832  17.116  0.0382  0.5222  2.2528
20003TIP3    H281501   3.012   1.941  17.042 -0.4496 -2.2193 -1.6245
20004TIP3   OH281502   0.677   2.889   0.510 -0.5109 -0.1640 -0.5982
20004TIP3    H181503   0.650   2.806   0.471  0.3874 -0.4797 -0.5699
20004TIP3    H281504   0.746   2.921   0.452  0.1525 -0.1566  0.1724
20005TIP3   OH281505   3.786   0.647  16.196 -0.3667 -0.0539  0.1014
20005TIP3    H181506   3.867   0.599  16.214  0.1540 -1.0901 -3.9830
20005TIP3    H281507   3.815   0.734  16.169 -1.1107  1.5060  3.6855
20006TIP3   OH281508   3.732   5.088  16.648  0.3737 -0.2452  0.2897
20006TIP3    H181509   3.749   5.182  16.650  2.1277 -0.5388  1.7807
20006TIP3    H281510   3.798   5.053  16.589 -0.5914 -0.5238 -0.6597
20007TIP3   OH281511   1.045   0.742  16.004 -0.1737  0.1165 -0.2298
20007TIP3    H181512   1.066   0.700  16.088  2.5967 -0.7839 -1.2624
20007TIP3    H281513   1.077   0.832  16.013  0.2341 -0.0158 -0.3728
20008TIP3   OH281514   0.077   1.941  16.672  0.1168  0.4961 -0.2307
20008TIP3    H181515   0.029   1.934  16.754 -0.8400  2.3440 -0.5648
20008TIP3    H281516   0.162   1.901  16.690 -0.8465 -1.1214  0.9510
20009TIP3   OH281517   0.538   2.031  15.263  0.0082  0.0016  0.1681
20009TIP3    H181518   0.538   1.940  15.232 -1.0465 -0.2083  0.7352
20009TIP3    H281519   0.623   2.042  15.305 -0.6810 -1.4546  2.0855
20010TIP3   OH281520   0.743   4.107   2.027  0.5714  0.2957  0.0130
20010TIP3    H181521   0.770   4.015   2.025  1.4328  0.5025  0.9034
20010TIP3    H281522   0.718   4.127   1.937 -1.4520 -1.3159  0.1505
20011TIP3   OH281523   0.809   1.613  10.611  0.1824 -0.2207 -0.1898
20011TIP3    H181524   0.896   1.589  10.643  0.7336  0.0895 -1.4108
20011TIP3    H281525   0.823   1.640  10.520 -0.7913  2.2391  0.2977
20012TIP3   OH281526   6.585   5.838   4.023 -0.3860 -0.4055  0.0236
20012TIP3    H181527   6.583   5.790   4.106 -1.2561 -1.2248 -0.4542
20012TIP3    H281528   6.589   5.930   4.049 -4.2369 -0.3510  1.1511
20013TIP3   OH281529   2.552   0.140   4.757 -0.1329  0.0837 -0.1202
20013TIP3    H181530   2.579   0.197   4.685  0.2744 -0.2689 -0.2520
20013TIP3    H281531   2.514   0.064   4.714 -0.3800  0.1134  0.0474
20014TIP3   OH281532   3.485   4.556  13.000 -0.1754 -0.2664 -0.4376
20014TIP3    H181533   3.460   4.463  13.001  1.1891 -0.6599 -0.4764
20014TIP3    H281534   3.437   4.595  13.073  0.1962 -1.2875  0.3796
20015TIP3   OH281535   1.640   0.897  11.341 -0.0363 -0.5037  0.0732
20015TIP3    H181536   1.652   0.992  11.340  2.8597 -0.7778 -1.5059
20015TIP3    H281537   1.688   0.867  11.418  0.1738 -0.7878 -0.1662
20016TIP3   OH281538   1.684   2.169   1.637 -0.2948  0.2876  0.0021
20016TIP3    H181539   1.768   2.133   1.665 -0.2127  0.1133 -0.4469
20016TIP3    H281540   1.622   2.098   1.648 -0.2985  0.2786 -0.0757
20017TIP3   OH281541   4.299   2.893  14.494  0.4131  0.1450 -0.0832
20017TIP3    H181542   4.219   2.867  14.450  1.4731  0.8130 -2.5679
20017TIP3    H281543   4.339   2.811  14.522 -0.4792 -0.2646  0.0288
20018TIP3   OH281544   6.343   5.970   3.284  0.2483  0.0770 -0.0618
20018TIP3    H181545   6.318   5.878   3.294  1.5432 -0.2224  0.8019
20018TIP3    H281546   6.298   6.015   3.355  0.2045 -0.0212 -0.0271
20019TIP3   OH281547   1.403   4.853   3.072  0.2126  0.1612  0.3716
20019TIP3    H181548   1.383   4.912   2.999  1.1397  0.0584  0.0230
20019TIP3    H281549   1.480   4.805   3.044 -0.3335 -1.0017  0.7894
20020TIP3   OH281550   6.436   6.725   2.331  0.1152 -0.1667 -0.2118
20020TIP3    H181551   6.486   6.676   2.397 -0.6574  0.5418  0.9489
20020TIP3    H281552   6.398   6.798   2.380 -3.5843 -1.6705 -0.5569
20021TIP3   OH281553   5.352   2.059  13.855  0.5182 -0.3015 -0.2248
20021TIP3    H181554   5.383   1.972  13.830  2.0052  0.3964 -0.9210
20021TIP3    H281555   5.336   2.052  13.950  0.0599 -1.4666 -0.3673
20022TIP3   OH281556   4.895   0.453  16.750 -0.4771 -0.3520 -0.6895
20022TIP3    H181557   4.803   0.436  16.728 -0.2428 -1.9896 -0.5547
20022TIP3    H281558   4.902   0.548  16.752 -2.6221 -0.1521  1.1799
20023TIP3   OH281559   2.228   1.739  12.693  0.1941 -0.1699  0.1126
20023TIP3    H181560   2.282   1.810  12.657  0.7351 -0.2978  0.6561
20023TIP3    H281561   2.232   1.751  12.788 -0.2866 -0.5135  0.1795
20024TIP3   OH281562   5.419   5.991  12.784 -0.0359  0.0940 -0.0014
20024TIP3    H181563   5.512   5.993  12.805 -0.1530  0.0388  0.5228
20024TIP3    H281564   5.378   5.947  12.859 -0.2581 -1.5833 -1.0383
20025TIP3   OH281565   3.863   0.699   5.703 -0.5400 -0.1703 -0.5079
20025TIP3    H181566   3.906   0.645   5.637  0.3951 -0.3536  0.2295
20025TIP3    H281567   3.773   0.667   5.705 -0.0690 -1.5712 -0.2471
20026TIP3   OH281568   3.484   3.151   2.497 -0.5331  0.1764 -0.5172
20026TIP3    H181569   3.488   3.241   2.465  0.2681 -0.0530 -1.0825
20026TIP3    H281570   3.498   3.158   2.592 -0.4216  0.6415 -0.5681
20027TIP3   OH281571   5.557   5.501   5.429 -0.0000  0.7729 -0.1632
20027TIP3    H181572   5.533   5.589   5.401 -0.9931  0.1889 -1.2209
20027TIP3    H281573   5.646   5.489   5.397 -0.5363  0.7169 -1.7291
20028TIP3   OH281574   2.763   5.872   4.072 -0.6449  0.3376  0.1703
20028TIP3    H181575   2.728   5.784   4.080  1.2745 -0.4890 -0.1142
20028TIP3    H281576   2.832   5.877   4.138  0.0738  1.2130 -0.6191
20029TIP3   OH281577   3.230   5.787  16.584 -0.1209 -0.2388 -0.3008
20029TIP3    H181578   3.204   5.775  16.676 -0.2042 -1.1560 -0.4309
20029TIP3    H281579   3.174   5.858  16.552 -0.0391  0.1345  0.3769
20030TIP3   OH281580   5.983   6.075   1.329  0.2637  0.0421 -0.2655
20030TIP3    H181581   6.037   6.021   1.272  0.6341 -1.3502  1.3285
20030TIP3    H281582   6.034   6.156   1.341  0.9357 -0.3277 -0.5808
20031TIP3   OH281583   1.749   4.588  15.940  0.0097 -0.4940  0.0861
20031TIP3    H181584   1.716   4.623  15.858 -0.8737 -1.5145 -0.0102
20031TIP3    H281585   1.689   4.516  15.962  0.7894 -0.8570  1.1240
20032TIP3   OH281586   6.113   2.354   2.482  0.2315  0.0201  0.0427
20032TIP3    H181587   6.075   2.336   2.567  0.6907 -1.5276 -0.0527
20032TIP3    H281588   6.189   2.409   2.501  1.4661 -1.8794  0.8741
20033TIP3   OH281589   2.552   3.124  12.965  0.1662 -0.4073 -0.1186
20033TIP3    H181590   2.492   3.181  12.917  0.5399 -2.3443 -3.1877
20033TIP3    H281591   2.616   3.183  13.005 -3.0808  1.6904  2.5489
20034TIP3   OH281592   1.052   3.969  13.928 -0.6069  0.2748 -0.3016
20034TIP3    H181593   0.985   3.922  13.979  1.2153 -0.5631  1.4750
20034TIP3    H281594   1.118   3.903  13.909  1.3876  1.7524  1.0887
20035TIP3   OH281595   3.609   6.682   5.518 -0.3681  0.2809 -0.2538
20035TIP3    H181596   3.685   6.675   5.575 -1.0399  2.2449  0.9535
20035TIP3    H281597   3.534   6.681   5.577 -1.1169  1.6187 -1.1361
20036TIP3   OH281598   2.183   6.394   5.374  0.5095  0.6218  0.2171
20036TIP3    H181599   2.149   6.386   5.285  0.7879 -0.1355  0.1677
20036TIP3    H281600   2.146   6.475   5.407  0.6516  1.0745 -0.6982
20037TIP3   OH281601   6.541   6.657   3.142  0.3024 -0.0022 -0.3193
20037TIP3    H181602   6.476   6.719   3.111  0.5565  0.3494 -0.1668
20037TIP3    H281603   6.578   6.618   3.063 -0.6250 -0.7744 -0.3911
20038TIP3   OH281604   1.996   3.880  12.022 -0.2074 -0.1869 -0.0485
20038TIP3    H181605   2.088   3.907  12.027 -0.4798  0.6435  0.7536
20038TIP3    H281606   1.999   3.785  12.023  0.6601 -0.1712 -0.3360
20039TIP3   OH281607   5.884   6.425   2.873  0.8445  0.3273 -0.0898
20039TIP3    H181608   5.953   6.487   2.850  1.2941  0.1659  0.7926
20039TIP3    H281609   5.931   6.343   2.892  0.4393  0.2795  0.7414
20040TIP3   OH281610   0.907   2.819   4.683  0.1276  0.0976 -0.1618
20040TIP3    H181611   0.902   2.826   4.588 -1.5397 -1.8494 -0.2810
20040TIP3    H281612   0.999   2.804   4.702  0.4331  0.2338 -1.4924
20041TIP3   OH281613   3.699   2.526   2.929 -0.4425  0.0800  0.2975
20041TIP3    H181614   3.746   2.503   2.849  0.5361  0.9302  0.6087
20041TIP3    H281615   3.607   2.525   2.904 -0.0869  1.8394 -1.2669
20042TIP3   OH281616   5.369   0.148   1.214  0.1686 -0.1124 -0.2690
20042TIP3    H181617   5.352   0.237   1.245 -0.1714 -0.0161 -0.7323
20042TIP3    H281618   5.319   0.140   1.133 -0.0920 -0.8517 -0.0431
20043TIP3   OH281619   6.338   1.036   4.797 -0.0308 -0.0221  0.4735
20043TIP3    H181620   6.258   0.989   4.820 -0.2327 -0.9183 -1.7726
20043TIP3    H281621   6.364   0.998   4.713  1.7680  1.5048  0.2839
20044TIP3   OH281622   4.132   5.895   4.325 -0.0341 -0.2413  0.6787
20044TIP3    H181623   4.208   5.929   4.374  0.7390 -1.4728  0.3735
20044TIP3    H281624   4.156   5.805   4.303 -1.4553 -0.5420  0.2681
20045TIP3   OH281625   0.988   2.925  16.561  0.5384  0.1920  0.5040
20045TIP3    H181626   1.041   2.884  16.629  0.9674 -0.5606 -0.2694
20045TIP3    H281627   0.898   2.916  16.592  0.3544 -3.5366 -0.6948
20046TIP3   OH281628   2.799   2.863  12.465 -0.1380  0.0504  0.0137
20046TIP3    H181629   2.894   2.875  12.473  0.0893  1.3379 -2.9741
20046TIP3    H281630   2.763   2.949  12.484 -0.4787  0.0935 -0.7585
20047TIP3   OH281631   2.484   6.540  13.196 -0.1194  0.1418 -0.3047
20047TIP3    H181632   2.528   6.505  13.273 -0.8877  1.0591  0.5869
20047TIP3    H281633   2.546   6.528  13.125 -0.4744 -3.3590 -0.1952
20048TIP3   OH281634   2.059   1.573  17.193  0.6693  0.4830 -0.3260
20048TIP3    H181635   2.039   1.555  17.101 -1.8635  0.4365  0.1475
20048TIP3    H281636   2.059   1.487  17.235 -0.3441  0.6398  0.0387
20049TIP3   OH281637   0.912   4.077   6.372  0.2397 -0.0085  0.3388
20049TIP3    H181638   0.995   4.101   6.412 -0.2472  1.7660  0.3705
20049TIP3    H281639   0.889   4.152   6.317 -1.4138 -0.3687  0.4814
20050TIP3   OH281640   6.440   5.541   5.594  0.0414 -0.6016 -0.4840
20050TIP3    H181641   6.473   5.499   5.674 -0.0116 -0.6152 -0.4686
20050TIP3    H281642   6.492   5.620   5.585 -2.2943  1.3656  1.5927
20051TIP3   OH281643   4.566   6.680   3.913  0.2389  0.4343  0.0184
20051TIP3    H181644   4.574   6.644   3.825  0.3104  0.6580 -0.0681
20051TIP3    H281645   4.471   6.689   3.927  0.2480  2.6403 -0.9715
20052TIP3   OH281646   0.869   2.073  12.263  1.0028 -0.0019  0.2872
20052TIP3    H181647   0.899   1.995  12.310 -0.3200 -0.4084  0.4864
20052TIP3    H281648   0.888   2.055  12.171 -1.3606 -1.5823  0.0472
20053TIP3   OH281649   0.375   4.957   3.538  0.4200 -0.4237 -0.0525
20053TIP3    H181650   0.301   4.973   3.479 -0.0220  0.2637  0.6694
20053TIP3    H281651   0.375   4.862   3.552 -1.9051 -0.2422  1.8967
20054TIP3   OH281652   1.127   4.545  13.189  0.6720  0.0820  0.2842
20054TIP3    H181653   1.137   4.451  13.205  0.7869 -0.0013 -0.2847
20054TIP3    H281654   1.109   4.582  13.276 -2.2904 -0.8049  0.1427
20055TIP3   OH281655   1.124   0.349   1.517 -0.1987 -0.3684  0.1444
20055TIP3    H181656   1.125   0.440   1.488  0.8230 -0.1028  0.9821
20055TIP3    H281657   1.204   0.311   1.482 -1.0401 -1.2203 -0.9601
20056TIP3   OH281658   5.322   4.286  12.646  0.7072 -0.4955  0.1175
20056TIP3    H181659   5.361   4.279  12.559  0.0952 -0.4391 -0.1695
20056TIP3    H281660   5.270   4.366  12.642  0.7812 -0.4236  0.5796
20057TIP3   OH281661   3.042   1.091  17.143  0.5523 -0.1128  0.0885
20057TIP3    H181662   3.000   1.177  17.135 -0.0400 -0.2258  1.7220
20057TIP3    H281663   3.121   1.099  17.090 -0.1657  0.9892 -0.8695
20058TIP3   OH281664   5.897   3.967   5.764 -0.1432  0.5482 -0.4342
20058TIP3    H181665   5.900   3.916   5.683 -3.0091  0.8822 -0.8711
20058TIP3    H281666   5.986   3.999   5.776  0.7750 -1.0747 -2.4219
20059TIP3   OH281667   2.658   5.454   4.795  0.1370  0.0519 -0.2176
20059TIP3    H181668   2.698   5.369   4.812  0.8603  0.3320 -0.5029
20059TIP3    H281669   2.582   5.433   4.741 -0.0231 -0.4661  0.1976
20060TIP3   OH281670   5.322   1.601   5.673 -0.3668 -0.3454 -0.1826
20060TIP3    H181671   5.330   1.528   5.736 -0.5331  0.4721  0.8121
20060TIP3    H281672   5.396   1.658   5.694 -0.6089  0.0932 -0.5178
20061TIP3   OH281673   1.025   1.427   4.486  0.3939  0.2409  0.1115
20061TIP3    H181674   0.999   1.426   4.578 -2.4724  0.3973 -0.5997
20061TIP3    H281675   1.120   1.439   4.488  0.1007  3.7826  2.9769
20062TIP3   OH281676   2.496   5.122   5.345 -0.0986 -0.1436  0.0126
20062TIP3    H181677   2.452   5.053   5.294  0.5102 -0.8619  0.4376
20062TIP3    H281678   2.521   5.078   5.427  3.3052 -0.3937 -1.0288
20063TIP3   OH281679   2.272   2.855   5.271  0.5188  0.2685 -0.0140
20063TIP3    H181680   2.224   2.840   5.190  0.6606 -1.0300  0.1344
20063TIP3    H281681   2.322   2.936   5.254  0.6957 -0.0842 -1.2856
20064TIP3   OH281682   6.213   2.738  12.433 -0.1550  0.0535 -0.8894
20064TIP3    H181683   6.188   2.817  12.481 -4.2143 -1.0909 -0.6848
20064TIP3    H281684   6.276   2.694  12.490  0.2653  1.8967  0.1652
20065TIP3   OH281685   3.576   6.174   5.321  0.1391  0.1204  0.1869
20065TIP3    H181686   3.576   6.269   5.324 -1.8853  0.2277 -1.2658
20065TIP3    H281687   3.617   6.152   5.238  0.6452 -0.3019  0.5365
20066TIP3   OH281688   3.573   2.673  16.653 -0.0736  0.3572  0.6701
20066TIP3    H181689   3.589   2.719  16.736 -0.7217  0.6093  0.6628
20066TIP3    H281690   3.572   2.743  16.587 -0.7708  0.3019  0.6178
20067TIP3   OH281691   1.307   1.700   4.728  0.4759  0.3232 -0.3490
20067TIP3    H181692   1.321   1.784   4.771  2.1655 -0.5605  0.9649
20067TIP3    H281693   1.262   1.647   4.793  0.6197 -0.1938 -0.6637
20068TIP3   OH281694   1.457   1.500  11.400 -0.1762  0.5187  0.3359
20068TIP3    H181695   1.535   1.527  11.351 -1.6610  1.6694 -1.5727
20068TIP3    H281696   1.487   1.427  11.454  1.9466  0.1021 -1.2414
20069TIP3   OH281697   5.456   0.849   3.610 -0.2680  0.5370 -0.4813
20069TIP3    H181698   5.387   0.903   3.571  0.2905  0.3652 -1.7538
20069TIP3    H281699   5.521   0.840   3.540  0.2551 -0.6942  0.1509
20070TIP3   OH281700   1.773   0.256   3.998 -0.5235 -0.1193  0.2296
20070TIP3    H181701   1.828   0.261   3.920 -1.2436 -0.4824 -0.3067
20070TIP3    H281702   1.829   0.214   4.064  0.5767  1.4414  0.3699
20071TIP3   OH281703   6.246   1.936  12.941 -0.0809 -0.1411  0.0250
20071TIP3    H181704   6.296   1.902  13.016  0.5127 -2.3493 -1.2815
20071TIP3    H281705   6.185   1.866  12.919 -2.6433  1.8284  0.4830
20072TIP3   OH281706   3.062   2.315   0.705  0.0229 -0.5154  0.3565
20072TIP3    H181707   2.977   2.285   0.674  0.8169 -1.5147 -0.9523
20072TIP3    H281708   3.118   2.237   0.701  1.3416  0.4129 -0.1507
20073TIP3   OH281709   5.464   5.389  13.746  0.6166 -0.8953  0.2541
20073TIP3    H181710   5.517   5.468  13.750 -1.2449  0.3674  1.1475
20073TIP3    H281711   5.450   5.364  13.837 -1.2381 -0.5257  0.0979
20074TIP3   OH281712   1.469   1.138  15.489 -0.1116  0.4916 -0.4407
20074TIP3    H181713   1.425   1.220  15.513 -1.4548 -0.2098 -0.3774
20074TIP3    H281714   1.464   1.084  15.568 -1.6617 -0.6235 -1.2317
20075TIP3   OH281715   6.701   3.904  16.673  0.6924  0.0742  0.4429
20075TIP3    H181716   6.789   3.926  16.704  0.5595  1.7677 -0.2797
20075TIP3    H281717   6.643   3.964  16.719 -0.2280 -1.5404  1.5008
20076TIP3   OH281718   2.411   3.650  13.881 -0.6081  0.2586 -0.6593
20076TIP3    H181719   2.322   3.686  13.872 -1.0224 -0.9522 -1.5812
20076TIP3    H281720   2.423   3.594  13.804  1.8023  2.0927 -1.7506
20077TIP3   OH281721   6.441   1.595   5.593  0.2050 -0.3508  0.3684
20077TIP3    H181722   6.406   1.524   5.646  0.6496 -1.2609 -0.5414
20077TIP3    H281723   6.536   1.584   5.597  0.2440 -0.3839 -0.5519
20078TIP3   OH281724   6.091   1.876   0.288 -0.7649  0.0230  0.5917
20078TIP3    H181725   6.110   1.850   0.378  0.2150 -0.3747  0.2932
20078TIP3    H281726   6.080   1.793   0.241 -0.5361  0.2071  0.2023
20079TIP3   OH281727   6.299   2.111   0.916 -0.8122 -0.2335  0.4854
20079TIP3    H181728   6.309   2.141   1.006 -0.8146  1.0748  0.0684
20079TIP3    H281729   6.289   2.191   0.865  2.7755 -0.6535 -1.1680
20080TIP3   OH281730   1.852   0.514  14.561  0.4510  0.0981 -0.9634
20080TIP3    H181731   1.945   0.521  14.585  0.2890 -0.5063 -0.0901
20080TIP3    H281732   1.830   0.422  14.576 -0.7307  0.5859  0.6183
20081TIP3   OH281733   0.982   2.427  13.043  0.0456  0.9456 -0.0217
20081TIP3    H181734   0.960   2.519  13.052  2.3391  1.5443  0.0666
20081TIP3    H281735   1.075   2.422  13.065  0.6518 -0.9548 -2.5383
20082TIP3   OH281736   4.482   3.941   0.701 -0.0000  0.0427  0.2919
20082TIP3    H181737   4.528   4.000   0.760  2.1414  0.4917 -1.6590
20082TIP3    H281738   4.518   3.962   0.614 -0.2175 -3.1238 -0.6891
20083TIP3   OH281739   2.078   0.429   6.220  0.2533  0.3322 -0.5450
20083TIP3    H181740   2.087   0.385   6.304 -1.2367 -0.2059 -0.6330
20083TIP3    H281741   2.164   0.420   6.178  0.2910 -1.6180 -0.1275
20084TIP3   OH281742   0.000   5.503  13.487 -0.4073 -0.0263  0.2121
20084TIP3    H181743   0.016   5.467  13.400  0.4713 -2.3262  1.2316
20084TIP3    H281744  -0.093   5.526  13.487 -0.3116  0.4464 -1.4608
20085TIP3   OH281745   5.808   0.365   3.370 -0.3386 -0.3414  0.5330
20085TIP3    H181746   5.728   0.352   3.420 -1.2975  1.8427 -0.3036
20085TIP3    H281747   5.778   0.373   3.279  0.3307  3.2929  0.4539
20086TIP3   OH281748   6.503   3.261  11.241  0.5747  0.4717  0.2965
20086TIP3    H181749   6.531   3.170  11.248  1.7525  0.8477  0.7941
20086TIP3    H281750   6.558   3.297  11.171  0.0016  0.7653 -0.0101
20087TIP3   OH281751   0.077   1.355  12.118 -0.0343  0.0891 -0.4313
20087TIP3    H181752   0.096   1.408  12.195  1.4346  0.0307 -0.7248
20087TIP3    H281753   0.098   1.412  12.044 -0.6111 -0.1386 -0.7717
20088TIP3   OH281754   1.123   4.752   3.614  0.3203  0.1314  0.7078
20088TIP3    H181755   1.112   4.792   3.700 -1.8308  2.9997 -0.7057
20088TIP3    H281756   1.086   4.665   3.623 -2.0546  1.1955  2.1948
20089TIP3   OH281757   4.612   4.158  13.071 -0.2379  0.3148  0.4666
20089TIP3    H181758   4.619   4.143  12.976 -0.3902  0.8027  0.3752
20089TIP3    H281759   4.661   4.086  13.110  0.8669  0.7876 -0.0110
20090TIP3   OH281760   0.380   2.389   1.269 -0.2249  0.4983 -0.1443
20090TIP3    H181761   0.371   2.348   1.355  1.6137  0.2873 -0.0131
20090TIP3    H281762   0.459   2.442   1.276 -0.2342  0.7469 -1.6073
20091TIP3   OH281763   2.100   2.265  15.398  0.1210  0.5050 -0.1438
20091TIP3    H181764   2.147   2.324  15.456 -1.9731  1.1888  0.9441
20091TIP3    H281765   2.116   2.299  15.310 -0.2005  2.0860  0.3865
20092TIP3   OH281766   3.047   0.834   2.850 -0.1539  0.4010  0.1794
20092TIP3    H181767   3.055   0.893   2.925  1.0185  1.1250 -0.4991
20092TIP3    H281768   3.006   0.887   2.782  1.5616  0.7043 -0.6704
20093TIP3   OH281769   4.634   0.745   2.379 -0.3200  0.5066 -0.2811
20093TIP3    H181770   4.708   0.684   2.381 -1.1670 -0.5483 -0.3311
20093TIP3    H281771   4.557   0.689   2.369 -0.9993  1.6944 -1.9898
20094TIP3   OH281772   0.273   5.203  16.023 -0.2610 -0.6059 -0.0841
20094TIP3    H181773   0.290   5.120  16.067 -0.9373 -0.7238 -0.0434
20094TIP3    H281774   0.234   5.179  15.939  0.7503 -0.3712 -0.6434
20095TIP3   OH281775   3.435   5.685  15.362 -0.2646 -0.6243 -0.3864
20095TIP3    H181776   3.508   5.685  15.301 -1.1383  0.6317 -1.4882
20095TIP3    H281777   3.357   5.686  15.306 -1.1117 -1.2018  0.7551
20096TIP3   OH281778   4.593   0.392   3.510  0.0211  0.6925 -0.1405
20096TIP3    H181779   4.526   0.399   3.578  1.3953  1.0173  1.2401
20096TIP3    H281780   4.650   0.321   3.539  0.3280  0.4667 -1.2518
20097TIP3   OH281781   5.249   3.837   1.840 -0.1466 -0.2940 -0.5663
20097TIP3    H181782   5.254   3.743   1.825 -1.5101 -0.6999  1.1381
20097TIP3    H281783   5.185   3.869   1.777  1.0572 -0.3082 -1.8254
20098TIP3   OH281784   2.082   5.120   2.432  0.0694  0.0243  0.1978
20098TIP3    H181785   2.078   5.042   2.376  0.1365 -0.4378  0.8270
20098TIP3    H281786   1.991   5.138   2.455  0.1629 -0.7667  1.2597
20099TIP3   OH281787   1.332   3.629   0.404 -0.0999  0.1424 -0.5299
20099TIP3    H181788   1.345   3.579   0.484  1.8469  0.1309 -0.8199
20099TIP3    H281789   1.238   3.620   0.385 -0.3256 -0.9775  0.9845
20100TIP3   OH281790   5.496   5.857  14.096 -0.0749 -0.5302  0.0662
20100TIP3    H181791   5.419   5.876  14.149  0.5259  0.6976  0.5390
20100TIP3    H281792   5.566   5.841  14.160  0.1289 -1.4244 -0.3581
20101TIP3   OH281793   0.062   4.072   0.562  0.0618 -0.7568 -0.0880
20101TIP3    H181794   0.001   4.048   0.631  1.1108  0.9431  1.4974
20101TIP3    H281795   0.136   4.112   0.607 -0.3264  2.8599 -2.2931
20102TIP3   OH281796   2.290   3.384   5.450  0.0408 -0.2967 -0.2990
20102TIP3    H181797   2.198   3.377   5.478  0.2123 -0.6607  0.1904
20102TIP3    H281798   2.339   3.397   5.531  0.6920 -2.6530 -0.2286
20103TIP3   OH281799   5.524   6.376   3.490 -0.4523  0.7284 -0.6731
20103TIP3    H181800   5.617   6.354   3.495 -0.7711 -1.1860 -2.2980
20103TIP3    H281801   5.482   6.298   3.455 -2.4459  2.1519 -1.6509
20104TIP3   OH281802   2.113   5.815   2.405  0.2687 -0.2197  0.3177
20104TIP3    H181803   2.062   5.843   2.481  1.2438 -0.3939  1.0416
20104TIP3    H281804   2.047   5.780   2.345 -0.5687  0.3810  0.8583
20105TIP3   OH281805   1.903   0.026   0.415  0.0327 -0.4546 -0.4523
20105TIP3    H181806   1.983   0.017   0.466  0.6920 -0.2133 -1.4303
20105TIP3    H281807   1.852   0.093   0.462  0.2112 -0.8990  0.3925
20106TIP3   OH281808   2.173   2.440  11.399 -0.3792  0.5449 -0.0002
20106TIP3    H181809   2.204   2.425  11.488  0.6453  0.1126 -0.4180
20106TIP3    H281810   2.092   2.390  11.392 -0.8697  1.1907  0.9178
20107TIP3   OH281811   5.265   2.598  13.309  0.7653 -0.1107  0.5282
20107TIP3    H181812   5.347   2.580  13.354  0.4710 -0.5093  0.9195
20107TIP3    H281813   5.284   2.582  13.216  0.5861 -2.3502  0.8139
20108TIP3   OH281814   5.114   5.010   1.321 -0.3533 -0.3282 -0.1416
20108TIP3    H181815   5.164   5.064   1.383  0.5794  1.4968 -2.3348
20108TIP3    H281816   5.023   5.025   1.345 -0.0282  0.5648  0.6254
20109TIP3   OH281817   5.446   2.196   6.678 -0.3983  0.6560  0.1740
20109TIP3    H181818   5.475   2.205   6.769 -0.2225  0.4446  0.1382
20109TIP3    H281819   5.367   2.251   6.673  0.6180  2.1634 -0.0151
20110TIP3   OH281820   2.042   4.842  13.190  0.1658  0.1469  0.6701
20110TIP3    H181821   2.071   4.840  13.282  0.7373 -1.3760  0.4981
20110TIP3    H281822   2.018   4.751  13.172 -1.8403  0.7951 -0.1328
20111TIP3   OH281823   5.366   5.537   2.906 -0.0013 -0.2198  0.0311
20111TIP3    H181824   5.389   5.550   2.814 -2.7084  3.0488 -0.3956
20111TIP3    H281825   5.278   5.499   2.904  0.0652 -0.4978  1.2902
20112TIP3   OH281826   1.453   5.286  11.721 -0.6320  0.5612 -0.0199
20112TIP3    H181827   1.469   5.372  11.682 -0.4473 -0.8008 -3.3079
20112TIP3    H281828   1.528   5.271  11.778  1.0925  1.3208 -1.9379
20113TIP3   OH281829   4.631   3.974  12.243 -0.3069  0.2010 -0.3137
20113TIP3    H181830   4.645   3.965  12.149 -0.8033 -1.0200 -0.2903
20113TIP3    H281831   4.626   4.068  12.258  2.5533  0.5452 -1.0708
20114TIP3   OH281832   5.694   4.430   2.996 -0.1375  0.2105  0.5045
20114TIP3    H181833   5.745   4.351   2.977  0.9805  1.1288 -0.4771
20114TIP3    H281834   5.604   4.399   3.006 -0.2365 -0.9056 -2.7456
20115TIP3   OH281835   6.365   2.805  12.722 -0.4485  0.4484 -0.4876
20115TIP3    H181836   6.365   2.713  12.696 -2.9593  0.1059  0.4143
20115TIP3    H281837   6.355   2.853  12.640  1.6744  0.0120 -1.0482
20116TIP3   OH281838   3.990   5.901   3.574  0.0676 -0.4005  0.5098
20116TIP3    H181839   3.962   5.911   3.483  1.7552  0.5125  0.0468
20116TIP3    H281840   3.938   5.965   3.622  0.8138  0.7997 -0.2161
20117TIP3   OH281841   1.219   0.522  15.781  0.0636 -0.4012 -0.5218
20117TIP3    H181842   1.227   0.552  15.690 -1.5644  0.9818 -0.2472
20117TIP3    H281843   1.131   0.548  15.808  0.2432 -1.4367  1.2462
20118TIP3   OH281844   0.528   5.681   4.467  0.0670  0.6414 -0.3095
20118TIP3    H181845   0.485   5.630   4.398 -0.8827 -0.2940  0.9166
20118TIP3    H281846   0.483   5.765   4.466  0.3202  0.7748 -1.0764
20119TIP3   OH281847   5.776   0.749   5.517 -0.2497  0.3582 -0.0929
20119TIP3    H181848   5.871   0.760   5.523 -0.0962  1.7129 -3.1157
20119TIP3    H281849   5.740   0.822   5.567  0.3217  0.4300  0.2191
20120TIP3   OH281850   4.210   2.765   4.241  0.0586  0.2795  0.1556
20120TIP3    H181851   4.116   2.783   4.236 -0.3348 -1.8587 -2.6685
20120TIP3    H281852   4.248   2.814   4.167  1.1726  0.8654  1.0684
20121TIP3   OH281853   3.559   1.022   0.733 -0.3832  0.1354  0.2772
20121TIP3    H181854   3.577   1.116   0.721  0.0820 -0.1948 -2.2125
20121TIP3    H281855   3.620   0.979   0.673 -1.0165 -1.7294  0.9280
20122TIP3   OH281856   0.127   4.326  13.313  0.5868 -0.2244 -0.0755
20122TIP3    H181857   0.138   4.369  13.228  0.5870 -1.1298 -0.5538
20122TIP3    H281858   0.193   4.257  13.313 -0.0134 -0.8092  0.2721
20123TIP3   OH281859   5.027   4.370  14.028 -0.3224  0.4587  0.7143
20123TIP3    H181860   5.070   4.289  14.052 -3.2650 -1.4546  0.1056
20123TIP3    H281861   5.022   4.420  14.109  0.7744 -0.3448  1.2945
20124TIP3   OH281862   1.145   6.642   4.762 -0.1862  0.0859  0.0715
20124TIP3    H181863   1.184   6.723   4.794 -0.5896  0.5436 -0.5520
20124TIP3    H281864   1.058   6.639   4.803 -0.8743  0.8948 -1.2646
20125TIP3   OH281865   1.499   5.566  10.835  0.1636  0.2219  0.3109
20125TIP3    H181866   1.517   5.636  10.772  0.4614  0.8213  1.0442
20125TIP3    H281867   1.541   5.596  10.917 -1.9784  0.4610  1.3864
20126TIP3   OH281868   4.961   3.046  11.245 -0.0751 -0.1740  0.0841
20126TIP3    H181869   4.880   3.085  11.211  2.3533  2.2295 -3.6970
20126TIP3    H281870   4.945   2.952  11.243 -2.8471  0.2111 -0.2067
20127TIP3   OH281871   3.247   3.115  12.773  0.2510  0.4138  0.0365
20127TIP3    H181872   3.299   3.092  12.696  0.7785  1.2899  0.1202
20127TIP3    H281873   3.305   3.098  12.848  0.4077  1.3270  0.1333
20128TIP3   OH281874   3.191   4.017  12.905  0.2886  0.4484  0.4461
20128TIP3    H181875   3.253   4.050  12.840  0.1609  0.8981  0.5452
20128TIP3    H281876   3.167   4.095  12.956  0.7083  0.0283  1.2969
20129TIP3   OH281877   2.633   5.813  12.986 -0.4799  0.4420  0.0149
20129TIP3    H181878   2.587   5.795  12.905 -1.0903 -1.8540  0.8006
20129TIP3    H281879   2.566   5.811  13.054  0.5146 -2.0136  1.0616
20130TIP3   OH281880   3.787   2.145  16.487 -0.6527  0.4936 -0.3743
20130TIP3    H181881   3.832   2.224  16.457 -2.3197  0.9896 -1.6927
20130TIP3    H281882   3.811   2.078  16.422 -0.8746  0.4518 -0.4139
20131TIP3   OH281883   5.252   2.646   5.305 -0.3777 -0.6242 -0.3234
20131TIP3    H181884   5.337   2.639   5.348  0.2435 -0.2354 -1.4628
20131TIP3    H281885   5.259   2.592   5.227 -1.6476 -1.6870  0.2525
20132TIP3   OH281886   4.524   0.697   4.163 -0.1526 -0.3857 -0.1987
20132TIP3    H181887   4.521   0.792   4.157  0.2601 -0.4312 -1.3568
20132TIP3    H281888   4.479   0.676   4.245  0.1041  0.8222  0.2602
20133TIP3   OH281889   5.483   5.513   1.466 -0.3949  0.3150  0.8027
20133TIP3    H181890   5.553   5.460   1.428 -1.0855 -1.4157  1.8377
20133TIP3    H281891   5.449   5.563   1.392  1.5898  0.8533  0.1850
20134TIP3   OH281892   5.354   0.216  15.210 -0.4253 -0.1164  0.7860
20134TIP3    H181893   5.325   0.136  15.167  0.7748 -1.2402  1.9575
20134TIP3    H281894   5.275   0.255  15.246 -0.8740 -1.5198  1.3730
20135TIP3   OH281895   1.067   3.706   5.308  0.6462 -0.1408 -0.0185
20135TIP3    H181896   1.075   3.732   5.400  0.5874 -0.8001  0.1817
20135TIP3    H281897   0.976   3.725   5.285  0.2645 -1.2876  0.4889
20136TIP3   OH281898   2.937   5.912  12.863 -0.0368  0.3423  0.2571
20136TIP3    H181899   2.955   5.818  12.864 -0.5224  0.2390  1.4822
20136TIP3    H281900   2.842   5.918  12.878 -0.3076  0.9862 -1.5295
20137TIP3   OH281901   1.395   2.214  13.606  0.5250  0.0233  0.1853
20137TIP3    H181902   1.343   2.182  13.680 -0.0351 -1.5885 -0.8548
20137TIP3    H281903   1.479   2.237  13.644  0.1508 -0.5073  1.3774
20138TIP3   OH281904   2.656   1.248   5.151  0.3077  0.1123  0.6933
20138TIP3    H181905   2.716   1.299   5.206  2.9868 -1.5982 -0.4286
20138TIP3    H281906   2.639   1.305   5.076  2.3963 -0.1161 -0.0265
20139TIP3   OH281907   2.343   5.942   4.798 -0.4144  0.3648  0.3325
20139TIP3    H181908   2.256   5.937   4.837 -0.5662  3.0367  0.5603
20139TIP3    H281909   2.386   5.860   4.821 -2.7097 -0.8131  0.5930
20140TIP3   OH281910   5.781   4.516   0.009 -0.4231 -0.4664  0.7300
20140TIP3    H181911   5.834   4.484  -0.064 -3.1332 -1.5775 -0.9039
20140TIP3    H281912   5.781   4.611  -0.001  0.8778 -0.4588  0.5621
20141TIP3   OH281913   4.623   4.787  14.410  0.3697 -0.2548 -0.3295
20141TIP3    H181914   4.647   4.867  14.362 -4.7120  2.2831  0.7198
20141TIP3    H281915   4.659   4.799  14.497  1.4526 -0.2370 -0.7611
20142TIP3   OH281916   1.990   3.546   0.322 -0.3884  0.7173  0.9473
20142TIP3    H181917   1.945   3.508   0.246 -0.5009  0.6203  1.0615
20142TIP3    H281918   2.044   3.474   0.356  0.1528  0.9414  0.5807
20143TIP3   OH281919   2.576   2.410   4.316 -0.1581 -0.0315  0.3496
20143TIP3    H181920   2.514   2.438   4.249 -0.2520  0.8073  0.7699
20143TIP3    H281921   2.523   2.393   4.393 -0.0247 -0.7635  0.2794
20144TIP3   OH281922   1.845   0.455   3.681 -0.0857 -0.4162 -0.2808
20144TIP3    H181923   1.891   0.492   3.757 -1.1440  0.5003 -0.0737
20144TIP3    H281924   1.876   0.364   3.677  2.8317  0.5082 -1.0037
20145TIP3   OH281925   5.324   3.834  12.161 -0.7106  0.2639  0.2481
20145TIP3    H181926   5.321   3.806  12.069  0.8534  3.7394 -1.0274
20145TIP3    H281927   5.411   3.807  12.191  0.4272  2.5929 -0.6941
20146TIP3   OH281928   2.392   0.477   4.445  0.1457 -0.6200  0.0710
20146TIP3    H181929   2.383   0.552   4.505  1.4741 -0.3878  0.0104
20146TIP3    H281930   2.316   0.421   4.465 -0.5511  0.4462  0.5257
20147TIP3   OH281931   2.612   5.417  12.191  0.2371  0.4335  0.1577
20147TIP3    H181932   2.603   5.391  12.099  0.8000  1.0878 -0.0859
20147TIP3    H281933   2.530   5.461  12.212 -0.3888 -0.7555  0.3336
20148TIP3   OH281934   5.207   4.791  16.819  0.1476  0.2911  0.1881
20148TIP3    H181935   5.184   4.752  16.734  0.8292  2.1168 -0.9007
20148TIP3    H281936   5.144   4.863  16.829  1.9509  2.0180 -0.2976
20149TIP3   OH281937   4.512   5.704  15.553 -0.0296  0.3768 -0.4767
20149TIP3    H181938   4.542   5.668  15.637  0.8062  1.0572 -0.4689
20149TIP3    H281939   4.436   5.650  15.530 -1.0155  0.9355  1.2991
20150TIP3   OH281940   2.211   4.730   0.017  0.2219  0.6694  0.2352
20150TIP3    H181941   2.221   4.819   0.051 -0.2192  0.7944  0.0537
20150TIP3    H281942   2.146   4.739  -0.052  1.4274  0.4911 -0.9434
20151TIP3   OH281943   6.508   0.541   4.485  0.1348  0.1669 -0.1818
20151TIP3    H181944   6.461   0.457   4.489  0.4671  0.0111  0.9824
20151TIP3    H281945   6.600   0.517   4.478  0.1981  0.4349 -0.2663
20152TIP3   OH281946   5.023   3.656  14.432  0.2530 -0.2813  0.3630
20152TIP3    H181947   5.000   3.568  14.462 -1.4279 -0.4488 -1.2181
20152TIP3    H281948   5.027   3.648  14.336  0.7416  1.2300  0.2321
20153TIP3   OH281949   3.605   5.992  14.033  0.4090 -0.6468 -0.0742
20153TIP3    H181950   3.629   6.060  14.095 -2.1509  0.3631 -0.1089
20153TIP3    H281951   3.627   6.029  13.947 -0.7141  0.0806 -0.0729
20154TIP3   OH281952   6.062   0.812  16.765 -0.1137 -0.6305  0.0852
20154TIP3    H181953   6.049   0.789  16.673 -1.3764 -1.9086  0.5470
20154TIP3    H281954   6.129   0.751  16.796  1.2019  0.6050 -0.2701
20155TIP3   OH281955   1.390   2.167   3.775 -0.4654  0.2702  0.1772
20155TIP3    H181956   1.309   2.217   3.792 -0.9093  0.3224 -1.8124
20155TIP3    H281957   1.455   2.208   3.832 -1.3033  1.8155  0.1053
20156TIP3   OH281958   2.484   0.683  13.538  0.3253 -0.0830 -0.3196
20156TIP3    H181959   2.578   0.681  13.520  0.2595 -0.1010 -0.6796
20156TIP3    H281960   2.446   0.623  13.473  0.2136 -1.2374  0.7784
20157TIP3   OH281961   1.486   3.698  16.545  0.2374  0.3279  0.2013
20157TIP3    H181962   1.483   3.778  16.491  0.0627 -0.0114 -0.3007
20157TIP3    H281963   1.415   3.644  16.511  1.2117 -0.6175 -0.3790
20158TIP3   OH281964   1.688   0.831  17.216  0.5177  0.0179 -0.4476
20158TIP3    H181965   1.735   0.907  17.250 -0.9300  0.8364 -0.2283
20158TIP3    H281966   1.653   0.787  17.294 -1.3836  0.9663 -0.7035
20159TIP3   OH281967   1.272   1.200  12.317  0.1913 -0.6588 -0.2278
20159TIP3    H181968   1.187   1.230  12.284  0.7865  0.5423 -0.7083
20159TIP3    H281969   1.269   1.218  12.411  0.6096  1.1587 -0.5349
20160TIP3   OH281970   3.997   3.357   6.740  0.1462  0.2826 -0.2612
20160TIP3    H181971   4.054   3.428   6.713  0.7868 -0.4002 -0.7389
20160TIP3    H281972   3.922   3.362   6.681 -1.7540  2.9501  2.1401
20161TIP3   OH281973   3.006   4.934   2.897  0.0300 -0.6744  0.0256
20161TIP3    H181974   3.019   4.887   2.815 -3.1631 -0.1273 -0.9419
20161TIP3    H281975   2.950   4.876   2.950 -0.2794  0.1456  0.6285
20162TIP3   OH281976   2.953   2.298  15.667 -0.6451  0.0139 -0.7653
20162TIP3    H181977   2.915   2.224  15.620  2.0784 -1.8263 -0.2293
20162TIP3    H281978   3.022   2.331  15.609  0.7630 -0.3821  0.6214
20163TIP3   OH281979   5.097   0.894  11.522  0.2203  0.1569 -0.2224
20163TIP3    H181980   5.165   0.954  11.553 -0.3921  0.9904 -0.4442
20163TIP3    H281981   5.110   0.890  11.427  0.9964 -1.0141 -0.0892
20164TIP3   OH281982   3.628   4.240  14.606 -0.1268 -0.3899 -0.1864
20164TIP3    H181983   3.571   4.253  14.530 -0.5486  1.0756  0.3365
20164TIP3    H281984   3.599   4.158  14.645  0.0008 -1.0849 -1.5133
20165TIP3   OH281985   1.967   3.398   0.796  0.2972  0.0502 -0.6619
20165TIP3    H181986   1.977   3.461   0.724 -1.2133 -1.9641 -2.7577
20165TIP3    H281987   2.047   3.346   0.793  0.8777  0.8476  0.1223
20166TIP3   OH281988   3.281   2.841  12.193  0.2227 -0.4678  0.4938
20166TIP3    H181989   3.291   2.933  12.171 -4.0766  0.6233  2.1568
20166TIP3    H281990   3.274   2.796  12.109 -2.2348  1.5070 -0.4689
20167TIP3   OH281991   0.990   5.150  11.384  0.6535 -0.5259 -0.2357
20167TIP3    H181992   0.985   5.223  11.446  3.9223  0.8620 -1.3709
20167TIP3    H281993   1.057   5.092  11.421 -0.5951 -2.0408 -0.2833
20168TIP3   OH281994   4.079   6.681   4.224 -0.1080  0.5128  0.5400
20168TIP3    H181995   4.008   6.631   4.183 -3.9056  4.3142  1.7717
20168TIP3    H281996   4.137   6.704   4.152 -1.2005 -1.0943 -0.9246
20169TIP3   OH281997   4.617   0.635  16.890 -0.0718  0.5897  0.5587
20169TIP3    H181998   4.632   0.728  16.907  1.7674  0.6695 -1.1159
20169TIP3    H281999   4.523   0.622  16.906 -0.2615  2.5826  1.3492
20170TIP3   OH282000   4.215   3.773   5.765 -0.3362  0.0842  0.2226
20170TIP3    H182001   4.146   3.826   5.805 -1.1527  0.7117 -1.8744
20170TIP3    H282002   4.176   3.686   5.755  0.3551 -0.4724  1.9536
20171TIP3   OH282003   1.238   3.484   0.628  0.4654  0.0367  0.1953
20171TIP3    H182004   1.155   3.523   0.653  0.8243 -0.3771  2.1791
20171TIP3    H282005   1.220   3.390   0.624  0.6286  0.0245 -0.2518
20172TIP3   OH282006   2.777   6.151   4.325  0.6124  0.2632  0.4257
20172TIP3    H182007   2.784   6.202   4.405  0.0643  0.7473  0.1755
20172TIP3    H282008   2.839   6.191   4.264  3.3934 -2.0070  1.5333
20173TIP3   OH282009   1.899   5.067  12.652 -0.0505 -0.1400 -0.5547
20173TIP3    H182010   1.814   5.068  12.697  0.8245  1.2006  1.2116
20173TIP3    H282011   1.885   5.120  12.573 -0.5958  1.1087  0.3381
20174TIP3   OH282012   5.242   2.584  11.331  0.3589  0.2079 -0.0420
20174TIP3    H182013   5.211   2.566  11.420 -0.1258  0.0410 -0.2412
20174TIP3    H282014   5.311   2.519  11.316  1.4151  1.1229  0.7154
20175TIP3   OH282015   2.424   6.268  12.169 -0.7540  0.0588 -0.6372
20175TIP3    H182016   2.500   6.223  12.132 -0.8133 -0.8327  0.2839
20175TIP3    H282017   2.440   6.269  12.264 -1.1414  1.2848 -0.5595
20176TIP3   OH282018   6.163   1.667   3.588  1.2071 -0.6111  0.7845
20176TIP3    H182019   6.174   1.617   3.507  2.4952 -0.0226  0.5705
20176TIP3    H282020   6.229   1.631   3.647 -0.1465 -1.4782  1.8335
20177TIP3   OH282021   4.139   0.347  11.782 -0.5198  0.2477  0.1503
20177TIP3    H182022   4.219   0.295  11.785 -0.1304  0.8657  0.8701
20177TIP3    H282023   4.156   0.420  11.841 -2.3195 -0.5939  1.7851
20178TIP3   OH282024   1.457   0.585   5.335 -0.6704 -0.1304  0.3048
20178TIP3    H182025   1.447   0.669   5.379 -3.3162 -0.5377  0.6950
20178TIP3    H282026   1.471   0.607   5.243 -2.0023  0.8029  0.2867
20179TIP3   OH282027   0.026   1.670   1.870  0.1905  0.3064  0.6367
20179TIP3    H182028   0.100   1.664   1.810  0.3893 -0.9144  0.9769
20179TIP3    H282029   0.061   1.715   1.947  0.4924  0.0595  0.6476
20180TIP3   OH282030   5.741   5.291  11.413 -0.2139  0.1634 -0.4551
20180TIP3    H182031   5.732   5.379  11.448 -0.2227 -0.2930  0.7364
20180TIP3    H282032   5.737   5.302  11.318 -0.8849  1.3583 -0.3028
20181TIP3   OH282033   5.543   6.109  15.383  0.7274  0.2420  0.3085
20181TIP3    H182034   5.450   6.088  15.376  0.4456  1.4648  0.1236
20181TIP3    H282035   5.573   6.062  15.461  0.2640 -1.1596 -0.3212
20182TIP3   OH282036   6.398   4.767  16.863 -0.5486  0.2584  0.2104
20182TIP3    H182037   6.373   4.788  16.773  0.8506  1.2367  0.0246
20182TIP3    H282038   6.453   4.841  16.891 -0.6599 -0.2002  1.7472
20183TIP3   OH282039   1.510   2.411  11.153 -0.0445 -0.2581  0.5048
20183TIP3    H182040   1.437   2.473  11.157  1.1953  1.3717 -0.6837
20183TIP3    H282041   1.534   2.395  11.245 -1.3554 -0.1816  0.8712
20184TIP3   OH282042   3.842   2.036   3.457 -0.8487  0.2250  0.2620
20184TIP3    H182043   3.775   2.084   3.507 -1.3031  0.5975 -0.6693
20184TIP3    H282044   3.912   2.100   3.443 -0.0715 -0.2962  1.6214
20185TIP3   OH282045   5.128   0.161  16.344 -0.1842  0.1819  0.0840
20185TIP3    H182046   5.055   0.206  16.388  0.0776  1.1983 -0.4800
20185TIP3    H282047   5.103   0.069  16.344 -2.5116  0.7009 -1.9703
20186TIP3   OH282048   0.840   6.122  11.542  0.2736 -0.0875 -0.4578
20186TIP3    H182049   0.861   6.173  11.464 -2.3622  2.5612  0.4133
20186TIP3    H282050   0.864   6.178  11.615 -1.7106 -0.4700  0.5621
20187TIP3   OH282051   0.441   2.262  12.408  0.1952 -0.1436  1.0759
20187TIP3    H182052   0.495   2.189  12.439  0.5629 -0.5464 -0.4404
20187TIP3    H282053   0.488   2.296  12.332 -1.1931  0.1171  0.3064
20188TIP3   OH282054   3.990   2.472   0.592  0.5062 -0.1263  0.7340
20188TIP3    H182055   4.077   2.512   0.588  0.1086  0.6703 -0.2354
20188TIP3    H282056   4.002   2.385   0.553  0.7942  0.1216  0.2592
20189TIP3   OH282057   4.230   4.595   1.030  0.8313 -0.0549 -0.5693
20189TIP3    H182058   4.231   4.646   1.111  0.1716 -0.1598 -0.4861
20189TIP3    H282059   4.170   4.642   0.972  1.5427  0.1899 -1.1179
20190TIP3   OH282060   4.918   0.402  13.830 -0.3792  0.4982  0.4469
20190TIP3    H182061   4.856   0.451  13.775  0.6477  0.5047 -0.7573
20190TIP3    H282062   4.976   0.359  13.767  2.0731  2.0470  1.5166
20191TIP3   OH282063   6.095   1.574  10.358 -0.4817 -0.5865  0.1718
20191TIP3    H182064   6.097   1.479  10.345  1.1704 -0.5837  0.1284
20191TIP3    H282065   6.009   1.591  10.394 -1.5915 -1.8390 -1.6802
20192TIP3   OH282066   3.295   0.874   0.054 -0.4902  0.5664 -0.0752
20192TIP3    H182067   3.350   0.941   0.013  1.1245 -0.5243  0.2585
20192TIP3    H282068   3.246   0.836  -0.019 -1.2275  1.8714 -0.3080
20193TIP3   OH282069   5.947   4.978  14.498 -0.3333 -0.3407  0.6277
20193TIP3    H182070   6.018   5.037  14.472 -1.6969  1.3130  0.4630
20193TIP3    H282071   5.928   4.928  14.419  0.7539 -0.9432  0.7291
20194TIP3   OH282072   1.974   0.151   6.711  0.2171  0.4266 -0.5877
20194TIP3    H182073   2.003   0.093   6.781 -1.2843 -0.6242 -0.7913
20194TIP3    H282074   1.961   0.094   6.635  4.2284  1.8439 -2.6383
20195TIP3   OH282075   6.076   0.300   3.467 -0.0745 -0.2247  0.2212
20195TIP3    H182076   5.997   0.304   3.412  0.3647 -0.2562 -0.4176
20195TIP3    H282077   6.149   0.299   3.405  0.4096 -0.9236  0.7779
20196TIP3   OH282078   4.934   5.986   3.906  0.0790 -0.0543 -0.5719
20196TIP3    H182079   4.983   5.929   3.847  0.1775 -1.1371  0.5382
20196TIP3    H282080   4.842   5.964   3.889  0.1223 -0.6543 -0.0399
20197TIP3   OH282081   5.082   5.645  12.031  0.1192 -0.3274 -0.6088
20197TIP3    H182082   5.122   5.732  12.028 -0.5051  0.0145  0.5335
20197TIP3    H282083   5.052   5.629  11.941 -1.1371  1.3011 -0.5218
20198TIP3   OH282084   0.979   1.858   2.940  0.2027  0.0258  0.1514
20198TIP3    H182085   1.047   1.794   2.960 -0.0013  0.0676  0.9979
20198TIP3    H282086   0.978   1.917   3.015 -2.2092 -1.2128  1.1952
20199TIP3   OH282087   3.559   5.834   2.866  0.5667 -0.4369  0.3517
20199TIP3    H182088   3.622   5.766   2.891  0.1537 -0.0483  2.5978
20199TIP3    H282089   3.608   5.916   2.875  0.8432 -0.3351 -1.6473
20200TIP3   OH282090   2.978   5.175   3.879 -0.0988  0.0479 -0.2884
20200TIP3    H182091   2.898   5.185   3.827 -0.9129  0.1536  0.9360
20200TIP3    H282092   3.021   5.261   3.873  0.6555 -0.3946 -2.0386
20201TIP3   OH282093   5.010   6.371   3.107  0.2557  0.3601  0.5755
20201TIP3    H182094   5.097   6.345   3.076 -0.4626 -1.7156  0.1509
20201TIP3    H282095   4.995   6.456   3.065  2.1145  0.8587  0.8011
20202TIP3   OH282096   0.360   4.639  14.980 -0.4681  0.0185 -0.5766
20202TIP3    H182097   0.406   4.716  15.010 -0.5294 -0.7977  1.8248
20202TIP3    H282098   0.429   4.575  14.959 -0.4604  0.0097 -0.5221
20203TIP3   OH282099   5.570   6.667  16.389  0.6763  0.2136  0.3143
20203TIP3    H182100   5.557   6.760  16.408 -2.3172  0.1565 -1.0024
20203TIP3    H282101   5.578   6.626  16.476 -0.3973  1.4270  1.0175
20204TIP3   OH282102   2.424   0.696  13.806 -0.4008 -0.7858 -0.3664
20204TIP3    H182103   2.452   0.689  13.715 -0.8455 -1.5986 -0.4480
20204TIP3    H282104   2.409   0.605  13.834 -1.7287 -0.4651  0.0562
20205TIP3   OH282105   3.527   0.615  15.246  0.1027  0.8350  0.3152
20205TIP3    H182106   3.433   0.596  15.248  0.3227 -0.4707 -0.2356
20205TIP3    H282107   3.538   0.670  15.168 -0.3383  1.8655  0.9701
20206TIP3   OH282108   4.820   0.834   4.228 -0.0814 -0.2363  0.7008
20206TIP3    H182109   4.803   0.837   4.322  0.0745 -2.2896  0.8220
20206TIP3    H282110   4.912   0.810   4.220 -0.2852 -0.8230  0.0199
20207TIP3   OH282111   0.634   2.575  16.857  0.0912  0.2670 -0.9507
20207TIP3    H182112   0.711   2.615  16.897  0.0053 -1.0868  0.7042
20207TIP3    H282113   0.619   2.625  16.777  1.1793  2.1555 -0.0305
20208TIP3   OH282114   1.450   4.881   0.209 -0.0619  0.0010 -0.0824
20208TIP3    H182115   1.427   4.800   0.163  0.1812 -0.6320  0.8855
20208TIP3    H282116   1.366   4.923   0.226 -0.4054 -1.2699  1.5770
20209TIP3   OH282117   0.871   4.008  14.133  0.4264  0.5140  0.6411
20209TIP3    H182118   0.809   4.073  14.099  0.6173  0.4798  0.2154
20209TIP3    H282119   0.947   4.060  14.160  0.5596  0.4745  0.3459
20210TIP3   OH282120   3.038   1.264   5.377  0.3874 -0.3080  0.4162
20210TIP3    H182121   3.099   1.223   5.438 -0.1061 -0.3835  0.8559
20210TIP3    H282122   3.024   1.198   5.309  0.8649 -0.2553  0.2603
20211TIP3   OH282123   3.186   5.175   5.862 -0.0096  0.6148 -0.7880
20211TIP3    H182124   3.123   5.137   5.924 -0.2382  1.0066 -0.7771
20211TIP3    H282125   3.225   5.249   5.910  1.1608 -0.1942 -0.4440
20212TIP3   OH282126   6.127   2.079  13.216 -0.1376  0.0378 -0.1756
20212TIP3    H182127   6.183   2.127  13.155 -0.5652 -0.9089 -1.3432
20212TIP3    H282128   6.093   2.147  13.275  0.5921  0.9153 -0.7301
20213TIP3   OH282129   2.429   0.506  15.942  0.1245 -0.3875 -0.0674
20213TIP3    H182130   2.426   0.587  15.994 -0.9954 -0.6871  0.3625
20213TIP3    H282131   2.347   0.462  15.962  1.2373 -2.2408  0.6763
20214TIP3   OH282132   2.461   2.891   3.668  0.5015 -0.1602  0.3853
20214TIP3    H182133   2.543   2.919   3.709  0.7245 -0.6934  0.3118
20214TIP3    H282134   2.393   2.915   3.731  0.6775  0.5811  0.3046
20215TIP3   OH282135   4.041   1.428   3.129  0.1630  0.0796  0.0432
20215TIP3    H182136   3.994   1.345   3.124  0.1076  0.0590  0.8051
20215TIP3    H282137   4.099   1.427   3.053 -0.5187 -0.2286 -0.4851
20216TIP3   OH282138   6.538   1.014   4.075 -0.1508  0.0002  0.2566
20216TIP3    H182139   6.509   1.058   4.155  0.6573  0.0597  0.5222
20216TIP3    H282140   6.533   0.921   4.096  1.8705  0.0222  1.0657
20217TIP3   OH282141   3.655   0.481  10.744  0.3506  0.3533 -0.0861
20217TIP3    H182142   3.733   0.535  10.758 -0.9430  2.0682  0.9823
20217TIP3    H282143   3.689   0.397  10.713  2.6434  0.8562  0.8340
20218TIP3   OH282144   4.476   1.219  15.835  0.0348  0.1885  0.1224
20218TIP3    H182145   4.561   1.176  15.844  0.5062  0.8669 -0.8433
20218TIP3    H282146   4.412   1.153  15.860  0.7719 -0.8526 -0.7008
20219TIP3   OH282147   1.496   4.565  15.349  0.6171 -0.1858 -0.0156
20219TIP3    H182148   1.512   4.620  15.426  1.6439 -1.1725  0.5241
20219TIP3    H282149   1.493   4.476  15.385 -0.7216 -0.5177 -0.8994
20220TIP3   OH282150   3.495   3.053   1.601  0.1663  0.0843  0.1104
20220TIP3    H182151   3.471   2.961   1.589  0.5235  0.0885 -0.6953
20220TIP3    H282152   3.579   3.063   1.556  1.1280  0.3605  1.8370
20221TIP3   OH282153   4.323   4.640   3.565  0.0090 -0.2127 -0.1908
20221TIP3    H182154   4.350   4.707   3.502 -0.4025  0.9822  0.8834
20221TIP3    H282155   4.343   4.676   3.651 -2.2155 -0.5044  0.5261
20222TIP3   OH282156   5.501   3.902   4.378  0.1661  0.0112 -0.3381
20222TIP3    H182157   5.495   3.988   4.419  3.2818 -0.0017  0.3993
20222TIP3    H282158   5.595   3.890   4.360 -0.1033 -3.3168 -0.2220
20223TIP3   OH282159   3.260   0.717  15.350 -0.5722  0.5791 -0.7700
20223TIP3    H182160   3.316   0.678  15.417 -0.0697  0.0583 -1.4803
20223TIP3    H282161   3.238   0.644  15.292  1.2796  1.4935 -2.7552
20224TIP3   OH282162   3.447   6.413   2.473  0.4995  0.0397  0.2711
20224TIP3    H182163   3.453   6.496   2.519  0.1272  0.3224 -0.1808
20224TIP3    H282164   3.381   6.427   2.406 -0.9625 -1.1953  1.3817
20225TIP3   OH282165   3.058   2.152  14.778  0.2898  0.8796 -0.0104
20225TIP3    H182166   3.144   2.111  14.785 -0.0215  0.4183  1.3541
20225TIP3    H282167   3.001   2.082  14.747  0.3595  1.1423 -0.7552
20226TIP3   OH282168   5.689   2.956   5.218 -0.2380 -0.2385  0.2050
20226TIP3    H182169   5.600   2.991   5.229  0.5344  2.6104 -1.5776
20226TIP3    H282170   5.699   2.949   5.123  1.3077 -0.9193  0.4006
20227TIP3   OH282171   6.615   3.848  16.934 -0.0503 -0.5523 -0.0111
20227TIP3    H182172   6.642   3.830  17.024  2.9089  0.1806 -0.6513
20227TIP3    H282173   6.642   3.770  16.885  1.1751  0.2749 -0.7086
20228TIP3   OH282174   1.324   6.355   2.644  0.2613 -0.6419 -0.4188
20228TIP3    H182175   1.236   6.327   2.667  0.5032 -0.3628  1.0047
20228TIP3    H282176   1.345   6.423   2.709  2.2198 -2.0286  0.5105
20229TIP3   OH282177   3.520   1.168  15.893  0.6813 -0.2981  0.0015
20229TIP3    H182178   3.546   1.253  15.856 -0.5900  0.6161  1.0884
20229TIP3    H282179   3.601   1.119  15.899  1.2856  0.3897 -1.7457
20230TIP3   OH282180   0.265   0.444  17.143 -0.0456 -0.2927 -0.0555
20230TIP3    H182181   0.177   0.405  17.139 -0.4720  0.6492 -3.6998
20230TIP3    H282182   0.323   0.370  17.159 -1.3889 -1.0958  1.4104
20231TIP3   OH282183   4.387   2.922   1.700  0.0026 -0.1242  0.1091
20231TIP3    H182184   4.465   2.875   1.674 -0.3806  0.3669 -2.2226
20231TIP3    H282185   4.353   2.875   1.776  2.4820 -0.3773  1.1257
20232TIP3   OH282186   0.518   4.435   0.729 -0.4688  0.1250 -0.2772
20232TIP3    H182187   0.457   4.374   0.686  2.6580 -2.2906 -1.6670
20232TIP3    H282188   0.520   4.406   0.820 -0.5355 -0.5605 -0.4850
20233TIP3   OH282189   0.500   1.486  15.140 -0.5708  0.3081 -0.3430
20233TIP3    H182190   0.489   1.462  15.048  0.2502 -1.3277 -0.0389
20233TIP3    H282191   0.463   1.412  15.189 -1.4193  1.3569  0.6641
20234TIP3   OH282192   0.626   5.413   1.805 -1.1585  0.5738 -0.0017
20234TIP3    H182193   0.669   5.350   1.747 -0.5887  0.7182  0.2535
20234TIP3    H282194   0.536   5.416   1.775 -1.3589 -0.8445  0.3760
20235TIP3   OH282195   0.142   5.982   6.528  0.0707  0.4588 -0.2813
20235TIP3    H182196   0.160   6.054   6.589  1.5204  1.2097 -1.5284
20235TIP3    H282197   0.082   5.924   6.576 -0.1041  1.8260  1.2364
20236TIP3   OH282198   5.506   3.938  13.387 -0.0594 -0.6631  0.2936
20236TIP3    H182199   5.496   3.870  13.321  0.1417 -2.1220  1.6953
20236TIP3    H282200   5.551   3.894  13.459  0.8748  1.1973  0.9085
20237TIP3   OH282201   6.485   6.436  14.292 -0.2237  0.5224 -0.2853
20237TIP3    H182202   6.450   6.355  14.255  2.1443 -0.7310  0.0587
20237TIP3    H282203   6.442   6.505  14.241 -0.1046 -1.0168 -2.6600
20238LIG      S82204   3.818   3.746  16.439  0.0835  0.1692 -0.2295
20238LIG     F182205   2.842   2.960  16.398  0.0070 -0.1409  0.1992
20238LIG     F282206   2.913   2.752  16.370 -0.5158 -0.2375  0.3292
20238LIG     F382207   2.999   2.870  16.513  0.5285  0.0635 -0.4743
20238LIG     N182208   3.584   3.423  16.222  0.3904 -0.1799  0.1166
20238LIG     N282209   3.583   3.568  16.581 -0.0439  0.2735 -0.4588
20238LIG     C182210   3.662   3.508  16.471  0.9300 -0.7601  0.0858
20238LIG     C282211   3.574   3.524  16.339 -0.4496  0.3568 -0.8274
20238LIG     C382212   3.519   3.458  16.095 -0.5756  0.2826  0.5795
20238LIG     C482213   3.555   3.282  16.255  0.4269 -0.3825  0.1299
20238LIG     C582214   3.365   3.444  16.110  0.1425  0.8557 -0.4843
20238LIG     C682215   3.409   3.268  16.287  0.2949  0.0250 -0.3186
20238LIG     C782216   3.324   3.311  16.170  0.4044 -0.3132 -0.1410
20238LIG     C882217   3.803   3.566  16.471 -0.2690  0.3769  0.1448
20238LIG     C982218   3.572   3.715  16.582  0.7779  0.5951  0.2799
20238LIG    C1082219   3.709   3.800  16.578  0.3878 -0.1233 -0.1842
20238LIG    C1182220   3.209   3.243  16.143  0.5929 -0.4065 -0.0631
20238LIG    C1282221   3.615   3.501  16.714  0.0643  0.2689 -0.2948
20238LIG    C1382222   3.190   3.105  16.192 -0.2338  0.0096  0.5909
20238LIG    C1482223   3.108   3.296  16.050  0.3439 -0.0227 -0.1878
20238LIG    C1582224   3.083   3.060  16.271 -0.1929  0.3922  0.2932
20238LIG    C1682225   3.276   3.003  16.139 -0.0122  0.0333 -0.5877
20238LIG    C1782226   3.048   3.422  16.053  0.0239 -0.5325  0.0244
20238LIG    C1882227   3.076   3.215  15.933 -0.4918 -0.3203 -0.2450
20238LIG    C1982228   3.056   2.917  16.293 -0.6281 -0.1889  0.0640
20238LIG    C2082229   3.254   2.864  16.163 -0.3730 -0.2598 -0.3520
20238LIG    C2182230   2.969   3.466  15.955  0.1988 -0.2612 -0.1392
20238LIG    C2282231   2.998   3.258  15.830 -0.2426  0.0895  0.6840
20238LIG    C2382232   3.142   2.823  16.228 -0.3729  0.1454 -0.7078
20238LIG    C2482233   2.949   3.387  15.838  0.2952  0.2809 -0.0564
20238LIG    C2582234   2.955   2.879  16.389 -0.3247  0.2068  0.0922
20238LIG     H182235   3.668   3.398  16.486 -0.4928 -0.6313  1.9400
20238LIG     H282236   3.466   3.523  16.362 -0.5486  0.9665 -1.2531
20238LIG     H382237   3.606   3.622  16.298  0.5127  1.4120  2.1900
20238LIG     H482238   3.556   3.396  16.010 -0.8005 -0.7015  1.1842
20238LIG     H582239   3.552   3.563  16.076  3.2019 -0.5238  1.7529
20238LIG     H682240   3.616   3.248  16.341  0.9787  1.1119  0.3711
20238LIG     H782241   3.584   3.224  16.165  2.1254  2.0499 -1.0006
20238LIG     H882242   3.320   3.472  16.013 -1.2569 -0.2184 -0.1894
20238LIG     H982243   3.334   3.524  16.181 -0.0075 -0.0032  0.4383
20238LIG    H1082244   3.380   3.335  16.371 -0.3433 -1.9117  1.0901
20238LIG    H1182245   3.397   3.162  16.318  1.6246 -0.1190 -0.2013
20238LIG    H1282246   3.852   3.535  16.567 -0.6689  1.0432  0.5726
20238LIG    H1382247   3.869   3.519  16.395 -1.9120  1.1468 -1.8244
20238LIG    H1482248   3.509   3.745  16.669  1.4061  1.8593  0.3284
20238LIG    H1582249   3.510   3.752  16.496 -1.7705 -1.5379  1.0661
20238LIG    H1682250   3.686   3.909  16.568 -0.1592 -0.1525  0.6327
20238LIG    H1782251   3.758   3.782  16.676  0.8988 -1.1995 -0.6217
20238LIG    H1882252   3.564   3.403  16.711 -3.4420  1.9743 -0.9670
20238LIG    H1982253   3.577   3.562  16.799  1.1139  0.2035  0.2449
20238LIG    H2082254   3.725   3.486  16.728 -0.1469  0.2816  1.5244
20238LIG    H2182255   3.012   3.134  16.303 -0.4776  2.3409 -4.0973
20238LIG    H2282256   3.345   3.031  16.061  0.8894 -0.9902 -0.1912
20238LIG    H2382257   3.054   3.484  16.142 -3.6523 -0.2767  0.2685
20238LIG    H2482258   3.117   3.117  15.914  0.0654  0.3154 -2.7233
20238LIG    H2582259   3.329   2.796  16.124  1.0766  0.1719  1.4992
20238LIG    H2682260   2.917   3.560  15.960 -2.4188 -1.6565  0.8232
20238LIG    H2782261   2.987   3.195  15.743 -0.1757  0.9114  0.0674
20238LIG    H2882262   3.146   2.717  16.245  0.4140  0.3020  0.1534
20238LIG    H2982263   2.894   3.426  15.754 -0.6024 -1.4967 -0.3320
   6.82097   6.82097  17.27148
